 Entering Gaussian System, Link 0=g16
 Initial command:
 /opt/g16/l1.exe "/home/aayush/scratches/g16/Gau-61057.inp" -scrdir="/home/aayush/scratches/g16/"
 Entering Link 1 = /opt/g16/l1.exe PID=     61060.
  
 Copyright (c) 1988,1990,1992,1993,1995,1998,2003,2009,2016,
            Gaussian, Inc.  All Rights Reserved.
  
 This is part of the Gaussian(R) 16 program.  It is based on
 the Gaussian(R) 09 system (copyright 2009, Gaussian, Inc.),
 the Gaussian(R) 03 system (copyright 2003, Gaussian, Inc.),
 the Gaussian(R) 98 system (copyright 1998, Gaussian, Inc.),
 the Gaussian(R) 94 system (copyright 1995, Gaussian, Inc.),
 the Gaussian 92(TM) system (copyright 1992, Gaussian, Inc.),
 the Gaussian 90(TM) system (copyright 1990, Gaussian, Inc.),
 the Gaussian 88(TM) system (copyright 1988, Gaussian, Inc.),
 the Gaussian 86(TM) system (copyright 1986, Carnegie Mellon
 University), and the Gaussian 82(TM) system (copyright 1983,
 Carnegie Mellon University). Gaussian is a federally registered
 trademark of Gaussian, Inc.
  
 This software contains proprietary and confidential information,
 including trade secrets, belonging to Gaussian, Inc.
  
 This software is provided under written license and may be
 used, copied, transmitted, or stored only in accord with that
 written license.
  
 The following legend is applicable only to US Government
 contracts under FAR:
  
                    RESTRICTED RIGHTS LEGEND
  
 Use, reproduction and disclosure by the US Government is
 subject to restrictions as set forth in subparagraphs (a)
 and (c) of the Commercial Computer Software - Restricted
 Rights clause in FAR 52.227-19.
  
 Gaussian, Inc.
 340 Quinnipiac St., Bldg. 40, Wallingford CT 06492
  
  
 ---------------------------------------------------------------
 Warning -- This program may not be used in any manner that
 competes with the business of Gaussian, Inc. or will provide
 assistance to any competitor of Gaussian, Inc.  The licensee
 of this program is prohibited from giving any competitor of
 Gaussian, Inc. access to this program.  By using this program,
 the user acknowledges that Gaussian, Inc. is engaged in the
 business of creating and licensing software in the field of
 computational chemistry and represents and warrants to the
 licensee that it is not a competitor of Gaussian, Inc. and that
 it will not use this program in any manner prohibited above.
 ---------------------------------------------------------------
  

 Cite this work as:
 Gaussian 16, Revision A.03,
 M. J. Frisch, G. W. Trucks, H. B. Schlegel, G. E. Scuseria, 
 M. A. Robb, J. R. Cheeseman, G. Scalmani, V. Barone, 
 G. A. Petersson, H. Nakatsuji, X. Li, M. Caricato, A. V. Marenich, 
 J. Bloino, B. G. Janesko, R. Gomperts, B. Mennucci, H. P. Hratchian, 
 J. V. Ortiz, A. F. Izmaylov, J. L. Sonnenberg, D. Williams-Young, 
 F. Ding, F. Lipparini, F. Egidi, J. Goings, B. Peng, A. Petrone, 
 T. Henderson, D. Ranasinghe, V. G. Zakrzewski, J. Gao, N. Rega, 
 G. Zheng, W. Liang, M. Hada, M. Ehara, K. Toyota, R. Fukuda, 
 J. Hasegawa, M. Ishida, T. Nakajima, Y. Honda, O. Kitao, H. Nakai, 
 T. Vreven, K. Throssell, J. A. Montgomery, Jr., J. E. Peralta, 
 F. Ogliaro, M. J. Bearpark, J. J. Heyd, E. N. Brothers, K. N. Kudin, 
 V. N. Staroverov, T. A. Keith, R. Kobayashi, J. Normand, 
 K. Raghavachari, A. P. Rendell, J. C. Burant, S. S. Iyengar, 
 J. Tomasi, M. Cossi, J. M. Millam, M. Klene, C. Adamo, R. Cammi, 
 J. W. Ochterski, R. L. Martin, K. Morokuma, O. Farkas, 
 J. B. Foresman, and D. J. Fox, Gaussian, Inc., Wallingford CT, 2016.
 
 ******************************************
 Gaussian 16:  ES64L-G16RevA.03 25-Dec-2016
                16-Aug-2025 
 ******************************************
 %chk=ethyl_propiolate.chk
 %nprocshared=24
 Will use up to   24 processors via shared memory.
 %mem=12GB
 --------------------------
 # freq 6-311++g(d,p) m062x
 --------------------------
 1/10=4,30=1,38=1/1,3;
 2/12=2,17=6,18=5,40=1/2;
 3/5=4,6=6,7=1111,11=2,25=1,30=1,71=2,74=-55,140=1/1,2,3;
 4//1;
 5/5=2,38=5,98=1/2;
 8/6=4,10=90,11=11/1;
 11/6=1,8=1,9=11,15=111,16=1/1,2,10;
 10/6=1/2;
 6/7=2,8=2,9=2,10=2,28=1/1;
 7/8=1,10=1,25=1/1,2,3,16;
 1/10=4,30=1/3;
 99//99;
 -------------------
 Title Card Required
 -------------------
 Symbolic Z-matrix:
 Charge =  0 Multiplicity = 2
 O                     2.06878   1.25738  -0.0281 
 H                     2.73032   1.17679   0.67112 
 C                     2.3731   -1.19489  -0.56301 
 H                     3.25661  -1.67433  -0.92107 
 C                     1.51268  -0.36239  -0.16221 
 C                     0.10328  -0.18815   0.31644 
 O                    -0.23379  -0.35613   1.45338 
 O                    -0.65617   0.28097  -0.66325 
 C                    -1.9896    0.69126  -0.2935 
 C                    -2.92279  -0.49958  -0.20907 
 H                    -2.28199   1.37942  -1.08437 
 H                    -1.93492   1.2276    0.65455 
 H                    -3.93723  -0.15495   0.00078 
 H                    -2.9321   -1.04374  -1.15472 
 H                    -2.61554  -1.17333   0.59088 
 

 GradGradGradGradGradGradGradGradGradGradGradGradGradGradGradGradGradGrad
 Berny optimization.
 Initialization pass.
 Trust Radius=3.00D-01 FncErr=1.00D-07 GrdErr=1.00D-07 EigMax=2.50D+02 EigMin=1.00D-04
 Number of steps in this run=      2 maximum allowed number of steps=      2.
 GradGradGradGradGradGradGradGradGradGradGradGradGradGradGradGradGradGrad

                          Input orientation:                          
 ---------------------------------------------------------------------
 Center     Atomic      Atomic             Coordinates (Angstroms)
 Number     Number       Type             X           Y           Z
 ---------------------------------------------------------------------
      1          8           0        2.068782    1.257380   -0.028101
      2          1           0        2.730320    1.176794    0.671123
      3          6           0        2.373095   -1.194888   -0.563012
      4          1           0        3.256606   -1.674334   -0.921073
      5          6           0        1.512678   -0.362392   -0.162208
      6          6           0        0.103282   -0.188151    0.316439
      7          8           0       -0.233792   -0.356125    1.453382
      8          8           0       -0.656167    0.280968   -0.663245
      9          6           0       -1.989604    0.691260   -0.293496
     10          6           0       -2.922786   -0.499579   -0.209071
     11          1           0       -2.281990    1.379422   -1.084367
     12          1           0       -1.934923    1.227599    0.654551
     13          1           0       -3.937228   -0.154949    0.000779
     14          1           0       -2.932104   -1.043738   -1.154720
     15          1           0       -2.615537   -1.173334    0.590882
 ---------------------------------------------------------------------
                    Distance matrix (angstroms):
                    1          2          3          4          5
     1  O    0.000000
     2  H    0.965940   0.000000
     3  C    2.528311   2.697327   0.000000
     4  H    3.286833   3.307718   1.067084   0.000000
     5  C    1.717818   2.132179   1.262541   2.310488   0.000000
     6  C    2.464033   2.981645   2.634199   3.699139   1.498619
     7  O    3.178056   3.427496   3.400769   4.422509   2.379144
     8  O    2.963467   3.748511   3.371146   4.381720   2.317075
     9  C    4.106266   4.841892   4.760602   5.789007   3.659699
    10  C    5.294847   5.961759   5.353044   6.330236   4.437833
    11  H    4.478818   5.314702   5.344970   6.326779   4.275956
    12  H    4.061595   4.665549   5.090179   6.152705   3.883442
    13  H    6.169900   6.832210   6.420242   7.410101   5.456287
    14  H    5.619010   6.350395   5.340234   6.225140   4.604932
    15  H    5.313601   5.840182   5.120389   6.084330   4.273983
                    6          7          8          9         10
     6  C    0.000000
     7  O    1.197695   0.000000
     8  O    1.325374   2.250422   0.000000
     9  C    2.350650   2.689140   1.443298   0.000000
    10  C    3.087108   3.164651   2.439895   1.515273   0.000000
    11  H    3.179476   3.694240   2.006800   1.088363   2.169656
    12  H    2.504585   2.457674   2.065893   1.090616   2.169069
    13  H    4.052958   3.983210   3.375843   2.143807   1.091741
    14  H    3.479929   3.815219   2.678859   2.154120   1.091076
    15  H    2.904803   2.661662   2.743531   2.156531   1.090079
                   11         12         13         14         15
    11  H    0.000000
    12  H    1.779703   0.000000
    13  H    2.504326   2.519540   0.000000
    14  H    2.509841   3.070310   1.770706   0.000000
    15  H    3.071527   2.496351   1.769801   1.778802   0.000000
 Stoichiometry    C5H7O3(2)
 Framework group  C1[X(C5H7O3)]
 Deg. of freedom    39
 Full point group                 C1      NOp   1
 Largest Abelian subgroup         C1      NOp   1
 Largest concise Abelian subgroup C1      NOp   1
                         Standard orientation:                         
 ---------------------------------------------------------------------
 Center     Atomic      Atomic             Coordinates (Angstroms)
 Number     Number       Type             X           Y           Z
 ---------------------------------------------------------------------
      1          8           0        2.124868    1.270496    0.023276
      2          1           0        2.786880    1.170581    0.719551
      3          6           0        2.441934   -1.161379   -0.591383
      4          1           0        3.327905   -1.624259   -0.964834
      5          6           0        1.577218   -0.346916   -0.163685
      6          6           0        0.166973   -0.195756    0.320280
      7          8           0       -0.169118   -0.402516    1.451105
      8          8           0       -0.595002    0.301124   -0.643629
      9          6           0       -1.930530    0.692158   -0.260791
     10          6           0       -2.857474   -0.505659   -0.215365
     11          1           0       -2.226576    1.404236   -1.028798
     12          1           0       -1.878566    1.197538    0.704265
     13          1           0       -3.873683   -0.173366    0.005542
     14          1           0       -2.864034   -1.018697   -1.178275
     15          1           0       -2.546640   -1.203558    0.562191
 ---------------------------------------------------------------------
 Rotational constants (GHZ):           4.2492606           1.1708931           1.1307490
 Standard basis: 6-311++G(d,p) (5D, 7F)
 There are   233 symmetry adapted cartesian basis functions of A   symmetry.
 There are   225 symmetry adapted basis functions of A   symmetry.
   225 basis functions,   351 primitive gaussians,   233 cartesian basis functions
    31 alpha electrons       30 beta electrons
       nuclear repulsion energy       362.1106633053 Hartrees.
 NAtoms=   15 NActive=   15 NUniq=   15 SFac= 1.00D+00 NAtFMM=   60 NAOKFM=F Big=F
 Integral buffers will be    131072 words long.
 Raffenetti 2 integral format.
 Two-electron integral symmetry is turned on.
 One-electron integrals computed using PRISM.
 NBasis=   225 RedAO= T EigKep=  7.76D-06  NBF=   225
 NBsUse=   225 1.00D-06 EigRej= -1.00D+00 NBFU=   225
 ExpMin= 3.60D-02 ExpMax= 8.59D+03 ExpMxC= 1.30D+03 IAcc=3 IRadAn=         5 AccDes= 0.00D+00
 Harris functional with IExCor= 1009 and IRadAn=       5 diagonalized for initial guess.
 HarFok:  IExCor= 1009 AccDes= 0.00D+00 IRadAn=         5 IDoV= 1 UseB2=F ITyADJ=14
 ICtDFT=  3500011 ScaDFX=  1.000000  1.000000  1.000000  1.000000
 FoFCou: FMM=F IPFlag=           0 FMFlag=      100000 FMFlg1=           0
         NFxFlg=           0 DoJE=T BraDBF=F KetDBF=T FulRan=T
         wScrn=  0.000000 ICntrl=       500 IOpCl=  0 I1Cent=   200000004 NGrid=           0
         NMat0=    1 NMatS0=      1 NMatT0=    0 NMatD0=    1 NMtDS0=    0 NMtDT0=    0
 Petite list used in FoFCou.
 Initial guess <Sx>= 0.0000 <Sy>= 0.0000 <Sz>= 0.5000 <S**2>= 0.7500 S= 0.5000
 Requested convergence on RMS density matrix=1.00D-08 within 128 cycles.
 Requested convergence on MAX density matrix=1.00D-06.
 Requested convergence on             energy=1.00D-06.
 No special actions if energy rises.
 SCF Done:  E(UM062X) =  -420.217609061     A.U. after   19 cycles
            NFock= 19  Conv=0.48D-08     -V/T= 2.0038
 <Sx>= 0.0000 <Sy>= 0.0000 <Sz>= 0.5000 <S**2>= 0.7779 S= 0.5138
 <L.S>=  0.00000000000    
 Annihilation of the first spin contaminant:
 S**2 before annihilation     0.7779,   after     0.7505
 DoSCS=F DFT=T ScalE2(SS,OS)=  1.000000  1.000000
 Range of M.O.s used for correlation:     1   225
 NBasis=   225 NAE=    31 NBE=    30 NFC=     0 NFV=     0
 NROrb=    225 NOA=    31 NOB=    30 NVA=   194 NVB=   195

 **** Warning!!: The largest alpha MO coefficient is  0.91732539D+02


 **** Warning!!: The largest beta MO coefficient is  0.10371014D+03

 Symmetrizing basis deriv contribution to polar:
 IMax=3 JMax=2 DiffMx= 0.00D+00
 G2DrvN: will do    16 centers at a time, making    1 passes.
 Calling FoFCou, ICntrl=  3107 FMM=F I1Cent=   0 AccDes= 0.00D+00.
 End of G2Drv F.D. properties file   721 does not exist.
 End of G2Drv F.D. properties file   722 does not exist.
 End of G2Drv F.D. properties file   788 does not exist.
          IDoAtm=111111111111111
          Differentiating once with respect to electric field.
                with respect to dipole field.
          Differentiating once with respect to nuclear coordinates.
 Keep R1 and R2 ints in memory in canonical form, NReq=671901991.
          There are    48 degrees of freedom in the 1st order CPHF.  IDoFFX=6 NUNeed=     3.
     45 vectors produced by pass  0 Test12= 2.47D-14 2.08D-09 XBig12= 8.01D+01 3.39D+00.
 AX will form    45 AO Fock derivatives at one time.
     45 vectors produced by pass  1 Test12= 2.47D-14 2.08D-09 XBig12= 1.27D+01 4.02D-01.
     45 vectors produced by pass  2 Test12= 2.47D-14 2.08D-09 XBig12= 6.39D-01 1.45D-01.
     45 vectors produced by pass  3 Test12= 2.47D-14 2.08D-09 XBig12= 1.11D-02 1.08D-02.
     45 vectors produced by pass  4 Test12= 2.47D-14 2.08D-09 XBig12= 1.04D-04 9.17D-04.
     45 vectors produced by pass  5 Test12= 2.47D-14 2.08D-09 XBig12= 1.37D-06 1.16D-04.
     38 vectors produced by pass  6 Test12= 2.47D-14 2.08D-09 XBig12= 1.32D-08 8.93D-06.
     22 vectors produced by pass  7 Test12= 2.47D-14 2.08D-09 XBig12= 8.38D-11 6.82D-07.
      4 vectors produced by pass  8 Test12= 2.47D-14 2.08D-09 XBig12= 6.81D-13 6.90D-08.
      3 vectors produced by pass  9 Test12= 2.47D-14 2.08D-09 XBig12= 6.57D-15 9.84D-09.
      1 vectors produced by pass 10 Test12= 2.47D-14 2.08D-09 XBig12= 1.69D-16 2.56D-09.
 InvSVY:  IOpt=1 It=  1 EMax= 1.24D-14
 Solved reduced A of dimension   338 with    48 vectors.
 Isotropic polarizability for W=    0.000000       71.82 Bohr**3.
 End of Minotr F.D. properties file   721 does not exist.
 End of Minotr F.D. properties file   722 does not exist.
 End of Minotr F.D. properties file   788 does not exist.

 **********************************************************************

            Population analysis using the SCF density.

 **********************************************************************

 Orbital symmetries:
 Alpha Orbitals:
       Occupied  (A) (A) (A) (A) (A) (A) (A) (A) (A) (A) (A) (A)
                 (A) (A) (A) (A) (A) (A) (A) (A) (A) (A) (A) (A)
                 (A) (A) (A) (A) (A) (A) (A)
       Virtual   (A) (A) (A) (A) (A) (A) (A) (A) (A) (A) (A) (A)
                 (A) (A) (A) (A) (A) (A) (A) (A) (A) (A) (A) (A)
                 (A) (A) (A) (A) (A) (A) (A) (A) (A) (A) (A) (A)
                 (A) (A) (A) (A) (A) (A) (A) (A) (A) (A) (A) (A)
                 (A) (A) (A) (A) (A) (A) (A) (A) (A) (A) (A) (A)
                 (A) (A) (A) (A) (A) (A) (A) (A) (A) (A) (A) (A)
                 (A) (A) (A) (A) (A) (A) (A) (A) (A) (A) (A) (A)
                 (A) (A) (A) (A) (A) (A) (A) (A) (A) (A) (A) (A)
                 (A) (A) (A) (A) (A) (A) (A) (A) (A) (A) (A) (A)
                 (A) (A) (A) (A) (A) (A) (A) (A) (A) (A) (A) (A)
                 (A) (A) (A) (A) (A) (A) (A) (A) (A) (A) (A) (A)
                 (A) (A) (A) (A) (A) (A) (A) (A) (A) (A) (A) (A)
                 (A) (A) (A) (A) (A) (A) (A) (A) (A) (A) (A) (A)
                 (A) (A) (A) (A) (A) (A) (A) (A) (A) (A) (A) (A)
                 (A) (A) (A) (A) (A) (A) (A) (A) (A) (A) (A) (A)
                 (A) (A) (A) (A) (A) (A) (A) (A) (A) (A) (A) (A)
                 (A) (A)
 Beta  Orbitals:
       Occupied  (A) (A) (A) (A) (A) (A) (A) (A) (A) (A) (A) (A)
                 (A) (A) (A) (A) (A) (A) (A) (A) (A) (A) (A) (A)
                 (A) (A) (A) (A) (A) (A)
       Virtual   (A) (A) (A) (A) (A) (A) (A) (A) (A) (A) (A) (A)
                 (A) (A) (A) (A) (A) (A) (A) (A) (A) (A) (A) (A)
                 (A) (A) (A) (A) (A) (A) (A) (A) (A) (A) (A) (A)
                 (A) (A) (A) (A) (A) (A) (A) (A) (A) (A) (A) (A)
                 (A) (A) (A) (A) (A) (A) (A) (A) (A) (A) (A) (A)
                 (A) (A) (A) (A) (A) (A) (A) (A) (A) (A) (A) (A)
                 (A) (A) (A) (A) (A) (A) (A) (A) (A) (A) (A) (A)
                 (A) (A) (A) (A) (A) (A) (A) (A) (A) (A) (A) (A)
                 (A) (A) (A) (A) (A) (A) (A) (A) (A) (A) (A) (A)
                 (A) (A) (A) (A) (A) (A) (A) (A) (A) (A) (A) (A)
                 (A) (A) (A) (A) (A) (A) (A) (A) (A) (A) (A) (A)
                 (A) (A) (A) (A) (A) (A) (A) (A) (A) (A) (A) (A)
                 (A) (A) (A) (A) (A) (A) (A) (A) (A) (A) (A) (A)
                 (A) (A) (A) (A) (A) (A) (A) (A) (A) (A) (A) (A)
                 (A) (A) (A) (A) (A) (A) (A) (A) (A) (A) (A) (A)
                 (A) (A) (A) (A) (A) (A) (A) (A) (A) (A) (A) (A)
                 (A) (A) (A)
 The electronic state is 2-A.
 Alpha  occ. eigenvalues --  -19.68326 -19.64295 -19.63270 -10.70419 -10.63184
 Alpha  occ. eigenvalues --  -10.60536 -10.59533 -10.53794  -1.25832  -1.16516
 Alpha  occ. eigenvalues --   -1.11338  -0.91276  -0.87830  -0.78162  -0.71238
 Alpha  occ. eigenvalues --   -0.64816  -0.62012  -0.58886  -0.57309  -0.54685
 Alpha  occ. eigenvalues --   -0.53341  -0.49788  -0.48348  -0.46113  -0.45255
 Alpha  occ. eigenvalues --   -0.42190  -0.40274  -0.39688  -0.38480  -0.36251
 Alpha  occ. eigenvalues --   -0.31314
 Alpha virt. eigenvalues --   -0.00328   0.00222   0.01174   0.01433   0.02039
 Alpha virt. eigenvalues --    0.02650   0.02953   0.04033   0.05432   0.06592
 Alpha virt. eigenvalues --    0.07152   0.07822   0.08353   0.08985   0.10512
 Alpha virt. eigenvalues --    0.10996   0.11618   0.12393   0.12837   0.13182
 Alpha virt. eigenvalues --    0.13690   0.14415   0.14884   0.15398   0.15943
 Alpha virt. eigenvalues --    0.16638   0.17996   0.18367   0.18766   0.20179
 Alpha virt. eigenvalues --    0.21070   0.22007   0.22678   0.23326   0.24298
 Alpha virt. eigenvalues --    0.26525   0.26836   0.27140   0.29205   0.30117
 Alpha virt. eigenvalues --    0.30570   0.32625   0.32988   0.33667   0.34082
 Alpha virt. eigenvalues --    0.35599   0.36102   0.37479   0.38497   0.39709
 Alpha virt. eigenvalues --    0.41282   0.43252   0.43861   0.46529   0.47135
 Alpha virt. eigenvalues --    0.51998   0.53207   0.54507   0.55774   0.57051
 Alpha virt. eigenvalues --    0.57568   0.60674   0.62725   0.63665   0.65001
 Alpha virt. eigenvalues --    0.66170   0.69104   0.69503   0.70971   0.71807
 Alpha virt. eigenvalues --    0.72926   0.74535   0.77204   0.77672   0.80794
 Alpha virt. eigenvalues --    0.81938   0.86072   0.89479   0.94437   0.95863
 Alpha virt. eigenvalues --    1.01162   1.01541   1.03808   1.06810   1.10635
 Alpha virt. eigenvalues --    1.16442   1.17491   1.20333   1.21628   1.24161
 Alpha virt. eigenvalues --    1.26488   1.28509   1.29560   1.32727   1.34509
 Alpha virt. eigenvalues --    1.35601   1.36608   1.38779   1.41631   1.46999
 Alpha virt. eigenvalues --    1.48601   1.49702   1.53435   1.55203   1.57004
 Alpha virt. eigenvalues --    1.58438   1.60147   1.61407   1.62686   1.63960
 Alpha virt. eigenvalues --    1.65413   1.67559   1.70932   1.72241   1.74497
 Alpha virt. eigenvalues --    1.78177   1.80920   1.84266   1.85420   1.87053
 Alpha virt. eigenvalues --    1.90428   1.91982   1.99889   2.04600   2.08160
 Alpha virt. eigenvalues --    2.10838   2.13017   2.13616   2.20326   2.21767
 Alpha virt. eigenvalues --    2.30947   2.34856   2.38545   2.48417   2.51183
 Alpha virt. eigenvalues --    2.53777   2.54464   2.59491   2.61764   2.62725
 Alpha virt. eigenvalues --    2.64523   2.65835   2.70969   2.71150   2.73405
 Alpha virt. eigenvalues --    2.76214   2.79400   2.81707   2.87142   2.91458
 Alpha virt. eigenvalues --    2.94281   2.96622   2.97401   3.00338   3.09544
 Alpha virt. eigenvalues --    3.12263   3.12597   3.14976   3.19526   3.24115
 Alpha virt. eigenvalues --    3.25074   3.30892   3.33927   3.35237   3.45712
 Alpha virt. eigenvalues --    3.47825   3.64506   3.67393   3.75583   3.84801
 Alpha virt. eigenvalues --    3.86140   3.90548   3.91867   4.02020   4.09577
 Alpha virt. eigenvalues --    4.18632   4.27847   5.15026   5.16567   5.20754
 Alpha virt. eigenvalues --    5.23529   5.33512   5.46672   5.62406   5.72753
 Alpha virt. eigenvalues --    5.94486  23.57469  23.92247  23.94458  24.05624
 Alpha virt. eigenvalues --   24.71329  49.98536  50.02038  50.10241
  Beta  occ. eigenvalues --  -19.68323 -19.63686 -19.63275 -10.70365 -10.63344
  Beta  occ. eigenvalues --  -10.60536 -10.58923 -10.53794  -1.25801  -1.16516
  Beta  occ. eigenvalues --   -1.09195  -0.90166  -0.86713  -0.77517  -0.70431
  Beta  occ. eigenvalues --   -0.64530  -0.61152  -0.58656  -0.56899  -0.54101
  Beta  occ. eigenvalues --   -0.52889  -0.49374  -0.46675  -0.45212  -0.43703
  Beta  occ. eigenvalues --   -0.41895  -0.39207  -0.38925  -0.38387  -0.34879
  Beta virt. eigenvalues --   -0.08762  -0.00271   0.00334   0.01666   0.02090
  Beta virt. eigenvalues --    0.02227   0.02744   0.03165   0.04133   0.05478
  Beta virt. eigenvalues --    0.06234   0.07299   0.07825   0.08099   0.08986
  Beta virt. eigenvalues --    0.10729   0.11134   0.12068   0.12348   0.12718
  Beta virt. eigenvalues --    0.13098   0.13502   0.14528   0.14940   0.15439
  Beta virt. eigenvalues --    0.15776   0.16607   0.18114   0.18663   0.19380
  Beta virt. eigenvalues --    0.20229   0.21172   0.21847   0.22864   0.23473
  Beta virt. eigenvalues --    0.24257   0.26405   0.26813   0.27442   0.29046
  Beta virt. eigenvalues --    0.30064   0.30600   0.32529   0.33036   0.33649
  Beta virt. eigenvalues --    0.34027   0.35667   0.35966   0.37535   0.38561
  Beta virt. eigenvalues --    0.39694   0.41350   0.43192   0.43831   0.46660
  Beta virt. eigenvalues --    0.47366   0.51876   0.53207   0.54414   0.56024
  Beta virt. eigenvalues --    0.57519   0.58218   0.60954   0.62866   0.63699
  Beta virt. eigenvalues --    0.65406   0.66489   0.68979   0.69414   0.70974
  Beta virt. eigenvalues --    0.71645   0.72915   0.74407   0.77084   0.77419
  Beta virt. eigenvalues --    0.80908   0.81893   0.86148   0.90246   0.94545
  Beta virt. eigenvalues --    0.95892   1.01120   1.01670   1.04140   1.06916
  Beta virt. eigenvalues --    1.11102   1.17209   1.17710   1.20933   1.22103
  Beta virt. eigenvalues --    1.24548   1.26660   1.29201   1.31277   1.34442
  Beta virt. eigenvalues --    1.35214   1.35992   1.37152   1.39377   1.42221
  Beta virt. eigenvalues --    1.48033   1.48948   1.49830   1.53570   1.55868
  Beta virt. eigenvalues --    1.57923   1.58500   1.60191   1.61623   1.62902
  Beta virt. eigenvalues --    1.64120   1.65669   1.67606   1.70949   1.72460
  Beta virt. eigenvalues --    1.74523   1.78315   1.80988   1.84550   1.85636
  Beta virt. eigenvalues --    1.87376   1.90572   1.92478   1.99963   2.04688
  Beta virt. eigenvalues --    2.08780   2.11181   2.13054   2.13937   2.20395
  Beta virt. eigenvalues --    2.22253   2.31096   2.34922   2.38794   2.49264
  Beta virt. eigenvalues --    2.51188   2.53795   2.54473   2.59835   2.62006
  Beta virt. eigenvalues --    2.62755   2.65156   2.66054   2.71196   2.71453
  Beta virt. eigenvalues --    2.73488   2.77765   2.79833   2.82491   2.89286
  Beta virt. eigenvalues --    2.91463   2.94304   2.97063   2.97306   3.00329
  Beta virt. eigenvalues --    3.11882   3.12847   3.14539   3.17304   3.20226
  Beta virt. eigenvalues --    3.24933   3.25649   3.30897   3.34034   3.35236
  Beta virt. eigenvalues --    3.45718   3.49813   3.64488   3.67070   3.75551
  Beta virt. eigenvalues --    3.84801   3.86138   3.90783   3.92795   4.02013
  Beta virt. eigenvalues --    4.09448   4.18531   4.27846   5.15091   5.16891
  Beta virt. eigenvalues --    5.21656   5.26043   5.33607   5.46658   5.63543
  Beta virt. eigenvalues --    5.72743   5.94481  23.57607  23.92253  23.94465
  Beta virt. eigenvalues --   24.05624  24.72186  49.98271  50.01712  50.10250
          Condensed to atoms (all electrons):
               1          2          3          4          5          6
     1  O    8.060748   0.236911  -0.241079  -0.003715   0.559149  -0.329321
     2  H    0.236911   0.499811  -0.040869  -0.002417   0.012763   0.043394
     3  C   -0.241079  -0.040869  10.704531   0.508241  -0.465846  -4.291250
     4  H   -0.003715  -0.002417   0.508241   0.418706  -0.106007  -0.037389
     5  C    0.559149   0.012763  -0.465846  -0.106007   9.146286  -2.626945
     6  C   -0.329321   0.043394  -4.291250  -0.037389  -2.626945  12.756002
     7  O   -0.007645  -0.001187  -0.054526  -0.001772   0.138281   0.326502
     8  O    0.017580  -0.003015  -0.097019  -0.003134  -0.142702   0.112951
     9  C   -0.010806   0.000772  -0.084906  -0.000180  -0.261210   0.170049
    10  C    0.001883  -0.000967  -0.013883   0.000267  -0.105203   0.071491
    11  H   -0.001932   0.000102  -0.009070   0.000193  -0.049186   0.068655
    12  H    0.002066  -0.000395   0.006032  -0.000151   0.030789  -0.049293
    13  H   -0.000009  -0.000012   0.002206   0.000057   0.005827  -0.003635
    14  H    0.000370   0.000013   0.001890  -0.000235   0.012508  -0.014257
    15  H   -0.001489   0.000257  -0.020133  -0.000022  -0.058269   0.060304
               7          8          9         10         11         12
     1  O   -0.007645   0.017580  -0.010806   0.001883  -0.001932   0.002066
     2  H   -0.001187  -0.003015   0.000772  -0.000967   0.000102  -0.000395
     3  C   -0.054526  -0.097019  -0.084906  -0.013883  -0.009070   0.006032
     4  H   -0.001772  -0.003134  -0.000180   0.000267   0.000193  -0.000151
     5  C    0.138281  -0.142702  -0.261210  -0.105203  -0.049186   0.030789
     6  C    0.326502   0.112951   0.170049   0.071491   0.068655  -0.049293
     7  O    7.991858  -0.152608   0.070200  -0.087629   0.004487  -0.014321
     8  O   -0.152608   8.263792   0.142101  -0.065116  -0.098593  -0.012410
     9  C    0.070200   0.142101   5.452716   0.034247   0.449961   0.390866
    10  C   -0.087629  -0.065116   0.034247   5.479192  -0.062696  -0.027054
    11  H    0.004487  -0.098593   0.449961  -0.062696   0.533365  -0.032948
    12  H   -0.014321  -0.012410   0.390866  -0.027054  -0.032948   0.518055
    13  H   -0.002205   0.016939  -0.037935   0.394724  -0.002743  -0.005367
    14  H    0.002774  -0.000462  -0.046035   0.422304  -0.010657   0.004941
    15  H    0.004489  -0.024712  -0.001936   0.387818   0.011395  -0.010929
              13         14         15
     1  O   -0.000009   0.000370  -0.001489
     2  H   -0.000012   0.000013   0.000257
     3  C    0.002206   0.001890  -0.020133
     4  H    0.000057  -0.000235  -0.000022
     5  C    0.005827   0.012508  -0.058269
     6  C   -0.003635  -0.014257   0.060304
     7  O   -0.002205   0.002774   0.004489
     8  O    0.016939  -0.000462  -0.024712
     9  C   -0.037935  -0.046035  -0.001936
    10  C    0.394724   0.422304   0.387818
    11  H   -0.002743  -0.010657   0.011395
    12  H   -0.005367   0.004941  -0.010929
    13  H    0.537266  -0.032544  -0.034396
    14  H   -0.032544   0.542257  -0.048228
    15  H   -0.034396  -0.048228   0.543125
          Atomic-Atomic Spin Densities.
               1          2          3          4          5          6
     1  O    0.413033  -0.001098  -0.258367  -0.005985   0.037184   0.109174
     2  H   -0.001098  -0.010245   0.033951   0.001299  -0.012121  -0.012407
     3  C   -0.258367   0.033951   1.633349   0.051196  -0.660405   0.155475
     4  H   -0.005985   0.001299   0.051196  -0.017483  -0.054770  -0.003070
     5  C    0.037184  -0.012121  -0.660405  -0.054770  -0.108203   0.447557
     6  C    0.109174  -0.012407   0.155475  -0.003070   0.447557  -0.576862
     7  O    0.001459  -0.000169   0.000238  -0.000022   0.013507  -0.013774
     8  O    0.005528  -0.000245  -0.016233  -0.000633   0.001230   0.012120
     9  C   -0.002248   0.000612   0.029506   0.000629   0.026827  -0.056034
    10  C    0.000420  -0.000113  -0.012530  -0.000230  -0.013826   0.030359
    11  H    0.000093   0.000076   0.003116   0.000053   0.007105  -0.009387
    12  H    0.000648  -0.000153  -0.003152  -0.000064  -0.002956   0.004846
    13  H   -0.000141   0.000020   0.000534   0.000015  -0.000226  -0.000520
    14  H    0.000216  -0.000031  -0.001339  -0.000055   0.000197   0.001246
    15  H   -0.000054   0.000058   0.005062   0.000107   0.008669  -0.013702
               7          8          9         10         11         12
     1  O    0.001459   0.005528  -0.002248   0.000420   0.000093   0.000648
     2  H   -0.000169  -0.000245   0.000612  -0.000113   0.000076  -0.000153
     3  C    0.000238  -0.016233   0.029506  -0.012530   0.003116  -0.003152
     4  H   -0.000022  -0.000633   0.000629  -0.000230   0.000053  -0.000064
     5  C    0.013507   0.001230   0.026827  -0.013826   0.007105  -0.002956
     6  C   -0.013774   0.012120  -0.056034   0.030359  -0.009387   0.004846
     7  O   -0.004750   0.000529   0.002395  -0.000738   0.000027  -0.000277
     8  O    0.000529   0.001031  -0.001192  -0.001249   0.000530   0.000634
     9  C    0.002395  -0.001192   0.007938  -0.003339  -0.000820  -0.001753
    10  C   -0.000738  -0.001249  -0.003339  -0.000505   0.000785   0.001924
    11  H    0.000027   0.000530  -0.000820   0.000785  -0.000980  -0.000033
    12  H   -0.000277   0.000634  -0.001753   0.001924  -0.000033   0.000187
    13  H    0.000483  -0.000370   0.002399  -0.002921   0.000171  -0.000403
    14  H   -0.000288   0.000210  -0.001320   0.001638  -0.000087   0.000129
    15  H   -0.000315   0.000707  -0.000662   0.001342  -0.000404  -0.000217
              13         14         15
     1  O   -0.000141   0.000216  -0.000054
     2  H    0.000020  -0.000031   0.000058
     3  C    0.000534  -0.001339   0.005062
     4  H    0.000015  -0.000055   0.000107
     5  C   -0.000226   0.000197   0.008669
     6  C   -0.000520   0.001246  -0.013702
     7  O    0.000483  -0.000288  -0.000315
     8  O   -0.000370   0.000210   0.000707
     9  C    0.002399  -0.001320  -0.000662
    10  C   -0.002921   0.001638   0.001342
    11  H    0.000171  -0.000087  -0.000404
    12  H   -0.000403   0.000129  -0.000217
    13  H    0.001368  -0.000357   0.000594
    14  H   -0.000357   0.000030  -0.000414
    15  H    0.000594  -0.000414  -0.001128
 Mulliken charges and spin densities:
               1          2
     1  O   -0.282712   0.299862
     2  H    0.254840  -0.000567
     3  C    0.095679   0.960401
     4  H    0.227556  -0.029014
     5  C   -0.090235  -0.310230
     6  C   -0.257259   0.075020
     7  O   -0.216698  -0.001694
     8  O    0.046407   0.002597
     9  C   -0.267903   0.002937
    10  C   -0.429377   0.001015
    11  H    0.199668   0.000244
    12  H    0.200118  -0.000640
    13  H    0.161827   0.000647
    14  H    0.165361  -0.000225
    15  H    0.192727  -0.000355
 Sum of Mulliken charges =  -0.00000   1.00000
 Mulliken charges and spin densities with hydrogens summed into heavy atoms:
               1          2
     1  O   -0.027871   0.299295
     3  C    0.323235   0.931386
     5  C   -0.090235  -0.310230
     6  C   -0.257259   0.075020
     7  O   -0.216698  -0.001694
     8  O    0.046407   0.002597
     9  C    0.131882   0.002542
    10  C    0.090538   0.001083
 APT charges:
               1
     1  O   -0.519702
     2  H    0.234290
     3  C   -0.255730
     4  H    0.238077
     5  C    0.136492
     6  C    1.359947
     7  O   -0.766636
     8  O   -0.947747
     9  C    0.538287
    10  C   -0.037333
    11  H   -0.013184
    12  H   -0.011391
    13  H    0.008560
    14  H    0.008106
    15  H    0.027963
 Sum of APT charges =  -0.00000
 APT charges with hydrogens summed into heavy atoms:
               1
     1  O   -0.285411
     3  C   -0.017653
     5  C    0.136492
     6  C    1.359947
     7  O   -0.766636
     8  O   -0.947747
     9  C    0.513712
    10  C    0.007296
 Electronic spatial extent (au):  <R**2>=           1116.6099
 Charge=              0.0000 electrons
 Dipole moment (field-independent basis, Debye):
    X=              0.0122    Y=             -1.2502    Z=             -0.9005  Tot=              1.5408
 Quadrupole moment (field-independent basis, Debye-Ang):
   XX=            -32.7732   YY=            -47.7463   ZZ=            -51.5868
   XY=             -6.6192   XZ=              1.8249   YZ=              4.1268
 Traceless Quadrupole moment (field-independent basis, Debye-Ang):
   XX=             11.2622   YY=             -3.7109   ZZ=             -7.5513
   XY=             -6.6192   XZ=              1.8249   YZ=              4.1268
 Octapole moment (field-independent basis, Debye-Ang**2):
  XXX=             25.0277  YYY=              1.4057  ZZZ=             -2.6123  XYY=              0.4021
  XXY=             -8.6868  XXZ=              0.9769  XZZ=              2.8648  YZZ=              4.4227
  YYZ=              0.0720  XYZ=             10.2948
 Hexadecapole moment (field-independent basis, Debye-Ang**3):
 XXXX=           -910.5455 YYYY=           -228.9758 ZZZZ=           -182.6129 XXXY=            -42.9728
 XXXZ=              1.5112 YYYX=             -7.3229 YYYZ=              3.2794 ZZZX=              7.5541
 ZZZY=              3.0692 XXYY=           -195.1027 XXZZ=           -195.3413 YYZZ=            -62.3280
 XXYZ=             31.0077 YYXZ=             -0.5025 ZZXY=              1.0921
 N-N= 3.621106633053D+02 E-N=-1.708715957964D+03  KE= 4.186406107092D+02
  Exact polarizability:  83.808  -5.734  71.455  -2.917   4.056  60.189
 Approx polarizability:  81.905  -8.462  87.070  -4.950   3.942  78.230
                          Isotropic Fermi Contact Couplings
        Atom                 a.u.       MegaHertz       Gauss      10(-4) cm-1
     1  O(17)              0.07701     -46.68493     -16.65834     -15.57242
     2  H(1)              -0.00536     -23.96070      -8.54977      -7.99243
     3  C(13)              0.15098     169.73556      60.56587      56.61769
     4  H(1)              -0.01358     -60.71669     -21.66522     -20.25291
     5  C(13)             -0.02644     -29.72718     -10.60740      -9.91592
     6  C(13)              0.03737      42.01463      14.99187      14.01457
     7  O(17)             -0.00197       1.19609       0.42679       0.39897
     8  O(17)              0.00358      -2.17038      -0.77445      -0.72396
     9  C(13)              0.00003       0.03859       0.01377       0.01287
    10  C(13)              0.00013       0.14431       0.05149       0.04814
    11  H(1)              -0.00002      -0.08325      -0.02971      -0.02777
    12  H(1)              -0.00006      -0.28638      -0.10219      -0.09553
    13  H(1)               0.00008       0.36924       0.13175       0.12317
    14  H(1)              -0.00001      -0.02444      -0.00872      -0.00815
    15  H(1)               0.00002       0.09884       0.03527       0.03297
 --------------------------------------------------------
       Center         ----  Spin Dipole Couplings  ----
                      3XX-RR        3YY-RR        3ZZ-RR
 --------------------------------------------------------
     1   Atom       -0.659653      1.279867     -0.620215
     2   Atom       -0.000690     -0.012742      0.013431
     3   Atom       -0.075123      0.452993     -0.377869
     4   Atom        0.041821      0.002094     -0.043915
     5   Atom        0.100901     -0.019253     -0.081648
     6   Atom        0.030813     -0.012222     -0.018592
     7   Atom        0.048831     -0.049577      0.000747
     8   Atom        0.014186     -0.016292      0.002106
     9   Atom        0.003701     -0.001662     -0.002038
    10   Atom        0.001915     -0.000895     -0.001020
    11   Atom        0.001459     -0.000466     -0.000993
    12   Atom        0.001797     -0.000660     -0.001137
    13   Atom        0.001030     -0.000470     -0.000560
    14   Atom        0.001640     -0.000773     -0.000866
    15   Atom        0.001734     -0.000830     -0.000904
 --------------------------------------------------------
                        XY            XZ            YZ
 --------------------------------------------------------
     1   Atom        0.043737      0.004031      0.322170
     2   Atom       -0.004250      0.052427      0.004494
     3   Atom        0.654356      0.066700     -0.009324
     4   Atom       -0.027102     -0.036813      0.022746
     5   Atom       -0.059290     -0.072329      0.040562
     6   Atom       -0.000954     -0.019931      0.003228
     7   Atom        0.032327      0.002858     -0.014550
     8   Atom        0.004756      0.012955      0.004082
     9   Atom       -0.001201     -0.000511      0.000070
    10   Atom       -0.000100     -0.000008      0.000074
    11   Atom       -0.000871      0.000400     -0.000164
    12   Atom       -0.000856     -0.000795      0.000361
    13   Atom       -0.000130     -0.000131      0.000036
    14   Atom        0.000024      0.000335      0.000058
    15   Atom        0.000158     -0.000628     -0.000033
 --------------------------------------------------------


 ---------------------------------------------------------------------------------
              Anisotropic Spin Dipole Couplings in Principal Axis System
 ---------------------------------------------------------------------------------

       Atom             a.u.   MegaHertz   Gauss  10(-4) cm-1        Axes

              Baa    -0.6741    48.776    17.405    16.270  0.2269 -0.1634  0.9601
     1 O(17)  Bbb    -0.6599    47.749    17.038    15.927  0.9737  0.0158 -0.2274
              Bcc     1.3340   -96.525   -34.443   -32.197  0.0220  0.9864  0.1627
 
              Baa    -0.0476   -25.406    -9.066    -8.475  0.7407  0.1739 -0.6489
     2 H(1)   Bbb    -0.0117    -6.221    -2.220    -2.075 -0.1363  0.9847  0.1083
              Bcc     0.0593    31.627    11.285    10.550  0.6578  0.0082  0.7531
 
              Baa    -0.5394   -72.387   -25.830   -24.146  0.7800 -0.5176 -0.3519
     3 C(13)  Bbb    -0.3558   -47.747   -17.037   -15.927  0.2793 -0.2152  0.9358
              Bcc     0.8952   120.134    42.867    40.072  0.5600  0.8281  0.0233
 
              Baa    -0.0602   -32.143   -11.470   -10.722  0.2788 -0.2199  0.9348
     4 H(1)   Bbb    -0.0114    -6.095    -2.175    -2.033  0.4856  0.8721  0.0603
              Bcc     0.0717    38.238    13.644    12.755  0.8285 -0.4371 -0.3499
 
              Baa    -0.1117   -14.993    -5.350    -5.001  0.2482 -0.2512  0.9356
     5 C(13)  Bbb    -0.0423    -5.678    -2.026    -1.894  0.4327  0.8928  0.1250
              Bcc     0.1540    20.671     7.376     6.895  0.8667 -0.3738 -0.3303
 
              Baa    -0.0262    -3.511    -1.253    -1.171  0.3211 -0.1927  0.9272
     6 C(13)  Bbb    -0.0118    -1.579    -0.563    -0.527  0.1010  0.9805  0.1688
              Bcc     0.0379     5.090     1.816     1.698  0.9416 -0.0394 -0.3343
 
              Baa    -0.0627     4.536     1.618     1.513 -0.2765  0.9339  0.2267
     7 O(17)  Bbb     0.0041    -0.300    -0.107    -0.100  0.0895 -0.2098  0.9736
              Bcc     0.0585    -4.236    -1.511    -1.413  0.9568  0.2895 -0.0256
 
              Baa    -0.0173     1.254     0.447     0.418 -0.0876  0.9850 -0.1485
     8 O(17)  Bbb    -0.0061     0.440     0.157     0.147 -0.5497  0.0765  0.8318
              Bcc     0.0234    -1.694    -0.604    -0.565  0.8307  0.1545  0.5348
 
              Baa    -0.0021    -0.281    -0.100    -0.094  0.1263  0.1950  0.9726
     9 C(13)  Bbb    -0.0019    -0.256    -0.091    -0.086  0.1855  0.9586 -0.2162
              Bcc     0.0040     0.537     0.192     0.179  0.9745 -0.2077 -0.0849
 
              Baa    -0.0011    -0.141    -0.050    -0.047 -0.0119 -0.4253  0.9050
    10 C(13)  Bbb    -0.0009    -0.116    -0.041    -0.039  0.0338  0.9043  0.4255
              Bcc     0.0019     0.257     0.092     0.086  0.9994 -0.0357 -0.0037
 
              Baa    -0.0011    -0.565    -0.202    -0.188 -0.1267  0.0878  0.9880
    11 H(1)   Bbb    -0.0008    -0.428    -0.153    -0.143  0.3648  0.9304 -0.0359
              Bcc     0.0019     0.992     0.354     0.331  0.9224 -0.3559  0.1499
 
              Baa    -0.0014    -0.736    -0.263    -0.246  0.1598 -0.2844  0.9453
    12 H(1)   Bbb    -0.0009    -0.483    -0.172    -0.161  0.3518  0.9111  0.2147
              Bcc     0.0023     1.219     0.435     0.407  0.9224 -0.2982 -0.2456
 
              Baa    -0.0006    -0.308    -0.110    -0.103  0.0581 -0.2526  0.9658
    13 H(1)   Bbb    -0.0005    -0.253    -0.090    -0.084  0.1048  0.9637  0.2457
              Bcc     0.0011     0.561     0.200     0.187  0.9928 -0.0869 -0.0824
 
              Baa    -0.0009    -0.496    -0.177    -0.165 -0.1192 -0.3286  0.9369
    14 H(1)   Bbb    -0.0008    -0.403    -0.144    -0.134 -0.0550  0.9444  0.3243
              Bcc     0.0017     0.899     0.321     0.300  0.9913  0.0129  0.1306
 
              Baa    -0.0010    -0.558    -0.199    -0.186  0.2211 -0.0118  0.9752
    15 H(1)   Bbb    -0.0008    -0.448    -0.160    -0.149 -0.0553  0.9982  0.0246
              Bcc     0.0019     1.006     0.359     0.336  0.9737  0.0594 -0.2200
 

 ---------------------------------------------------------------------------------

 Calling FoFJK, ICntrl=    100127 FMM=F ISym2X=0 I1Cent= 0 IOpClX= 1 NMat=1 NMatS=1 NMatT=0.
 Full mass-weighted force constant matrix:
 Low frequencies --- -531.5711  -15.0468   -0.0005    0.0004    0.0008   23.5995
 Low frequencies ---   42.4509   86.6491  100.5763
 ******    1 imaginary frequencies (negative Signs) ****** 
 Diagonal vibrational polarizability:
      116.4740542      56.0268431      93.8085702
 Harmonic frequencies (cm**-1), IR intensities (KM/Mole), Raman scattering
 activities (A**4/AMU), depolarization ratios for plane and unpolarized
 incident light, reduced masses (AMU), force constants (mDyne/A),
 and normal coordinates:
                      1                      2                      3
                      A                      A                      A
 Frequencies --   -531.5704                66.1751                95.9853
 Red. masses --      6.8533                 1.9121                 4.1153
 Frc consts  --      1.1410                 0.0049                 0.0223
 IR Inten    --     68.9864                19.2733                 5.6275
  Atom  AN      X      Y      Z        X      Y      Z        X      Y      Z
     1   8    -0.10  -0.34  -0.04     0.06  -0.02   0.10     0.12  -0.06   0.03
     2   1    -0.02  -0.08  -0.10    -0.47   0.01   0.60    -0.01  -0.11   0.14
     3   6    -0.14  -0.08   0.02     0.00   0.04  -0.12    -0.15  -0.06  -0.16
     4   1     0.28   0.65   0.06     0.18   0.41  -0.17    -0.23  -0.13  -0.27
     5   6     0.21   0.53   0.07    -0.00  -0.02   0.00    -0.03  -0.01  -0.00
     6   6     0.04   0.01  -0.01    -0.00  -0.02  -0.01     0.01   0.10   0.08
     7   8     0.01  -0.02  -0.02     0.01   0.09   0.01     0.07   0.22   0.12
     8   8     0.00  -0.01  -0.00    -0.01  -0.12  -0.05    -0.02   0.04   0.08
     9   6     0.00  -0.01  -0.00     0.01  -0.02  -0.06    -0.06  -0.07   0.06
    10   6    -0.00  -0.00   0.00    -0.05   0.04   0.07     0.03  -0.15  -0.22
    11   1    -0.00  -0.00   0.00     0.03  -0.08  -0.13    -0.05   0.04   0.15
    12   1     0.01  -0.01   0.00     0.06   0.07  -0.11    -0.16  -0.23   0.14
    13   1    -0.00  -0.00   0.00    -0.03   0.11   0.06    -0.01  -0.29  -0.19
    14   1    -0.00  -0.00   0.00    -0.10  -0.06   0.12     0.12   0.04  -0.33
    15   1    -0.00  -0.00  -0.00    -0.07   0.10   0.13     0.06  -0.28  -0.35
                      4                      5                      6
                      A                      A                      A
 Frequencies --    114.5865               146.5392               192.4823
 Red. masses --      2.6747                 1.9133                 2.0634
 Frc consts  --      0.0207                 0.0242                 0.0450
 IR Inten    --      7.9229                47.1846                 7.6920
  Atom  AN      X      Y      Z        X      Y      Z        X      Y      Z
     1   8     0.04  -0.04   0.13    -0.07   0.01   0.10     0.08  -0.01   0.08
     2   1     0.25  -0.14  -0.08     0.57  -0.09  -0.52     0.06  -0.08   0.09
     3   6    -0.08  -0.02  -0.06    -0.00   0.07  -0.09     0.04  -0.01   0.10
     4   1    -0.25  -0.29  -0.10    -0.27  -0.37  -0.18    -0.08  -0.34   0.23
     5   6    -0.01   0.02   0.01     0.04   0.04   0.02     0.03   0.05  -0.03
     6   6    -0.03   0.06  -0.04     0.03  -0.02   0.03     0.00   0.04  -0.11
     7   8    -0.09   0.02  -0.06     0.03   0.04   0.04     0.04   0.05  -0.09
     8   8     0.03   0.12  -0.05     0.01  -0.13  -0.02    -0.07  -0.02  -0.08
     9   6    -0.02  -0.00  -0.09     0.03  -0.02  -0.05    -0.04  -0.04   0.06
    10   6     0.14  -0.12   0.16    -0.07   0.06  -0.01    -0.07  -0.02   0.04
    11   1    -0.14  -0.19  -0.22     0.10  -0.03  -0.08    -0.11   0.04   0.16
    12   1    -0.07   0.19  -0.19     0.06   0.01  -0.07     0.05  -0.14   0.11
    13   1     0.09  -0.20   0.06    -0.04   0.16  -0.04     0.02  -0.04   0.50
    14   1     0.23  -0.33   0.27    -0.11   0.02   0.01    -0.43   0.24  -0.09
    15   1     0.21   0.10   0.32    -0.14   0.06   0.02     0.18  -0.24  -0.25
                      7                      8                      9
                      A                      A                      A
 Frequencies --    229.1238               239.4240               260.2774
 Red. masses --      1.8161                 1.2937                 3.0691
 Frc consts  --      0.0562                 0.0437                 0.1225
 IR Inten    --     17.6726                18.6299                 1.1071
  Atom  AN      X      Y      Z        X      Y      Z        X      Y      Z
     1   8     0.15   0.03  -0.03     0.10   0.01   0.03     0.19   0.09  -0.10
     2   1    -0.09   0.03   0.20     0.49  -0.14  -0.36     0.12   0.11  -0.03
     3   6    -0.01   0.02   0.04     0.02  -0.02   0.01    -0.11   0.03  -0.04
     4   1    -0.22  -0.38   0.06     0.39   0.62   0.07    -0.14   0.11  -0.21
     5   6     0.04   0.09  -0.01    -0.02  -0.04  -0.01     0.01   0.08   0.11
     6   6     0.01   0.02  -0.01    -0.02   0.01  -0.01    -0.01  -0.01   0.10
     7   8     0.04  -0.07  -0.02    -0.01   0.02  -0.01    -0.14  -0.12   0.04
     8   8    -0.04  -0.01   0.02    -0.04   0.01  -0.00     0.04  -0.04   0.03
     9   6    -0.06  -0.03   0.01    -0.05  -0.01   0.01     0.02  -0.03  -0.09
    10   6    -0.11   0.00  -0.01    -0.05  -0.02   0.00    -0.02   0.00   0.00
    11   1    -0.04  -0.04  -0.00    -0.06  -0.01   0.01     0.06  -0.10  -0.17
    12   1    -0.08  -0.02   0.00    -0.05  -0.02   0.01    -0.03   0.06  -0.14
    13   1    -0.17   0.10  -0.48    -0.07   0.00  -0.10     0.09   0.02   0.51
    14   1     0.23  -0.24   0.12     0.02  -0.07   0.03    -0.46   0.20  -0.09
    15   1    -0.42   0.18   0.28    -0.12   0.03   0.07     0.25  -0.17  -0.26
                     10                     11                     12
                      A                      A                      A
 Frequencies --    344.9004               356.8458               439.1478
 Red. masses --      3.0860                 9.1991                 3.5603
 Frc consts  --      0.2163                 0.6902                 0.4045
 IR Inten    --     12.4245                 2.4574                 3.2772
  Atom  AN      X      Y      Z        X      Y      Z        X      Y      Z
     1   8    -0.03  -0.04   0.03     0.08  -0.36  -0.15    -0.08   0.04   0.00
     2   1    -0.05  -0.08   0.04     0.01  -0.26  -0.07    -0.09   0.20   0.03
     3   6     0.05  -0.01   0.02     0.45   0.42  -0.07     0.01  -0.12  -0.06
     4   1     0.08  -0.03   0.11    -0.05  -0.40  -0.21     0.04   0.03  -0.17
     5   6    -0.01  -0.02  -0.08     0.05  -0.09   0.06     0.11  -0.06   0.07
     6   6     0.02   0.02   0.04    -0.07  -0.02   0.06     0.10   0.06   0.00
     7   8     0.21  -0.07   0.07    -0.24   0.09   0.04    -0.06   0.04  -0.05
     8   8    -0.02   0.11   0.10    -0.01   0.10   0.07     0.17   0.18   0.00
     9   6    -0.13   0.03  -0.21    -0.09  -0.00   0.02     0.04  -0.18   0.01
    10   6    -0.09  -0.01  -0.01    -0.07  -0.03   0.01    -0.20  -0.05   0.03
    11   1    -0.07  -0.21  -0.45    -0.09  -0.03   0.00    -0.03  -0.15   0.07
    12   1    -0.34   0.31  -0.34    -0.16   0.01   0.02    -0.03  -0.22   0.04
    13   1    -0.03  -0.01   0.29    -0.06  -0.02   0.05    -0.06   0.39   0.03
    14   1    -0.36  -0.01  -0.01    -0.11   0.00  -0.01    -0.46  -0.09   0.06
    15   1     0.13   0.00  -0.09    -0.07  -0.05  -0.02    -0.49  -0.12   0.08
                     13                     14                     15
                      A                      A                      A
 Frequencies --    594.8140               633.5589               692.7953
 Red. masses --      3.8413                 5.2296                 1.4082
 Frc consts  --      0.8007                 1.2368                 0.3982
 IR Inten    --      9.4394                14.8226                39.5686
  Atom  AN      X      Y      Z        X      Y      Z        X      Y      Z
     1   8    -0.03   0.06  -0.00    -0.00  -0.09  -0.06     0.00  -0.01  -0.01
     2   1     0.03   0.45  -0.00     0.06   0.12  -0.08     0.02   0.12  -0.01
     3   6     0.11  -0.16  -0.09    -0.11   0.17   0.08    -0.05   0.04  -0.14
     4   1     0.03  -0.06  -0.42    -0.33   0.30  -0.56     0.28  -0.18   0.92
     5   6     0.27  -0.07   0.21    -0.13  -0.11   0.39     0.01  -0.03   0.10
     6   6     0.04  -0.01  -0.04    -0.04   0.05  -0.08    -0.01  -0.00  -0.01
     7   8    -0.02   0.01  -0.05     0.24  -0.07  -0.03     0.02  -0.01   0.00
     8   8    -0.12  -0.04   0.02    -0.00   0.06  -0.17     0.00   0.01  -0.01
     9   6    -0.18   0.15   0.02     0.00  -0.01  -0.01    -0.00   0.00   0.00
    10   6    -0.01   0.02  -0.01    -0.01  -0.01  -0.00    -0.00   0.00  -0.00
    11   1    -0.10   0.07  -0.08    -0.11   0.14   0.16    -0.01   0.01   0.01
    12   1    -0.18   0.22  -0.02     0.12  -0.18   0.07     0.01  -0.01   0.01
    13   1    -0.13  -0.36  -0.00     0.00   0.04  -0.01    -0.00  -0.00  -0.00
    14   1     0.21   0.07  -0.04    -0.03  -0.06   0.03     0.00  -0.00  -0.00
    15   1     0.24   0.06  -0.07    -0.03   0.03   0.04     0.00   0.00  -0.00
                     16                     17                     18
                      A                      A                      A
 Frequencies --    781.7382               802.2830               894.6480
 Red. masses --      7.8720                 1.2504                 3.2406
 Frc consts  --      2.8344                 0.4742                 1.5282
 IR Inten    --     17.1957                 4.7848                17.5503
  Atom  AN      X      Y      Z        X      Y      Z        X      Y      Z
     1   8    -0.06  -0.08   0.00    -0.01  -0.02  -0.00    -0.00  -0.02  -0.00
     2   1    -0.07  -0.05   0.02    -0.00  -0.01  -0.01     0.02   0.08  -0.01
     3   6     0.05  -0.03  -0.03    -0.02   0.02   0.01    -0.03   0.03   0.01
     4   1     0.15   0.06   0.07    -0.02   0.03   0.01    -0.04   0.04  -0.03
     5   6    -0.02  -0.10  -0.07    -0.03  -0.02   0.02    -0.02  -0.03   0.06
     6   6     0.16   0.66   0.20     0.03   0.06  -0.02     0.04   0.02  -0.10
     7   8    -0.06  -0.18  -0.02     0.00  -0.00  -0.05    -0.00   0.04  -0.16
     8   8    -0.05  -0.15  -0.07    -0.01  -0.03   0.03    -0.13  -0.03   0.24
     9   6    -0.01   0.00  -0.04     0.03  -0.02   0.07     0.05  -0.11  -0.03
    10   6     0.00   0.02  -0.01     0.02   0.00   0.03     0.14   0.06  -0.07
    11   1     0.05   0.28   0.19    -0.08  -0.44  -0.28     0.22  -0.04  -0.04
    12   1     0.09  -0.30   0.11     0.02   0.47  -0.19    -0.33  -0.22   0.05
    13   1    -0.01  -0.08   0.07    -0.01   0.06  -0.18     0.32   0.49   0.14
    14   1    -0.01  -0.17   0.09     0.17   0.39  -0.18    -0.27  -0.23   0.10
    15   1     0.20   0.21   0.08    -0.25  -0.34  -0.17     0.07   0.28   0.16
                     19                     20                     21
                      A                      A                      A
 Frequencies --    917.3465              1055.6552              1082.0956
 Red. masses --      2.8040                 1.4506                 2.3562
 Frc consts  --      1.3903                 0.9525                 1.6255
 IR Inten    --      2.8375                44.1755                28.8027
  Atom  AN      X      Y      Z        X      Y      Z        X      Y      Z
     1   8     0.01   0.01   0.01     0.02  -0.05   0.03     0.02  -0.05   0.02
     2   1     0.03   0.20   0.01     0.18   0.90   0.01     0.15   0.77   0.01
     3   6     0.08  -0.07  -0.04     0.01  -0.00   0.01    -0.04   0.04   0.03
     4   1     0.08  -0.08  -0.06    -0.01   0.00  -0.03    -0.05   0.04   0.03
     5   6     0.08   0.02  -0.02    -0.03  -0.00  -0.05    -0.06  -0.01  -0.07
     6   6    -0.16   0.02   0.05    -0.06   0.02  -0.01     0.08  -0.04   0.01
     7   8     0.02  -0.04   0.13     0.01  -0.00   0.00    -0.01   0.01  -0.00
     8   8    -0.14   0.06  -0.11    -0.05   0.02   0.03     0.13  -0.04  -0.04
     9   6     0.02  -0.10  -0.03     0.13   0.03  -0.02    -0.22  -0.06   0.04
    10   6     0.17   0.05   0.00    -0.06  -0.05   0.01     0.07   0.10  -0.00
    11   1    -0.36  -0.15   0.07     0.18   0.06  -0.01    -0.25  -0.12   0.01
    12   1     0.02  -0.11  -0.02     0.18   0.06  -0.04    -0.28  -0.11   0.07
    13   1     0.33   0.62  -0.09    -0.09  -0.16   0.00     0.09   0.15   0.00
    14   1    -0.11   0.16  -0.06    -0.01  -0.08   0.02     0.08   0.15  -0.02
    15   1    -0.27  -0.11   0.03    -0.02  -0.07  -0.03     0.10   0.15   0.03
                     22                     23                     24
                      A                      A                      A
 Frequencies --   1128.1287              1202.6776              1284.5974
 Red. masses --      2.0707                 1.7672                 3.8177
 Frc consts  --      1.5527                 1.5061                 3.7118
 IR Inten    --     19.3846                 8.2621               538.3178
  Atom  AN      X      Y      Z        X      Y      Z        X      Y      Z
     1   8     0.00  -0.01   0.00     0.00   0.00  -0.00    -0.00  -0.01   0.00
     2   1     0.01   0.06   0.00    -0.00  -0.01   0.00     0.01   0.04   0.00
     3   6    -0.01   0.01   0.01     0.01  -0.01  -0.01    -0.06   0.05   0.03
     4   1    -0.01   0.01   0.01     0.02  -0.01  -0.01    -0.06   0.06   0.06
     5   6    -0.01  -0.00  -0.01     0.01   0.01  -0.00    -0.02  -0.03  -0.02
     6   6     0.03  -0.00   0.00    -0.07   0.03  -0.01     0.36  -0.13   0.12
     7   8    -0.00  -0.00  -0.01     0.01  -0.01   0.03    -0.05   0.01   0.02
     8   8     0.04  -0.06  -0.02     0.01   0.01  -0.07    -0.19   0.07  -0.08
     9   6    -0.04   0.22   0.05     0.03  -0.04   0.18     0.12   0.01  -0.01
    10   6     0.06  -0.18  -0.04    -0.03   0.03  -0.13    -0.02   0.02  -0.07
    11   1    -0.05   0.15  -0.01     0.20  -0.40  -0.21    -0.74  -0.15   0.15
    12   1    -0.13   0.22   0.06    -0.18   0.41  -0.04     0.10   0.18  -0.08
    13   1     0.25   0.43   0.01     0.03  -0.07   0.28    -0.02  -0.09   0.11
    14   1    -0.51  -0.25   0.00    -0.11  -0.39   0.10    -0.06  -0.26   0.08
    15   1    -0.43  -0.17   0.15     0.22   0.40   0.11     0.05   0.11  -0.00
                     25                     26                     27
                      A                      A                      A
 Frequencies --   1348.1052              1401.0560              1431.6935
 Red. masses --      1.2358                 1.2784                 1.3867
 Frc consts  --      1.3232                 1.4785                 1.6746
 IR Inten    --     91.1600                26.9625                 7.2670
  Atom  AN      X      Y      Z        X      Y      Z        X      Y      Z
     1   8     0.00   0.00  -0.00    -0.00  -0.00   0.00    -0.00  -0.00   0.00
     2   1    -0.00  -0.01  -0.00     0.00   0.00   0.00     0.00   0.00   0.00
     3   6     0.01  -0.01  -0.00    -0.01   0.01   0.00    -0.01   0.01   0.00
     4   1     0.01  -0.01  -0.01    -0.01   0.01   0.01    -0.01   0.01   0.01
     5   6     0.00   0.00   0.00    -0.00  -0.00  -0.00     0.00  -0.01  -0.00
     6   6    -0.06   0.02  -0.02     0.05  -0.02   0.01     0.05  -0.02   0.01
     7   8     0.01   0.00  -0.02    -0.01  -0.00   0.01    -0.01  -0.00   0.01
     8   8     0.05  -0.02   0.08    -0.03   0.03  -0.02    -0.03   0.03  -0.01
     9   6    -0.04  -0.00  -0.00    -0.05  -0.03   0.01    -0.11  -0.07   0.01
    10   6    -0.01  -0.00  -0.06    -0.06  -0.11   0.00     0.09   0.05  -0.01
    11   1    -0.55  -0.09   0.11     0.39   0.15  -0.01     0.53   0.17  -0.02
    12   1     0.76   0.11  -0.11     0.28   0.15  -0.10     0.49   0.18  -0.15
    13   1     0.03   0.04   0.06     0.16   0.50   0.03    -0.05  -0.32  -0.06
    14   1    -0.06  -0.10  -0.00     0.28   0.30  -0.21    -0.35  -0.10   0.07
    15   1     0.09   0.16   0.05     0.34   0.25   0.15    -0.33  -0.10   0.03
                     28                     29                     30
                      A                      A                      A
 Frequencies --   1492.8062              1503.3862              1516.0205
 Red. masses --      1.0408                 1.0593                 1.0864
 Frc consts  --      1.3665                 1.4106                 1.4712
 IR Inten    --     10.2416                 1.2183                15.2596
  Atom  AN      X      Y      Z        X      Y      Z        X      Y      Z
     1   8    -0.00   0.00   0.00     0.00   0.00   0.00     0.00   0.00   0.00
     2   1    -0.00   0.00   0.00    -0.00   0.00   0.00    -0.00   0.00   0.00
     3   6     0.00  -0.00  -0.00     0.00  -0.00  -0.00     0.00  -0.00  -0.00
     4   1     0.00  -0.00  -0.00     0.00  -0.00  -0.00     0.00  -0.00  -0.00
     5   6    -0.00   0.00   0.00    -0.00   0.00   0.00    -0.00   0.00   0.00
     6   6    -0.00  -0.00   0.00    -0.01   0.00   0.00    -0.02   0.00   0.01
     7   8     0.00   0.00  -0.01     0.00   0.00  -0.01     0.01   0.00  -0.01
     8   8     0.00  -0.00   0.00     0.01  -0.01   0.00     0.02  -0.01   0.01
     9   6    -0.02  -0.01  -0.02    -0.01  -0.05   0.00     0.04  -0.05  -0.02
    10   6    -0.01   0.02  -0.04    -0.02   0.03   0.02     0.02  -0.02  -0.01
    11   1     0.04   0.11   0.06    -0.03   0.33   0.35    -0.16   0.30   0.38
    12   1     0.01   0.04  -0.05    -0.14   0.42  -0.22    -0.29   0.35  -0.20
    13   1     0.15   0.03   0.65     0.02   0.24  -0.20    -0.05  -0.26   0.08
    14   1     0.55  -0.15   0.05     0.04  -0.34   0.20    -0.13   0.35  -0.20
    15   1    -0.42  -0.17  -0.02     0.26  -0.27  -0.36    -0.18   0.29   0.34
                     31                     32                     33
                      A                      A                      A
 Frequencies --   1825.0342              1876.4689              3075.3278
 Red. masses --      8.6739                 9.2894                 1.0354
 Frc consts  --     17.0218                19.2718                 5.7696
 IR Inten    --    168.1629               168.0648                10.5168
  Atom  AN      X      Y      Z        X      Y      Z        X      Y      Z
     1   8     0.02   0.03   0.00    -0.01  -0.02  -0.00    -0.00  -0.00   0.00
     2   1     0.01   0.06   0.01    -0.04  -0.04   0.01    -0.00   0.00  -0.00
     3   6     0.26  -0.22  -0.12    -0.23   0.20   0.11     0.00  -0.00  -0.00
     4   1     0.40  -0.34  -0.17    -0.35   0.30   0.19    -0.00   0.00   0.00
     5   6    -0.39   0.22   0.15     0.39  -0.20  -0.16    -0.00  -0.00  -0.00
     6   6    -0.04  -0.10   0.43    -0.23  -0.07   0.48     0.00  -0.00   0.00
     7   8     0.09   0.05  -0.30     0.10   0.05  -0.30     0.00   0.00  -0.00
     8   8    -0.01   0.02  -0.04    -0.01   0.01  -0.04    -0.00   0.00  -0.00
     9   6    -0.03   0.00   0.01    -0.01   0.00   0.01     0.00   0.00   0.00
    10   6     0.00  -0.01  -0.00     0.00  -0.00  -0.00    -0.04  -0.04  -0.00
    11   1     0.10  -0.05  -0.09     0.09  -0.05  -0.07     0.00  -0.01   0.01
    12   1     0.10  -0.05   0.05     0.08  -0.04   0.05    -0.00  -0.01  -0.02
    13   1     0.01   0.04  -0.02     0.01   0.03  -0.02     0.57  -0.19  -0.13
    14   1    -0.02   0.00  -0.00    -0.02   0.00  -0.00    -0.00   0.28   0.53
    15   1     0.03   0.02   0.01     0.04   0.02   0.01    -0.15   0.32  -0.37
                     34                     35                     36
                      A                      A                      A
 Frequencies --   3108.4211              3150.0959              3155.3125
 Red. masses --      1.0607                 1.1015                 1.1048
 Frc consts  --      6.0384                 6.4397                 6.4804
 IR Inten    --     15.4253                14.3599                 2.3971
  Atom  AN      X      Y      Z        X      Y      Z        X      Y      Z
     1   8    -0.00   0.00   0.00     0.00   0.00  -0.00     0.00   0.00   0.00
     2   1     0.00  -0.00   0.00     0.00  -0.00   0.00    -0.00   0.00  -0.00
     3   6     0.00   0.00   0.00    -0.00   0.00   0.00     0.00  -0.00  -0.00
     4   1     0.00  -0.00  -0.00     0.00  -0.00  -0.00     0.00   0.00  -0.00
     5   6     0.00  -0.00  -0.00    -0.00  -0.00  -0.00    -0.00   0.00   0.00
     6   6    -0.00   0.00  -0.00    -0.00   0.00  -0.00    -0.00   0.00   0.00
     7   8    -0.00   0.00   0.00    -0.00  -0.00   0.00    -0.00  -0.00  -0.00
     8   8     0.00  -0.00   0.00    -0.00   0.00   0.00     0.00   0.00  -0.00
     9   6     0.01  -0.06  -0.03     0.01  -0.02   0.02     0.01  -0.01   0.05
    10   6    -0.01   0.01   0.01     0.05  -0.04  -0.06    -0.05   0.04  -0.04
    11   1    -0.15   0.35  -0.40    -0.08   0.20  -0.22    -0.11   0.27  -0.30
    12   1     0.04   0.36   0.73     0.00  -0.02  -0.03    -0.02  -0.17  -0.32
    13   1     0.12  -0.05  -0.03    -0.60   0.19   0.12     0.40  -0.13  -0.10
    14   1    -0.00  -0.03  -0.06     0.01   0.32   0.62    -0.01   0.07   0.12
    15   1     0.00  -0.01   0.02     0.03  -0.04   0.02     0.20  -0.44   0.50
                     37                     38                     39
                      A                      A                      A
 Frequencies --   3176.0617              3439.7121              3855.2022
 Red. masses --      1.1075                 1.1243                 1.0676
 Frc consts  --      6.5823                 7.8372                 9.3489
 IR Inten    --     14.6021                77.0268                68.2763
  Atom  AN      X      Y      Z        X      Y      Z        X      Y      Z
     1   8    -0.00  -0.00   0.00    -0.00  -0.00  -0.00    -0.04   0.01  -0.05
     2   1    -0.00  -0.00  -0.00     0.00  -0.00   0.00     0.69  -0.11   0.72
     3   6     0.00  -0.00  -0.00    -0.08   0.05   0.04     0.00  -0.00  -0.00
     4   1    -0.00   0.00   0.00     0.82  -0.43  -0.35     0.00   0.00  -0.00
     5   6     0.00  -0.00   0.00     0.01  -0.01  -0.01     0.00   0.00   0.00
     6   6     0.00   0.00  -0.00    -0.00  -0.00   0.00    -0.00   0.00   0.00
     7   8    -0.00  -0.00   0.00     0.00   0.00   0.00     0.00  -0.00  -0.00
     8   8    -0.00  -0.00   0.00     0.00  -0.00   0.00     0.00  -0.00   0.00
     9   6    -0.02   0.02  -0.07    -0.00   0.00  -0.00    -0.00   0.00   0.00
    10   6    -0.02   0.01  -0.05    -0.00   0.00  -0.00     0.00   0.00  -0.00
    11   1     0.17  -0.42   0.46     0.00  -0.00   0.00     0.00  -0.00   0.00
    12   1     0.03   0.21   0.38     0.00   0.00  -0.00     0.00  -0.00  -0.00
    13   1     0.08  -0.02  -0.03     0.00  -0.00  -0.00     0.00  -0.00  -0.00
    14   1    -0.00   0.17   0.31    -0.00   0.00   0.00    -0.00   0.00  -0.00
    15   1     0.14  -0.32   0.35    -0.00  -0.00   0.00    -0.00  -0.00   0.00

 -------------------
 - Thermochemistry -
 -------------------
 Temperature   298.150 Kelvin.  Pressure   1.00000 Atm.
 Atom     1 has atomic number  8 and mass  15.99491
 Atom     2 has atomic number  1 and mass   1.00783
 Atom     3 has atomic number  6 and mass  12.00000
 Atom     4 has atomic number  1 and mass   1.00783
 Atom     5 has atomic number  6 and mass  12.00000
 Atom     6 has atomic number  6 and mass  12.00000
 Atom     7 has atomic number  8 and mass  15.99491
 Atom     8 has atomic number  8 and mass  15.99491
 Atom     9 has atomic number  6 and mass  12.00000
 Atom    10 has atomic number  6 and mass  12.00000
 Atom    11 has atomic number  1 and mass   1.00783
 Atom    12 has atomic number  1 and mass   1.00783
 Atom    13 has atomic number  1 and mass   1.00783
 Atom    14 has atomic number  1 and mass   1.00783
 Atom    15 has atomic number  1 and mass   1.00783
 Molecular mass:   115.03952 amu.
 Principal axes and moments of inertia in atomic units:
                           1         2         3
     Eigenvalues --   424.718881541.337291596.05821
           X            0.99998  -0.00347   0.00487
           Y            0.00269   0.98833   0.15232
           Z           -0.00534  -0.15230   0.98832
 This molecule is an asymmetric top.
 Rotational symmetry number  1.
 Rotational temperatures (Kelvin)      0.20393     0.05619     0.05427
 Rotational constants (GHZ):           4.24926     1.17089     1.13075
    1 imaginary frequencies ignored.
 Zero-point vibrational energy     292549.9 (Joules/Mol)
                                   69.92111 (Kcal/Mol)
 Warning -- explicit consideration of  12 degrees of freedom as
           vibrations may cause significant error
 Vibrational temperatures:     95.21   138.10   164.86   210.84   276.94
          (Kelvin)            329.66   344.48   374.48   496.23   513.42
                              631.84   855.80   911.55   996.78  1124.75
                             1154.31  1287.20  1319.86  1518.85  1556.89
                             1623.13  1730.38  1848.25  1939.62  2015.81
                             2059.89  2147.82  2163.04  2181.22  2625.82
                             2699.82  4424.71  4472.32  4532.29  4539.79
                             4569.64  4948.98  5546.78
 
 Zero-point correction=                           0.111426 (Hartree/Particle)
 Thermal correction to Energy=                    0.121051
 Thermal correction to Enthalpy=                  0.121995
 Thermal correction to Gibbs Free Energy=         0.076098
 Sum of electronic and zero-point Energies=           -420.106183
 Sum of electronic and thermal Energies=              -420.096558
 Sum of electronic and thermal Enthalpies=            -420.095614
 Sum of electronic and thermal Free Energies=         -420.141511
 
                     E (Thermal)             CV                S
                      KCal/Mol        Cal/Mol-Kelvin    Cal/Mol-Kelvin
 Total                   75.961             32.414             96.599
 Electronic               0.000              0.000              1.377
 Translational            0.889              2.981             40.136
 Rotational               0.889              2.981             28.437
 Vibrational             74.183             26.452             26.649
 Vibration     1          0.598              1.970              4.264
 Vibration     2          0.603              1.952              3.534
 Vibration     3          0.608              1.937              3.190
 Vibration     4          0.617              1.906              2.717
 Vibration     5          0.634              1.850              2.204
 Vibration     6          0.652              1.797              1.886
 Vibration     7          0.657              1.780              1.807
 Vibration     8          0.668              1.745              1.660
 Vibration     9          0.723              1.586              1.189
 Vibration    10          0.732              1.561              1.136
 Vibration    11          0.799              1.385              0.829
 Vibration    12          0.953              1.043              0.459
                       Q            Log10(Q)             Ln(Q)
 Total Bot       0.994107D-35        -35.002567        -80.596389
 Total V=0       0.177814D+17         16.249967         37.416932
 Vib (Bot)       0.280097D-48        -48.552691       -111.796703
 Vib (Bot)    1  0.311819D+01          0.493903          1.137254
 Vib (Bot)    2  0.213974D+01          0.330361          0.760685
 Vib (Bot)    3  0.178562D+01          0.251789          0.579765
 Vib (Bot)    4  0.138508D+01          0.141476          0.325761
 Vib (Bot)    5  0.103884D+01          0.016549          0.038105
 Vib (Bot)    6  0.859943D+00         -0.065530         -0.150889
 Vib (Bot)    7  0.819183D+00         -0.086619         -0.199448
 Vib (Bot)    8  0.746146D+00         -0.127176         -0.292834
 Vib (Bot)    9  0.536697D+00         -0.270271         -0.622322
 Vib (Bot)   10  0.514716D+00         -0.288432         -0.664140
 Vib (Bot)   11  0.393918D+00         -0.404595         -0.931614
 Vib (Bot)   12  0.252374D+00         -0.597956         -1.376845
 Vib (V=0)       0.501006D+03          2.699843          6.216618
 Vib (V=0)    1  0.365803D+01          0.563247          1.296924
 Vib (V=0)    2  0.269738D+01          0.430943          0.992282
 Vib (V=0)    3  0.235430D+01          0.371862          0.856244
 Vib (V=0)    4  0.197257D+01          0.295032          0.679336
 Vib (V=0)    5  0.165290D+01          0.218248          0.502534
 Vib (V=0)    6  0.149474D+01          0.174565          0.401951
 Vib (V=0)    7  0.145972D+01          0.164269          0.378244
 Vib (V=0)    8  0.139818D+01          0.145564          0.335174
 Vib (V=0)    9  0.123351D+01          0.091144          0.209867
 Vib (V=0)   10  0.121759D+01          0.085500          0.196872
 Vib (V=0)   11  0.113653D+01          0.055581          0.127980
 Vib (V=0)   12  0.106008D+01          0.025340          0.058347
 Electronic      0.200000D+01          0.301030          0.693147
 Translational   0.484981D+08          7.685724         17.697035
 Rotational      0.365906D+06          5.563370         12.810132
 ***** Axes restored to original set *****
 -------------------------------------------------------------------
 Center     Atomic                   Forces (Hartrees/Bohr)
 Number     Number              X              Y              Z
 -------------------------------------------------------------------
      1        8          -0.016953314   -0.047175808   -0.003834670
      2        1          -0.000627301   -0.000786349   -0.000636866
      3        6          -0.009912568   -0.005339418    0.001731339
      4        1           0.000438826    0.001474672    0.000123117
      5        6           0.024171594    0.055684256    0.004992902
      6        6           0.002902275    0.000782638   -0.000521754
      7        8           0.000477131   -0.002676038   -0.001510795
      8        8          -0.000211319   -0.001253240   -0.000168210
      9        6          -0.000015723   -0.000538166   -0.000164508
     10        6          -0.000247348   -0.000072847    0.000015070
     11        1           0.000000501   -0.000016385   -0.000010852
     12        1           0.000024607   -0.000053706   -0.000008713
     13        1          -0.000024722   -0.000012751    0.000002057
     14        1          -0.000016085   -0.000009358    0.000002664
     15        1          -0.000006554   -0.000007501   -0.000010782
 -------------------------------------------------------------------
 Cartesian Forces:  Max     0.055684256 RMS     0.011918413

 GradGradGradGradGradGradGradGradGradGradGradGradGradGradGradGradGradGrad
 Berny optimization.
 Search for a local minimum.
 Step number   1 out of a maximum of    2
 All quantities printed in internal units (Hartrees-Bohrs-Radians)
 Second derivative matrix not updated -- analytic derivatives used.
 ITU=  0
     Eigenvalues ---   -0.12742   0.00028   0.00162   0.00176   0.00286
     Eigenvalues ---    0.00324   0.00419   0.00961   0.01798   0.02528
     Eigenvalues ---    0.03272   0.03718   0.04532   0.04875   0.06377
     Eigenvalues ---    0.06951   0.07726   0.08593   0.10254   0.11241
     Eigenvalues ---    0.14196   0.14447   0.17234   0.18114   0.21662
     Eigenvalues ---    0.28322   0.30657   0.43024   0.49296   0.61938
     Eigenvalues ---    0.67849   0.76440   0.78894   0.86612   0.89078
     Eigenvalues ---    0.93660   1.01798   1.74193   1.89451
 Eigenvalue     1 is  -1.27D-01 should be greater than     0.000000 Eigenvector:
                          Y5        Y1        X5        X3        X1
   1                    0.72061  -0.53410   0.30738  -0.16946  -0.15893
                          Y4        Y3        Z5        Z2        X2
   1                    0.12602  -0.09888   0.07635  -0.06326  -0.05631
 Quadratic step=6.474D+00 exceeds max=3.000D-01 adjusted using Lamda=-1.410D-01.
 Angle between NR and scaled steps=  79.63 degrees.
 Angle between quadratic step and forces=   6.69 degrees.
 Linear search not attempted -- first point.
 B after Tr=     0.000415   -0.002201    0.000616
         Rot=    1.000000   -0.000281    0.000083    0.000146 Ang=  -0.04 deg.
 Variable       Old X    -DE/DX   Delta X   Delta X   Delta X     New X
                                 (Linear)    (Quad)   (Total)
    X1        3.90943  -0.01695   0.00000  -0.06099  -0.05992   3.84951
    Y1        2.37610  -0.04718   0.00000  -0.17124  -0.17453   2.20157
    Z1       -0.05310  -0.00383   0.00000  -0.00355  -0.00106  -0.05416
    X2        5.15956  -0.00063   0.00000  -0.01571  -0.01485   5.14470
    Y2        2.22382  -0.00079   0.00000   0.00496   0.00056   2.22438
    Z2        1.26824  -0.00064   0.00000  -0.01441  -0.01168   1.25656
    X3        4.48450  -0.00991   0.00000  -0.02441  -0.02448   4.46002
    Y3       -2.25801  -0.00534   0.00000  -0.00840  -0.01130  -2.26931
    Z3       -1.06394   0.00173   0.00000   0.00286   0.00294  -1.06099
    X4        6.15409   0.00044   0.00000  -0.00734  -0.00756   6.14654
    Y4       -3.16403   0.00147   0.00000  -0.00781  -0.01082  -3.17485
    Z4       -1.74058   0.00012   0.00000   0.00027   0.00012  -1.74045
    X5        2.85855   0.02417   0.00000   0.09496   0.09529   2.95384
    Y5       -0.68482   0.05568   0.00000   0.21441   0.21151  -0.47331
    Z5       -0.30653   0.00499   0.00000   0.01918   0.02003  -0.28650
    X6        0.19517   0.00290   0.00000   0.01371   0.01392   0.20910
    Y6       -0.35555   0.00078   0.00000   0.00417   0.00158  -0.35398
    Z6        0.59798  -0.00052   0.00000  -0.00378  -0.00332   0.59466
    X7       -0.44180   0.00048   0.00000   0.00278   0.00254  -0.43926
    Y7       -0.67298  -0.00268   0.00000  -0.00481  -0.00842  -0.68140
    Z7        2.74649  -0.00151   0.00000  -0.00651  -0.00635   2.74015
    X8       -1.23998  -0.00021   0.00000  -0.00243  -0.00166  -1.24163
    Y8        0.53095  -0.00125   0.00000  -0.00413  -0.00527   0.52569
    Z8       -1.25335  -0.00017   0.00000  -0.00121  -0.00050  -1.25385
    X9       -3.75981  -0.00002   0.00000  -0.00180  -0.00091  -3.76072
    Y9        1.30629  -0.00054   0.00000  -0.00140  -0.00219   1.30410
    Z9       -0.55463  -0.00016   0.00000  -0.00074  -0.00001  -0.55464
   X10       -5.52327  -0.00025   0.00000  -0.00161  -0.00140  -5.52467
   Y10       -0.94407  -0.00007   0.00000  -0.00042  -0.00079  -0.94486
   Z10       -0.39509   0.00002   0.00000   0.00099   0.00016  -0.39493
   X11       -4.31234   0.00000   0.00000  -0.00107   0.00045  -4.31189
   Y11        2.60673  -0.00002   0.00000   0.00002   0.00023   2.60696
   Z11       -2.04916  -0.00001   0.00000  -0.00090   0.00046  -2.04869
   X12       -3.65647   0.00002   0.00000  -0.00110  -0.00022  -3.65669
   Y12        2.31983  -0.00005   0.00000   0.00140  -0.00043   2.31939
   Z12        1.23692  -0.00001   0.00000  -0.00111   0.00021   1.23713
   X13       -7.44028  -0.00002   0.00000  -0.00124  -0.00091  -7.44119
   Y13       -0.29281  -0.00001   0.00000  -0.00024  -0.00027  -0.29309
   Z13        0.00147   0.00000   0.00000   0.00071  -0.00008   0.00139
   X14       -5.54087  -0.00002   0.00000  -0.00024  -0.00004  -5.54091
   Y14       -1.97238  -0.00001   0.00000  -0.00012   0.00052  -1.97186
   Z14       -2.18210   0.00000   0.00000   0.00095  -0.00046  -2.18257
   X15       -4.94265  -0.00001   0.00000   0.00016  -0.00026  -4.94291
   Y15       -2.21728  -0.00001   0.00000   0.00103  -0.00036  -2.21764
   Z15        1.11661  -0.00001   0.00000   0.00099  -0.00046   1.11615
         Item               Value     Threshold  Converged?
 Maximum Force            0.055684     0.000450     NO 
 RMS     Force            0.011918     0.000300     NO 
 Maximum Displacement     0.211512     0.001800     NO 
 RMS     Displacement     0.044698     0.001200     NO 
 Predicted change in Energy=-2.923057D-02
 GradGradGradGradGradGradGradGradGradGradGradGradGradGradGradGradGradGrad


 ----------------------------------------------------------------------

 Electric dipole moment (input orientation):
 (Debye = 10**-18 statcoulomb cm , SI units = C m)
                  (au)            (Debye)         (10**-30 SI)
   Tot        0.606184D+00      0.154077D+01      0.513944D+01
   x          0.220297D-02      0.559940D-02      0.186776D-01
   y         -0.503178D+00     -0.127895D+01     -0.426612D+01
   z         -0.338033D+00     -0.859194D+00     -0.286596D+01

 Dipole polarizability, Alpha (input orientation).
 (esu units = cm**3 , SI units = C**2 m**2 J**-1)
 Alpha(0;0):
               (au)            (10**-24 esu)      (10**-40 SI)
   iso        0.718174D+02      0.106422D+02      0.118411D+02
   aniso      0.243360D+02      0.360623D+01      0.401247D+01
   xx         0.837478D+02      0.124101D+02      0.138081D+02
   yx        -0.588957D+01     -0.872745D+00     -0.971060D+00
   yy         0.717688D+02      0.106350D+02      0.118331D+02
   zx        -0.270720D+01     -0.401165D+00     -0.446357D+00
   zy         0.369341D+01      0.547307D+00      0.608962D+00
   zz         0.599356D+02      0.888154D+01      0.988205D+01

 ----------------------------------------------------------------------

 Dipole orientation:
     8          3.91380697         -1.37668285         -1.92852339
     1          5.16842906         -0.19736978         -2.53440573
     6          4.47622206          0.36734439          2.48391025
     1          6.14158805          0.30769366          3.61936371
     6          2.85608265          0.12191238          0.74977429
     6          0.19665762          0.69426680         -0.03761407
     8         -0.43312123          2.65593636         -0.97453942
     8         -1.24349202         -1.33405891          0.25368305
     6         -3.75926053         -1.18155284         -0.78870108
     6         -5.52648238          0.20920340          0.98389046
     1         -4.31469817         -3.14624162         -1.03675907
     1         -3.64745563         -0.25982966         -2.62867468
     1         -7.44078125          0.17891715          0.21519500
     1         -5.55257651         -0.70068352          2.83391517
     1         -4.94284289          2.17290179          1.19988100

 Electric dipole moment (dipole orientation):
 (Debye = 10**-18 statcoulomb cm , SI units = C m)
                  (au)            (Debye)         (10**-30 SI)
   Tot        0.606184D+00      0.154077D+01      0.513944D+01
   x          0.000000D+00      0.000000D+00      0.000000D+00
   y          0.000000D+00      0.000000D+00      0.000000D+00
   z          0.606184D+00      0.154077D+01      0.513944D+01

 Dipole polarizability, Alpha (dipole orientation).
 (esu units = cm**3 , SI units = C**2 m**2 J**-1)
 Alpha(0;0):
               (au)            (10**-24 esu)      (10**-40 SI)
   iso        0.718174D+02      0.106422D+02      0.118411D+02
   aniso      0.243360D+02      0.360623D+01      0.401247D+01
   xx         0.837050D+02      0.124038D+02      0.138011D+02
   yx         0.976729D+00      0.144736D+00      0.161041D+00
   yy         0.601922D+02      0.891956D+01      0.992435D+01
   zx         0.645068D+01      0.955892D+00      0.106357D+01
   zy         0.407236D+01      0.603461D+00      0.671441D+00
   zz         0.715550D+02      0.106034D+02      0.117978D+02

 ----------------------------------------------------------------------
 1\1\GINC-AJ\Freq\UM062X\6-311++G(d,p)\C5H7O3(2)\AAYUSH\16-Aug-2025\0\\
 # freq 6-311++g(d,p) m062x\\Title Card Required\\0,2\O,2.068782,1.2573
 8,-0.028101\H,2.73032,1.176794,0.671123\C,2.373095,-1.194888,-0.563012
 \H,3.256606,-1.674334,-0.921073\C,1.512678,-0.362392,-0.162208\C,0.103
 282,-0.188151,0.316439\O,-0.233792,-0.356125,1.453382\O,-0.656167,0.28
 0968,-0.663245\C,-1.989604,0.69126,-0.293496\C,-2.922786,-0.499579,-0.
 209071\H,-2.28199,1.379422,-1.084367\H,-1.934923,1.227599,0.654551\H,-
 3.937228,-0.154949,0.000779\H,-2.932104,-1.043738,-1.15472\H,-2.615537
 ,-1.173334,0.590882\\Version=ES64L-G16RevA.03\State=2-A\HF=-420.217609
 1\S2=0.777865\S2-1=0.\S2A=0.750478\RMSD=4.781e-09\RMSF=1.192e-02\ZeroP
 oint=0.1114264\Thermal=0.1210511\Dipole=0.002203,-0.503178,-0.3380328\
 DipoleDeriv=-0.5623509,-0.227537,0.0796389,-0.0559194,-0.6277998,-0.12
 62387,0.0499443,-0.1582349,-0.368954,0.2520818,0.1067339,-0.0333354,0.
 0376056,0.2067577,0.0534813,-0.0244637,0.0942079,0.244032,-0.3409086,0
 .0158288,0.0477108,0.092197,-0.2637743,-0.0590425,0.0293553,-0.0087642
 ,-0.1625072,0.2185645,-0.0090319,0.0005653,-0.0622638,0.2636934,0.0242
 952,-0.0052508,0.002963,0.2319716,0.0132033,0.1542937,-0.0010376,-0.00
 78251,0.417672,0.1347118,0.0156698,0.0924012,-0.0213989,1.9725521,-0.2
 855741,0.0161381,-0.4175834,0.4320379,-0.3696234,0.3997872,-0.4378133,
 1.6752521,-0.8337779,0.0252978,0.2372045,0.0860682,-0.3583615,0.113308
 ,0.0149516,0.2104391,-1.1077681,-1.6094273,0.2990348,-0.326442,0.46480
 02,-0.4324394,0.2281312,-0.4000259,0.1932047,-0.8013737,0.9962181,-0.1
 010197,0.0514541,-0.1211557,0.3707921,-0.0515333,-0.096868,0.0166342,0
 .247852,-0.0932778,-0.0183828,-0.0159202,-0.0546194,-0.0661579,0.05439
 57,0.015293,0.012987,0.0474355,-0.0235983,0.007543,-0.0095269,0.032873
 4,-0.0107496,0.0672777,-0.0298695,0.0997168,-0.0052055,-0.031004,-0.03
 24153,-0.0505777,-0.0047028,0.0099422,-0.0302852,0.0344314,-0.0896104,
 -0.0131109,-0.1100845,0.0392145,0.0220738,0.0493716,0.0472671,-0.02585
 91,0.0338976,-0.0148761,0.0884976,0.0719778,-0.0062418,0.0304945,-0.03
 91588,0.0118539,-0.0550397,-0.0109882,-0.0826806,-0.0595143,0.0798316,
 0.032256,-0.0484402,0.0003124,-0.000734,0.042021,-0.025864,0.0694254,0
 .0047918\Polar=83.747786,-5.8895739,71.7687979,-2.7071971,3.693414,59.
 9356116\Quadrupole=8.3217272,-2.5105784,-5.8111488,-4.9314227,1.533457
 2,2.9600656\PG=C01 [X(C5H7O3)]\NImag=1\\0.28755411,-0.04879565,0.03337
 648,0.26650446,-0.04195538,0.30876658,-0.24837420,0.01982511,-0.261133
 32,0.25299460,0.04241354,-0.03522329,0.04961515,-0.02413282,0.04082329
 ,-0.26676757,0.02818805,-0.27957330,0.26350104,-0.03372698,0.27869584,
 0.01785763,0.03027710,0.00170797,0.00202832,0.00062525,0.00153051,0.68
 736413,-0.01488422,-0.08715502,-0.01269064,-0.00037129,-0.00147070,-0.
 00160469,-0.48513052,0.40143737,-0.00546965,-0.02868084,0.00542792,0.0
 0003156,0.00069894,0.00026961,-0.27815272,0.20825689,0.16921894,0.0001
 1971,0.00088059,-0.00004161,0.00030737,0.00002012,-0.00007521,-0.28720
 242,0.16657113,0.11131758,0.27923658,0.00066307,0.00486057,0.00093016,
 0.00039269,-0.00024727,-0.00026561,0.14658747,-0.08087945,-0.05561453,
 -0.15387738,0.08621069,0.00056072,0.00112629,-0.00073139,-0.00021041,-
 0.00014249,-0.00011285,0.10785918,-0.06140467,-0.06684401,-0.10910546,
 0.06031738,0.05905261,-0.04454009,0.01419368,-0.01076690,-0.00580539,-
 0.01868123,0.00256759,-0.41799441,0.33922481,0.17251835,0.00682066,0.0
 0692622,-0.00094283,0.71853926,0.04294848,0.10214229,0.00500122,0.0059
 4466,-0.00115599,0.00711128,0.28928484,-0.22238979,-0.11720736,-0.0145
 6279,-0.01180185,0.00176421,-0.37886741,0.15652391,0.00243405,0.043315
 78,-0.03927920,-0.00164469,-0.01782960,-0.00033947,0.16359803,-0.13217
 937,-0.10708955,-0.00385197,-0.00456874,0.00266784,-0.22151397,0.10343
 766,0.23731541,-0.00990857,-0.01065601,0.00648370,-0.00184919,-0.00042
 240,-0.00281547,0.00662293,-0.00630205,-0.00225566,0.00046020,0.000031
 30,0.00227526,-0.20069992,0.02500367,0.04345035,0.61136636,-0.02534307
 ,-0.02551227,-0.00098308,-0.00133574,-0.00357262,0.00099040,0.02024947
 ,-0.01333717,-0.00913784,0.00173908,0.00240293,-0.00131036,0.02362659,
 -0.03879121,-0.00270974,-0.07340049,0.27979547,0.00181154,-0.00527695,
 -0.00015849,-0.00268387,0.00068463,0.00306071,0.00399257,-0.00275496,-
 0.00296473,0.00184808,-0.00047046,0.00609442,0.03284799,-0.00124649,-0
 .06712329,-0.14437999,-0.13812455,0.95770173,-0.00193608,-0.00213144,-
 0.00269640,0.00019840,-0.00023748,0.00080006,-0.00329040,0.00009889,0.
 00142127,-0.00025644,-0.00001308,-0.00189382,-0.01333297,0.00262014,0.
 04542624,-0.17059006,-0.02136208,0.19941185,0.16032518,0.00169964,0.00
 382236,0.00092522,0.00039589,0.00032976,-0.00044926,-0.00156259,0.0019
 3587,0.00141170,-0.00041612,-0.00039636,-0.00004822,-0.00140982,0.0135
 1878,-0.00019658,-0.01612711,-0.09452417,0.08418905,0.01421833,0.06059
 614,0.00189548,0.00319833,0.00506267,0.00144863,0.00067080,-0.00216703
 ,0.00113147,0.00135793,0.00106173,0.00010559,-0.00014339,0.00040566,0.
 02901117,-0.00200920,-0.03071254,0.19557988,0.08986584,-0.69853947,-0.
 21007260,-0.12670227,0.82468312,-0.00205344,-0.00366766,-0.00035952,0.
 00052658,0.00059204,0.00140247,-0.00561205,0.00090535,0.00074089,0.000
 67182,-0.00078170,0.00128686,-0.04397853,0.02517791,-0.02602313,-0.188
 77589,0.05472711,-0.08755659,0.02946670,0.00964986,-0.02880133,0.45739
 229,0.00015631,0.00254122,-0.00077928,-0.00086397,0.00032736,-0.000251
 42,0.00086494,0.00092222,-0.00004350,-0.00034785,-0.00001865,-0.000359
 60,0.01372492,-0.00077062,0.00854640,0.05793736,-0.09769925,0.06417176
 ,0.00858906,0.01829145,0.03798085,-0.13993573,0.15328953,-0.00122035,0
 .00051071,0.00060018,0.00070945,-0.00009681,0.00002552,-0.00099281,0.0
 0093835,0.00057912,-0.00023583,-0.00014929,-0.00076387,-0.00077957,0.0
 0009613,0.00684975,-0.06907133,0.05273041,-0.21069045,-0.02712519,0.03
 921217,-0.09742647,0.06390714,-0.08853987,0.39853414,0.00160492,0.0005
 8499,0.00054959,-0.00004634,-0.00023570,-0.00037539,0.00105127,-0.0003
 0986,-0.00030704,-0.00025250,0.00018683,0.00003874,0.00213103,0.001236
 77,-0.00046910,-0.04704790,0.02505775,-0.02768462,-0.00030621,-0.00626
 387,0.01881094,-0.15991469,0.03258151,0.02669727,0.44111718,0.00087514
 ,0.00112903,-0.00020323,0.00010151,0.00014727,0.00008484,-0.00144989,0
 .00108255,0.00035878,0.00000434,-0.00017908,0.00007291,0.00150850,0.00
 288251,0.00196701,0.02452684,-0.01118837,0.00847381,0.00031208,-0.0042
 9116,-0.00708913,0.03089045,-0.07750178,-0.00556940,-0.00835310,0.5627
 8083,0.00037313,-0.00057092,-0.00025410,-0.00003788,0.00015571,0.00017
 884,-0.00076265,0.00003648,0.00034279,0.00006079,-0.00003394,0.0002565
 4,-0.00373428,0.00379864,-0.00248372,-0.02790593,0.00622350,0.01891665
 ,-0.00049609,0.00050636,-0.00556179,0.04796997,-0.01233969,-0.10466183
 ,0.05482449,-0.01743690,0.64321657,0.00009475,0.00015670,-0.00009936,0
 .00002613,0.00007002,0.00009167,-0.00053236,0.00028650,0.00008620,0.00
 003507,-0.00007520,0.00006880,-0.00023097,0.00116015,-0.00005045,0.001
 00028,-0.00418512,0.00577303,-0.00027084,-0.00072902,-0.00262150,-0.04
 443390,-0.02226767,0.00391516,-0.11348862,-0.05761782,-0.00009527,0.54
 800816,0.00009468,-0.00004234,0.00007648,0.00001839,-0.00000602,-0.000
 04655,0.00033418,-0.00019334,-0.00007243,-0.00000135,0.00005393,-0.000
 03591,-0.00036821,-0.00040647,0.00018656,-0.00014102,0.00278848,-0.005
 87539,-0.00183944,-0.00090888,0.00223911,0.01219802,0.01247151,0.00191
 747,-0.06977120,-0.17920948,0.00586870,-0.04780583,0.53363515,-0.00000
 637,0.00003540,0.00006268,-0.00000925,-0.00002601,-0.00002236,0.000124
 69,-0.00006613,-0.00003896,-0.00000384,0.00001177,0.00000967,0.0001247
 5,-0.00031999,-0.00006489,-0.00183828,-0.00031961,-0.00014552,0.001053
 06,0.00073790,0.00099904,0.01112653,0.00511890,0.00111832,-0.00146933,
 0.00442914,-0.08513553,0.00437553,0.00278820,0.58853261,-0.00023468,-0
 .00042757,0.00002214,0.00003820,0.00000492,0.00007344,-0.00027494,-0.0
 0003365,0.00009300,0.00003762,-0.00002356,0.00005263,-0.00082338,0.000
 58367,-0.00094594,-0.00292060,0.00187368,0.00568271,0.00087685,-0.0000
 7163,-0.00144290,-0.02722116,0.02623322,-0.02565322,-0.06109445,0.0386
 7445,-0.04712400,0.00739490,-0.01400699,0.01669738,0.08454167,0.000128
 27,0.00011123,0.00002092,0.00000850,0.00000842,-0.00001836,0.00006605,
 0.00000354,-0.00000125,-0.00001157,0.00000813,-0.00000717,0.00030234,-
 0.00007116,0.00024887,0.00001874,0.00006528,-0.00375246,-0.00107862,0.
 00071616,0.00067653,0.00979934,-0.00669372,0.00772106,0.04426681,-0.15
 795346,0.12365157,0.00522757,-0.01630337,0.01982982,-0.05060104,0.1693
 8763,0.00003943,0.00008180,-0.00000352,0.00001960,0.00000950,0.0000038
 2,-0.00007066,0.00007068,0.00001155,-0.00000245,-0.00000896,-0.0000229
 7,0.00042222,-0.00001375,0.00035163,0.00232034,-0.00047106,-0.00277525
 ,-0.00187657,0.00073685,0.00154790,0.00712314,-0.00926109,0.00938138,-
 0.05802660,0.12900304,-0.20682515,0.00038544,-0.00116193,0.00084683,0.
 05537459,-0.13680418,0.21263401,-0.00019625,-0.00032200,-0.00019176,-0
 .00003575,-0.00002388,0.00008229,0.00000753,-0.00009382,-0.00003863,0.
 00003688,-0.00000517,0.,-0.00001916,-0.00057951,-0.00026939,0.00262128
 ,-0.00049578,0.00845888,0.00008447,0.00076348,-0.00328983,-0.01669796,
 0.02421552,0.03138009,-0.05068967,-0.01232720,-0.02463328,0.00019152,-
 0.01072114,-0.01924852,0.00090659,-0.00502998,-0.00654152,0.06520007,0
 .00006640,-0.00003389,0.00003865,0.00003943,0.00001676,-0.00001922,-0.
 00010355,0.00002684,0.00004763,-0.00001164,0.00000340,-0.00002254,0.00
 004265,0.00020566,0.00028423,0.00009510,0.00148186,-0.00573575,-0.0014
 3864,-0.00027548,0.00239596,0.00730197,-0.00672109,-0.00778248,-0.0077
 4612,-0.11399389,-0.10968449,-0.00295341,-0.01248000,-0.02290034,0.000
 25659,0.01222387,0.01772316,0.00696753,0.12136842,-0.00010731,0.000049
 20,0.00007424,-0.00001142,-0.00002276,-0.00002830,0.00011977,-0.000004
 29,-0.00002474,-0.00000840,0.00000064,0.00001205,0.00023293,-0.0005460
 1,-0.00022311,-0.00263061,0.00221340,-0.00140823,-0.00167429,0.0011798
 9,0.00060633,0.00894390,-0.00480370,-0.00544153,-0.01469126,-0.1157102
 2,-0.25846321,-0.00069686,0.00265971,0.00459422,-0.00194308,-0.0108227
 4,-0.01713605,0.01264789,0.12501007,0.27585192,-0.00011500,-0.00001504
 ,-0.00004565,0.00001758,0.00001956,0.00003923,-0.00020130,0.00010057,0
 .00004371,0.00001559,-0.00003609,0.00000131,0.00006743,0.00019058,0.00
 000007,0.00152794,-0.00091273,0.00224504,-0.00009492,-0.00010769,-0.00
 099904,-0.00417963,-0.00363491,-0.00089030,-0.01673310,0.01043327,0.00
 345586,-0.28114682,0.07950295,0.04847446,0.00055666,-0.00012241,0.0004
 0071,0.00034334,-0.00009002,-0.00058950,0.30527029,0.00000669,0.000017
 81,-0.00001403,-0.00000738,0.00001528,0.00001077,-0.00012513,0.0000695
 0,0.00001835,-0.00000024,-0.00002331,0.00002725,-0.00007636,0.00022915
 ,-0.00016705,0.00013155,-0.00145008,0.00278354,0.00057728,0.00040401,-
 0.00114015,-0.00812248,-0.00310974,-0.00019779,-0.02165439,0.01144913,
 0.00499635,0.08160642,-0.07601085,-0.01723454,0.00096007,0.00079339,0.
 00052203,0.00076944,0.00075224,-0.00071476,-0.08661281,0.07860505,0.00
 000369,0.00000443,0.00000201,0.00000408,0.00000129,-0.00000150,-0.0000
 0651,0.00000782,0.00001710,-0.00000692,0.00000290,-0.00000877,0.000003
 52,0.00003050,0.00006058,0.00017371,0.00067038,-0.00128520,-0.00066075
 ,-0.00052492,0.00030848,0.00109112,0.00020916,0.00154500,0.00083315,-0
 .00091769,-0.00247038,0.04836836,-0.01651004,-0.05561408,-0.00012543,-
 0.00003711,-0.00004252,0.00010063,0.00010937,-0.00000268,-0.05361849,0
 .01819373,0.05600156,0.00001094,0.00004183,0.00005022,-0.00000147,-0.0
 0000512,-0.00002698,0.00003298,0.00000970,0.00000896,-0.00002076,0.000
 00057,-0.00000882,-0.00002226,-0.00007862,-0.00000598,-0.00052082,0.00
 050086,-0.00156485,-0.00042606,-0.00013921,0.00068987,0.00299446,0.000
 88633,0.00015944,-0.00230163,-0.01217930,-0.01972920,-0.04643885,0.001
 30466,-0.00028467,0.00057287,0.00091548,0.00040694,-0.00226041,-0.0035
 0569,0.00061543,0.00191563,0.01475373,0.02691020,0.04740708,-0.0000650
 4,-0.00001343,0.00004175,0.00001276,0.00000007,-0.00000757,-0.00001045
 ,0.00000598,0.00000984,0.00000447,-0.00000289,-0.00000316,-0.00002132,
 -0.00005445,-0.00007855,-0.00004286,0.00008443,0.00010749,0.00030571,0
 .00017372,0.00003990,0.00153690,0.00212607,0.00105647,0.00064706,-0.01
 589132,-0.02599899,-0.00065546,-0.11308173,-0.11433543,0.00066495,0.00
 068752,0.00008641,-0.00373106,-0.00332741,0.00154632,-0.00061919,-0.00
 551295,-0.00753353,0.00317977,0.12314982,-0.00003854,0.00002008,0.0000
 2148,0.00000437,-0.00000348,-0.00000791,-0.00004474,0.00004598,0.00002
 076,-0.00001185,-0.00001741,-0.00001086,-0.00001555,-0.00001321,0.0000
 6112,0.00013924,-0.00009814,-0.00076541,-0.00057832,-0.00022508,0.0003
 5552,-0.00105165,0.00054401,0.00054203,0.00051507,0.00201369,0.0032226
 4,-0.00128402,-0.11665893,-0.25612712,-0.00048788,-0.00034285,0.000740
 79,0.00103119,0.00071656,0.00110452,-0.00030503,-0.00126527,-0.0044051
 8,0.00082986,0.12757186,0.27354330,0.00011623,0.00005539,0.00001645,-0
 .00002483,-0.00000682,-0.00002769,0.00014309,-0.00007153,-0.00003784,-
 0.00000939,0.00002404,0.00001783,-0.00011132,-0.00006254,-0.00013412,-
 0.00128604,-0.00073953,0.00179823,-0.00044763,0.00009986,-0.00144580,0
 .00181539,0.00186096,-0.00079995,0.00597073,-0.01539928,0.01783433,-0.
 07020845,0.05120231,-0.05911615,-0.00235615,-0.00388948,0.00002540,0.0
 0050751,0.00107942,-0.00020719,-0.00724369,0.01779362,-0.02307036,-0.0
 0094171,-0.00120624,0.00129784,0.07407625,0.00003577,-0.00002075,-0.00
 002391,-0.00002773,0.00000768,0.00000434,0.00009284,-0.00005840,-0.000
 04438,0.00000922,0.00000922,0.00002607,-0.00012536,-0.00006077,-0.0002
 5686,-0.00065260,-0.00054331,0.00282673,0.00137929,0.00060780,-0.00134
 113,-0.00027139,0.00254550,-0.00184712,0.00977253,-0.01926280,0.020827
 63,0.04778216,-0.15030659,0.12225093,-0.00408711,-0.00298347,-0.000512
 50,0.00061359,0.00075271,-0.00003476,0.00190397,-0.00622864,0.00629371
 ,-0.00568499,0.01165655,-0.01228781,-0.05074018,0.16388527,-0.00001271
 ,-0.00004598,-0.00001776,0.00001211,0.00001211,0.00001838,-0.00003413,
 -0.00000938,0.00001247,0.00001148,0.00000949,-0.00000406,0.00002459,0.
 00011636,0.00000942,0.00047480,0.00046045,0.00008254,-0.00103845,-0.00
 075282,-0.00062316,0.00020020,-0.00019292,-0.00019129,0.00075409,0.000
 52336,-0.00027832,-0.05821674,0.12462497,-0.19901491,-0.00027342,-0.00
 036266,0.00128756,0.00051195,-0.00018079,0.00048458,0.00178761,-0.0058
 1844,0.00589558,-0.00805040,0.01749720,-0.01829567,0.06384902,-0.13588
 094,0.21063467\\0.01695331,0.04717581,0.00383467,0.00062730,0.00078635
 ,0.00063687,0.00991257,0.00533942,-0.00173134,-0.00043883,-0.00147467,
 -0.00012312,-0.02417159,-0.05568426,-0.00499290,-0.00290228,-0.0007826
 4,0.00052175,-0.00047713,0.00267604,0.00151079,0.00021132,0.00125324,0
 .00016821,0.00001572,0.00053817,0.00016451,0.00024735,0.00007285,-0.00
 001507,-0.00000050,0.00001638,0.00001085,-0.00002461,0.00005371,0.0000
 0871,0.00002472,0.00001275,-0.00000206,0.00001608,0.00000936,-0.000002
 66,0.00000655,0.00000750,0.00001078\\\@


 THE ENLIGHTENED ONE, BECAUSE HE SAW MANKIND DROWNING  
 IN THE GREAT SEA OF BIRTH, DEATH, AND SORROW, LONGED TO SAVE 
 THEM, FOR THIS HE WAS MOVED TO PITY.                         
 BECAUSE HE SAW MEN OF THE WORLD STRAYING IN FALSE PATHS, AND 
 NONE TO GUIDE THEM, FOR THIS HE WAS MOVED TO PITY.           
                     ..................                       
 BECAUSE HE SAW THE MEN OF THE WORLD PLOUGHING THEIR FIELDS,  
 SOWING THE SEED, TRAFFICKING, HUCKSTERING, BUYING, SELLING,  
 AND AT THE END WINNOWING NOTHING BUT BITTERNESS,             
 FOR THIS HE WAS MOVED TO PITY......                   
                   BUDAH'S PITY - UPSAKA SILA SUTRA           
 Job cpu time:       0 days  0 hours 53 minutes 42.1 seconds.
 Elapsed time:       0 days  0 hours  2 minutes 14.6 seconds.
 File lengths (MBytes):  RWF=    153 Int=      0 D2E=      0 Chk=      6 Scr=      1
 Normal termination of Gaussian 16 at Sat Aug 16 17:56:43 2025.
