 Entering Gaussian System, Link 0=g16
 Initial command:
 /opt/g16/l1.exe "/home/aayush/scratches/g16/Gau-7742.inp" -scrdir="/home/aayush/scratches/g16/"
 Entering Link 1 = /opt/g16/l1.exe PID=      7745.
  
 Copyright (c) 1988,1990,1992,1993,1995,1998,2003,2009,2016,
            Gaussian, Inc.  All Rights Reserved.
  
 This is part of the Gaussian(R) 16 program.  It is based on
 the Gaussian(R) 09 system (copyright 2009, Gaussian, Inc.),
 the Gaussian(R) 03 system (copyright 2003, Gaussian, Inc.),
 the Gaussian(R) 98 system (copyright 1998, Gaussian, Inc.),
 the Gaussian(R) 94 system (copyright 1995, Gaussian, Inc.),
 the Gaussian 92(TM) system (copyright 1992, Gaussian, Inc.),
 the Gaussian 90(TM) system (copyright 1990, Gaussian, Inc.),
 the Gaussian 88(TM) system (copyright 1988, Gaussian, Inc.),
 the Gaussian 86(TM) system (copyright 1986, Carnegie Mellon
 University), and the Gaussian 82(TM) system (copyright 1983,
 Carnegie Mellon University). Gaussian is a federally registered
 trademark of Gaussian, Inc.
  
 This software contains proprietary and confidential information,
 including trade secrets, belonging to Gaussian, Inc.
  
 This software is provided under written license and may be
 used, copied, transmitted, or stored only in accord with that
 written license.
  
 The following legend is applicable only to US Government
 contracts under FAR:
  
                    RESTRICTED RIGHTS LEGEND
  
 Use, reproduction and disclosure by the US Government is
 subject to restrictions as set forth in subparagraphs (a)
 and (c) of the Commercial Computer Software - Restricted
 Rights clause in FAR 52.227-19.
  
 Gaussian, Inc.
 340 Quinnipiac St., Bldg. 40, Wallingford CT 06492
  
  
 ---------------------------------------------------------------
 Warning -- This program may not be used in any manner that
 competes with the business of Gaussian, Inc. or will provide
 assistance to any competitor of Gaussian, Inc.  The licensee
 of this program is prohibited from giving any competitor of
 Gaussian, Inc. access to this program.  By using this program,
 the user acknowledges that Gaussian, Inc. is engaged in the
 business of creating and licensing software in the field of
 computational chemistry and represents and warrants to the
 licensee that it is not a competitor of Gaussian, Inc. and that
 it will not use this program in any manner prohibited above.
 ---------------------------------------------------------------
  

 Cite this work as:
 Gaussian 16, Revision A.03,
 M. J. Frisch, G. W. Trucks, H. B. Schlegel, G. E. Scuseria, 
 M. A. Robb, J. R. Cheeseman, G. Scalmani, V. Barone, 
 G. A. Petersson, H. Nakatsuji, X. Li, M. Caricato, A. V. Marenich, 
 J. Bloino, B. G. Janesko, R. Gomperts, B. Mennucci, H. P. Hratchian, 
 J. V. Ortiz, A. F. Izmaylov, J. L. Sonnenberg, D. Williams-Young, 
 F. Ding, F. Lipparini, F. Egidi, J. Goings, B. Peng, A. Petrone, 
 T. Henderson, D. Ranasinghe, V. G. Zakrzewski, J. Gao, N. Rega, 
 G. Zheng, W. Liang, M. Hada, M. Ehara, K. Toyota, R. Fukuda, 
 J. Hasegawa, M. Ishida, T. Nakajima, Y. Honda, O. Kitao, H. Nakai, 
 T. Vreven, K. Throssell, J. A. Montgomery, Jr., J. E. Peralta, 
 F. Ogliaro, M. J. Bearpark, J. J. Heyd, E. N. Brothers, K. N. Kudin, 
 V. N. Staroverov, T. A. Keith, R. Kobayashi, J. Normand, 
 K. Raghavachari, A. P. Rendell, J. C. Burant, S. S. Iyengar, 
 J. Tomasi, M. Cossi, J. M. Millam, M. Klene, C. Adamo, R. Cammi, 
 J. W. Ochterski, R. L. Martin, K. Morokuma, O. Farkas, 
 J. B. Foresman, and D. J. Fox, Gaussian, Inc., Wallingford CT, 2016.
 
 ******************************************
 Gaussian 16:  ES64L-G16RevA.03 25-Dec-2016
                12-May-2025 
 ******************************************
 %chk=ethyl_propiolate.chk
 %nprocshared=24
 Will use up to   24 processors via shared memory.
 %mem=12GB
 --------------------------
 # ccsd(t)/6-311++g(d,p) sp
 --------------------------
 1/38=1,172=1/1;
 2/12=2,17=6,18=5,40=1/2;
 3/5=4,6=6,7=1111,11=9,25=1,30=1/1,2,3;
 4//1;
 5/5=2,38=5/2;
 8/6=4,9=120000,10=2/1,4;
 9/5=7,14=2/13;
 6/7=2,8=2,9=2,10=2/1;
 99/5=1,9=1/99;
 -------------------
 Title Card Required
 -------------------
 Symbolic Z-matrix:
 Charge =  0 Multiplicity = 2
 C                     1.29458  -1.42355  -1.14886 
 H                     1.6597   -2.29743  -1.63792 
 C                     0.90786  -0.47795  -0.48005 
 C                     0.35508   0.87295  -0.20284 
 O                     0.96897   1.85321  -0.49774 
 O                    -0.82969   0.92499   0.39243 
 C                    -1.57582  -0.27526   0.67416 
 C                    -2.42214  -0.67056  -0.51955 
 H                    -0.89388  -1.06739   0.98461 
 H                    -2.19611  -0.00368   1.52681 
 H                    -3.07604   0.15217  -0.81161 
 H                    -1.79612  -0.94065  -1.37231 
 H                    -3.03985  -1.53366  -0.26301 
 O                     1.38281  -0.89213   1.38013 
 H                     2.33682  -0.73427   1.31065 
 
                          Input orientation:                          
 ---------------------------------------------------------------------
 Center     Atomic      Atomic             Coordinates (Angstroms)
 Number     Number       Type             X           Y           Z
 ---------------------------------------------------------------------
      1          6           0        1.294580   -1.423552   -1.148862
      2          1           0        1.659701   -2.297426   -1.637915
      3          6           0        0.907859   -0.477954   -0.480053
      4          6           0        0.355078    0.872949   -0.202839
      5          8           0        0.968969    1.853207   -0.497740
      6          8           0       -0.829693    0.924994    0.392428
      7          6           0       -1.575821   -0.275257    0.674156
      8          6           0       -2.422137   -0.670555   -0.519548
      9          1           0       -0.893876   -1.067392    0.984605
     10          1           0       -2.196114   -0.003680    1.526810
     11          1           0       -3.076042    0.152168   -0.811614
     12          1           0       -1.796117   -0.940646   -1.372314
     13          1           0       -3.039852   -1.533655   -0.263009
     14          8           0        1.382807   -0.892127    1.380131
     15          1           0        2.336822   -0.734268    1.310652
 ---------------------------------------------------------------------
                    Distance matrix (angstroms):
                    1          2          3          4          5
     1  C    0.000000
     2  H    1.065900   0.000000
     3  C    1.221071   2.283942   0.000000
     4  C    2.655474   3.716552   1.485716   0.000000
     5  O    3.356655   4.359457   2.332029   1.193622   0.000000
     6  O    3.521900   4.550095   2.397618   1.326926   2.211145
     7  C    3.589036   4.461327   2.746261   2.411611   3.518473
     8  C    3.844090   4.534187   3.335795   3.193060   4.227227
     9  H    3.076991   3.861522   2.395602   2.595156   3.767949
    10  H    4.621710   5.490361   3.726538   3.204488   4.191012
    11  H    4.658215   5.395419   4.047030   3.558471   4.399337
    12  H    3.136166   3.722106   2.884736   3.047038   4.026934
    13  H    4.425399   4.955755   4.092192   4.161840   5.253245
    14  O    2.585730   3.340679   1.964026   2.584089   3.351794
    15  H    2.758730   3.405290   2.305267   2.966667   3.440397
                    6          7          8          9         10
     6  O    0.000000
     7  C    1.441069   0.000000
     8  C    2.431739   1.515731   0.000000
     9  H    2.079518   1.090369   2.180719   0.000000
    10  H    2.004087   1.088823   2.164114   1.766718   0.000000
    11  H    2.663280   2.154267   1.090765   3.078243   2.503355
    12  H    2.743885   2.163172   1.091815   2.526889   3.072918
    13  H    3.370364   2.145980   1.091937   2.525699   2.501234
    14  O    3.028637   3.103612   4.258576   2.317422   3.690465
    15  H    3.690949   3.990563   5.099155   3.264152   4.596520
                   11         12         13         14         15
    11  H    0.000000
    12  H    1.773932   0.000000
    13  H    1.773211   1.768925   0.000000
    14  O    5.076971   4.205219   4.761447   0.000000
    15  H    5.881231   4.931742   5.658980   0.969480   0.000000
 Stoichiometry    C5H7O3(2)
 Framework group  C1[X(C5H7O3)]
 Deg. of freedom    39
 Full point group                 C1      NOp   1
 Largest Abelian subgroup         C1      NOp   1
 Largest concise Abelian subgroup C1      NOp   1
                         Standard orientation:                         
 ---------------------------------------------------------------------
 Center     Atomic      Atomic             Coordinates (Angstroms)
 Number     Number       Type             X           Y           Z
 ---------------------------------------------------------------------
      1          6           0        1.352211   -1.375670   -1.140773
      2          1           0        1.717446   -2.251231   -1.626714
      3          6           0        0.965167   -0.427839   -0.475320
      4          6           0        0.412897    0.924248   -0.202898
      5          8           0        1.027871    1.903218   -0.499814
      6          8           0       -0.772692    0.978846    0.390509
      7          6           0       -1.520031   -0.220067    0.674712
      8          6           0       -2.364898   -0.618329   -0.519033
      9          1           0       -0.839066   -1.011736    0.988483
     10          1           0       -2.141365    0.054446    1.525667
     11          1           0       -3.017829    0.203963   -0.814471
     12          1           0       -1.737836   -0.891360   -1.370096
     13          1           0       -2.983561   -1.480253   -0.260831
     14          8           0        1.437165   -0.836824    1.386761
     15          1           0        2.391384   -0.679809    1.318187
 ---------------------------------------------------------------------
 Rotational constants (GHZ):           2.4158538           1.6885692           1.4088436
 Standard basis: 6-311++G(d,p) (5D, 7F)
 There are   233 symmetry adapted cartesian basis functions of A   symmetry.
 There are   225 symmetry adapted basis functions of A   symmetry.
   225 basis functions,   351 primitive gaussians,   233 cartesian basis functions
    31 alpha electrons       30 beta electrons
       nuclear repulsion energy       366.4910915223 Hartrees.
 NAtoms=   15 NActive=   15 NUniq=   15 SFac= 1.00D+00 NAtFMM=   60 NAOKFM=F Big=F
 Integral buffers will be    131072 words long.
 Raffenetti 2 integral format.
 Two-electron integral symmetry is turned on.
 One-electron integrals computed using PRISM.
 NBasis=   225 RedAO= T EigKep=  3.38D-06  NBF=   225
 NBsUse=   225 1.00D-06 EigRej= -1.00D+00 NBFU=   225
 ExpMin= 3.60D-02 ExpMax= 8.59D+03 ExpMxC= 1.30D+03 IAcc=3 IRadAn=         5 AccDes= 0.00D+00
 Harris functional with IExCor=  205 and IRadAn=       5 diagonalized for initial guess.
 HarFok:  IExCor=  205 AccDes= 0.00D+00 IRadAn=         5 IDoV= 1 UseB2=F ITyADJ=14
 ICtDFT=  3500011 ScaDFX=  1.000000  1.000000  1.000000  1.000000
 FoFCou: FMM=F IPFlag=           0 FMFlag=      100000 FMFlg1=           0
         NFxFlg=           0 DoJE=T BraDBF=F KetDBF=T FulRan=T
         wScrn=  0.000000 ICntrl=       500 IOpCl=  0 I1Cent=   200000004 NGrid=           0
         NMat0=    1 NMatS0=      1 NMatT0=    0 NMatD0=    1 NMtDS0=    0 NMtDT0=    0
 Petite list used in FoFCou.
 Initial guess <Sx>= 0.0000 <Sy>= 0.0000 <Sz>= 0.5000 <S**2>= 0.7500 S= 0.5000
 Requested convergence on RMS density matrix=1.00D-08 within 128 cycles.
 Requested convergence on MAX density matrix=1.00D-06.
 Requested convergence on             energy=1.00D-06.
 No special actions if energy rises.
 Initial convergence to 1.0D-05 achieved.  Increase integral accuracy.
 SCF Done:  E(UHF) =  -417.968497655     A.U. after   35 cycles
            NFock= 35  Conv=0.79D-08     -V/T= 2.0006
 <Sx>= 0.0000 <Sy>= 0.0000 <Sz>= 0.5000 <S**2>= 1.0470 S= 0.6388
 <L.S>=  0.00000000000    
 Annihilation of the first spin contaminant:
 S**2 before annihilation     1.0470,   after     0.8058
 ExpMin= 3.60D-02 ExpMax= 8.59D+03 ExpMxC= 1.30D+03 IAcc=3 IRadAn=         5 AccDes= 0.00D+00
 HarFok:  IExCor=  205 AccDes= 0.00D+00 IRadAn=         5 IDoV=-2 UseB2=F ITyADJ=14
 ICtDFT= 12500011 ScaDFX=  1.000000  1.000000  1.000000  1.000000
 Range of M.O.s used for correlation:     9   225
 NBasis=   225 NAE=    31 NBE=    30 NFC=     8 NFV=     0
 NROrb=    217 NOA=    23 NOB=    22 NVA=   194 NVB=   195

 **** Warning!!: The largest alpha MO coefficient is  0.18706150D+03


 **** Warning!!: The largest beta MO coefficient is  0.16792545D+03

 Semi-Direct transformation.
 ModeAB=           4 MOrb=            23 LenV=    1609169168
 LASXX=    109339976 LTotXX=   109339976 LenRXX=   221407890
 LTotAB=   112067914 MaxLAS=   132550978 LenRXY=           0
 NonZer=   330747866 LenScr=   498067456 LnRSAI=   132550978
 LnScr1=   199606272 LExtra=           0 Total=   1051632596
 MaxDsk=          -1 SrtSym=           T ITran=            4
 JobTyp=1 Pass  1:  I=   1 to  23.
 (rs|ai) integrals will be sorted in core.
 ModeAB=           4 MOrb=            22 LenV=    1609169168
 LASXX=    104936601 LTotXX=   104936601 LenRXX=   190867446
 LTotAB=    85930845 MaxLAS=   126787892 LenRXY=           0
 NonZer=   295804047 LenScr=   445446144 LnRSAI=   126787892
 LnScr1=   190943232 LExtra=           0 Total=    954044714
 MaxDsk=          -1 SrtSym=           T ITran=            4
 JobTyp=2 Pass  1:  I=   1 to  22.
 (rs|ai) integrals will be sorted in core.
 SymMOI:  orbitals are not symmetric.
 Spin components of T(2) and E(2):
     alpha-alpha T2 =       0.5240542845D-01 E2=     -0.1704365449D+00
     alpha-beta  T2 =       0.2815298655D+00 E2=     -0.9302769658D+00
     beta-beta   T2 =       0.5016018521D-01 E2=     -0.1580299413D+00
 ANorm=    0.1176475873D+01
 E2 =    -0.1258743452D+01 EUMP2 =    -0.41922724110656D+03
 (S**2,0)=  0.10470D+01           (S**2,1)=  0.96567D+00
 E(PUHF)=      -0.41799286302D+03        E(PMP2)=      -0.41924860303D+03
 Keep R2 and R3 ints in memory in canonical form, NReq=652884060.
 CIDS: In Core Option IDoMem=           1.
 Iterations=  50 Convergence= 0.100D-06
 Produce multiple copies of IABC intergrals
 Iteration Nr.   1
 **********************
 DD1Dir will call FoFMem   1 times, MxPair=      1496
 NAB=   506 NAA=   253 NBB=   231.
 E(PMP3)=      -0.41927318034D+03
 MP4(R+Q)=  0.24680166D-01
 E3=       -0.29687509D-01        EUMP3=      -0.41925692862D+03
 E4(DQ)=   -0.58277078D-02        UMP4(DQ)=   -0.41926275632D+03
 E4(SDQ)=  -0.27887014D-01        UMP4(SDQ)=  -0.41928481563D+03
 DE(Corr)=  -1.2634822     E(Corr)=     -419.23197990    
 NORM(A)=   0.11867491D+01
 Iteration Nr.   2
 **********************
 DD1Dir will call FoFMem   1 times, MxPair=      1496
 NAB=   506 NAA=   253 NBB=   231.
 DE(Corr)=  -1.3078523     E(CORR)=     -419.27634999     Delta=-4.44D-02
 NORM(A)=   0.12095292D+01
 Iteration Nr.   3
 **********************
 DD1Dir will call FoFMem   1 times, MxPair=      1496
 NAB=   506 NAA=   253 NBB=   231.
 DE(Corr)=  -1.3115355     E(CORR)=     -419.28003312     Delta=-3.68D-03
 NORM(A)=   0.12240250D+01
 Iteration Nr.   4
 **********************
 DD1Dir will call FoFMem   1 times, MxPair=      1496
 NAB=   506 NAA=   253 NBB=   231.
 DE(Corr)=  -1.3198823     E(CORR)=     -419.28837998     Delta=-8.35D-03
 NORM(A)=   0.12338548D+01
 Iteration Nr.   5
 **********************
 DD1Dir will call FoFMem   1 times, MxPair=      1496
 NAB=   506 NAA=   253 NBB=   231.
 DE(Corr)=  -1.3224776     E(CORR)=     -419.29097524     Delta=-2.60D-03
 NORM(A)=   0.12383988D+01
 Iteration Nr.   6
 **********************
 DD1Dir will call FoFMem   1 times, MxPair=      1496
 NAB=   506 NAA=   253 NBB=   231.
 DE(Corr)=  -1.3232377     E(CORR)=     -419.29173538     Delta=-7.60D-04
 NORM(A)=   0.12391137D+01
 Iteration Nr.   7
 **********************
 DD1Dir will call FoFMem   1 times, MxPair=      1496
 NAB=   506 NAA=   253 NBB=   231.
 DE(Corr)=  -1.3233386     E(CORR)=     -419.29183621     Delta=-1.01D-04
 NORM(A)=   0.12392382D+01
 Iteration Nr.   8
 **********************
 DD1Dir will call FoFMem   1 times, MxPair=      1496
 NAB=   506 NAA=   253 NBB=   231.
 DE(Corr)=  -1.3233157     E(CORR)=     -419.29181334     Delta= 2.29D-05
 NORM(A)=   0.12392559D+01
 Iteration Nr.   9
 **********************
 DD1Dir will call FoFMem   1 times, MxPair=      1496
 NAB=   506 NAA=   253 NBB=   231.
 DE(Corr)=  -1.3233288     E(CORR)=     -419.29182644     Delta=-1.31D-05
 NORM(A)=   0.12392168D+01
 Iteration Nr.  10
 **********************
 DD1Dir will call FoFMem   1 times, MxPair=      1496
 NAB=   506 NAA=   253 NBB=   231.
 DE(Corr)=  -1.3233069     E(CORR)=     -419.29180458     Delta= 2.19D-05
 NORM(A)=   0.12392022D+01
 Iteration Nr.  11
 **********************
 DD1Dir will call FoFMem   1 times, MxPair=      1496
 NAB=   506 NAA=   253 NBB=   231.
 DE(Corr)=  -1.3233264     E(CORR)=     -419.29182405     Delta=-1.95D-05
 NORM(A)=   0.12392564D+01
 Iteration Nr.  12
 **********************
 DD1Dir will call FoFMem   1 times, MxPair=      1496
 NAB=   506 NAA=   253 NBB=   231.
 DE(Corr)=  -1.3233280     E(CORR)=     -419.29182565     Delta=-1.60D-06
 NORM(A)=   0.12393552D+01
 Iteration Nr.  13
 **********************
 DD1Dir will call FoFMem   1 times, MxPair=      1496
 NAB=   506 NAA=   253 NBB=   231.
 DE(Corr)=  -1.3233493     E(CORR)=     -419.29184698     Delta=-2.13D-05
 NORM(A)=   0.12394610D+01
 Iteration Nr.  14
 **********************
 DD1Dir will call FoFMem   1 times, MxPair=      1496
 NAB=   506 NAA=   253 NBB=   231.
 DE(Corr)=  -1.3233683     E(CORR)=     -419.29186598     Delta=-1.90D-05
 NORM(A)=   0.12395355D+01
 Iteration Nr.  15
 **********************
 DD1Dir will call FoFMem   1 times, MxPair=      1496
 NAB=   506 NAA=   253 NBB=   231.
 DE(Corr)=  -1.3233790     E(CORR)=     -419.29187665     Delta=-1.07D-05
 NORM(A)=   0.12395738D+01
 Iteration Nr.  16
 **********************
 DD1Dir will call FoFMem   1 times, MxPair=      1496
 NAB=   506 NAA=   253 NBB=   231.
 DE(Corr)=  -1.3233871     E(CORR)=     -419.29188471     Delta=-8.06D-06
 NORM(A)=   0.12395839D+01
 Iteration Nr.  17
 **********************
 DD1Dir will call FoFMem   1 times, MxPair=      1496
 NAB=   506 NAA=   253 NBB=   231.
 DE(Corr)=  -1.3233869     E(CORR)=     -419.29188460     Delta= 1.07D-07
 NORM(A)=   0.12395824D+01
 Iteration Nr.  18
 **********************
 DD1Dir will call FoFMem   1 times, MxPair=      1496
 NAB=   506 NAA=   253 NBB=   231.
 DE(Corr)=  -1.3233866     E(CORR)=     -419.29188422     Delta= 3.79D-07
 NORM(A)=   0.12395773D+01
 Iteration Nr.  19
 **********************
 DD1Dir will call FoFMem   1 times, MxPair=      1496
 NAB=   506 NAA=   253 NBB=   231.
 DE(Corr)=  -1.3233849     E(CORR)=     -419.29188260     Delta= 1.62D-06
 NORM(A)=   0.12395735D+01
 Iteration Nr.  20
 **********************
 DD1Dir will call FoFMem   1 times, MxPair=      1496
 NAB=   506 NAA=   253 NBB=   231.
 DE(Corr)=  -1.3233840     E(CORR)=     -419.29188162     Delta= 9.82D-07
 NORM(A)=   0.12395705D+01
 Iteration Nr.  21
 **********************
 DD1Dir will call FoFMem   1 times, MxPair=      1496
 NAB=   506 NAA=   253 NBB=   231.
 DE(Corr)=  -1.3233832     E(CORR)=     -419.29188081     Delta= 8.16D-07
 NORM(A)=   0.12395707D+01
 Iteration Nr.  22
 **********************
 DD1Dir will call FoFMem   1 times, MxPair=      1496
 NAB=   506 NAA=   253 NBB=   231.
 DE(Corr)=  -1.3233830     E(CORR)=     -419.29188070     Delta= 1.08D-07
 NORM(A)=   0.12395733D+01
 Iteration Nr.  23
 **********************
 DD1Dir will call FoFMem   1 times, MxPair=      1496
 NAB=   506 NAA=   253 NBB=   231.
 DE(Corr)=  -1.3233835     E(CORR)=     -419.29188114     Delta=-4.45D-07
 NORM(A)=   0.12395773D+01
 Iteration Nr.  24
 **********************
 DD1Dir will call FoFMem   1 times, MxPair=      1496
 NAB=   506 NAA=   253 NBB=   231.
 DE(Corr)=  -1.3233841     E(CORR)=     -419.29188175     Delta=-6.03D-07
 NORM(A)=   0.12395807D+01
 Iteration Nr.  25
 **********************
 DD1Dir will call FoFMem   1 times, MxPair=      1496
 NAB=   506 NAA=   253 NBB=   231.
 DE(Corr)=  -1.3233847     E(CORR)=     -419.29188240     Delta=-6.51D-07
 NORM(A)=   0.12395825D+01
 Iteration Nr.  26
 **********************
 DD1Dir will call FoFMem   1 times, MxPair=      1496
 NAB=   506 NAA=   253 NBB=   231.
 DE(Corr)=  -1.3233849     E(CORR)=     -419.29188260     Delta=-2.07D-07
 NORM(A)=   0.12395831D+01
 Iteration Nr.  27
 **********************
 DD1Dir will call FoFMem   1 times, MxPair=      1496
 NAB=   506 NAA=   253 NBB=   231.
 DE(Corr)=  -1.3233850     E(CORR)=     -419.29188269     Delta=-8.95D-08
 NORM(A)=   0.12395829D+01
 Wavefunction amplitudes converged. E(Corr)=     -419.29188269    
 Largest amplitude= 5.73D-02
 Time for triples=    36219.52 seconds.
 T4(CCSD)= -0.59361243D-01
 T5(CCSD)=  0.43473346D-02
 CCSD(T)= -0.41934689660D+03

 S**2, projected HF & approx projected MPn energies after annihilation of
 unwanted spin states (see manual for definitions):

 spins       (S**2,0) (S**2,1)    PUHF        PMP2        PMP3        PMP4
 annihilated
 s+1         0.71726  0.73730 -417.992863 -419.248603 -419.273180
 s+1,s+2     0.75068  0.74990 -417.990664 -419.246514 -419.271238
 s+1 to s+3  0.74999  0.75000 -417.990718 -419.246553 -419.271254
 s+1 to s+4  0.75000  0.75000 -417.990717 -419.246552 -419.271254
 s+1 to s+5  0.75000  0.75000 -417.990717
 s+1 to s+6  0.75000  0.75000 -417.990717

 Discarding MO integrals.

 **********************************************************************

            Population analysis using the SCF density.

 **********************************************************************

 Orbital symmetries:
 Alpha Orbitals:
       Occupied  (A) (A) (A) (A) (A) (A) (A) (A) (A) (A) (A) (A)
                 (A) (A) (A) (A) (A) (A) (A) (A) (A) (A) (A) (A)
                 (A) (A) (A) (A) (A) (A) (A)
       Virtual   (A) (A) (A) (A) (A) (A) (A) (A) (A) (A) (A) (A)
                 (A) (A) (A) (A) (A) (A) (A) (A) (A) (A) (A) (A)
                 (A) (A) (A) (A) (A) (A) (A) (A) (A) (A) (A) (A)
                 (A) (A) (A) (A) (A) (A) (A) (A) (A) (A) (A) (A)
                 (A) (A) (A) (A) (A) (A) (A) (A) (A) (A) (A) (A)
                 (A) (A) (A) (A) (A) (A) (A) (A) (A) (A) (A) (A)
                 (A) (A) (A) (A) (A) (A) (A) (A) (A) (A) (A) (A)
                 (A) (A) (A) (A) (A) (A) (A) (A) (A) (A) (A) (A)
                 (A) (A) (A) (A) (A) (A) (A) (A) (A) (A) (A) (A)
                 (A) (A) (A) (A) (A) (A) (A) (A) (A) (A) (A) (A)
                 (A) (A) (A) (A) (A) (A) (A) (A) (A) (A) (A) (A)
                 (A) (A) (A) (A) (A) (A) (A) (A) (A) (A) (A) (A)
                 (A) (A) (A) (A) (A) (A) (A) (A) (A) (A) (A) (A)
                 (A) (A) (A) (A) (A) (A) (A) (A) (A) (A) (A) (A)
                 (A) (A) (A) (A) (A) (A) (A) (A) (A) (A) (A) (A)
                 (A) (A) (A) (A) (A) (A) (A) (A) (A) (A) (A) (A)
                 (A) (A)
 Beta  Orbitals:
       Occupied  (A) (A) (A) (A) (A) (A) (A) (A) (A) (A) (A) (A)
                 (A) (A) (A) (A) (A) (A) (A) (A) (A) (A) (A) (A)
                 (A) (A) (A) (A) (A) (A)
       Virtual   (A) (A) (A) (A) (A) (A) (A) (A) (A) (A) (A) (A)
                 (A) (A) (A) (A) (A) (A) (A) (A) (A) (A) (A) (A)
                 (A) (A) (A) (A) (A) (A) (A) (A) (A) (A) (A) (A)
                 (A) (A) (A) (A) (A) (A) (A) (A) (A) (A) (A) (A)
                 (A) (A) (A) (A) (A) (A) (A) (A) (A) (A) (A) (A)
                 (A) (A) (A) (A) (A) (A) (A) (A) (A) (A) (A) (A)
                 (A) (A) (A) (A) (A) (A) (A) (A) (A) (A) (A) (A)
                 (A) (A) (A) (A) (A) (A) (A) (A) (A) (A) (A) (A)
                 (A) (A) (A) (A) (A) (A) (A) (A) (A) (A) (A) (A)
                 (A) (A) (A) (A) (A) (A) (A) (A) (A) (A) (A) (A)
                 (A) (A) (A) (A) (A) (A) (A) (A) (A) (A) (A) (A)
                 (A) (A) (A) (A) (A) (A) (A) (A) (A) (A) (A) (A)
                 (A) (A) (A) (A) (A) (A) (A) (A) (A) (A) (A) (A)
                 (A) (A) (A) (A) (A) (A) (A) (A) (A) (A) (A) (A)
                 (A) (A) (A) (A) (A) (A) (A) (A) (A) (A) (A) (A)
                 (A) (A) (A) (A) (A) (A) (A) (A) (A) (A) (A) (A)
                 (A) (A) (A)
 The electronic state is 2-A.
 Alpha  occ. eigenvalues --  -20.63075 -20.60716 -20.54987 -11.41331 -11.29908
 Alpha  occ. eigenvalues --  -11.28221 -11.27581 -11.23179  -1.47407  -1.38930
 Alpha  occ. eigenvalues --   -1.37609  -1.08405  -1.04782  -0.91499  -0.87591
 Alpha  occ. eigenvalues --   -0.75951  -0.73197  -0.70003  -0.68630  -0.66592
 Alpha  occ. eigenvalues --   -0.64904  -0.62675  -0.57876  -0.56365  -0.54485
 Alpha  occ. eigenvalues --   -0.54133  -0.50586  -0.47198  -0.45296  -0.43930
 Alpha  occ. eigenvalues --   -0.42815
 Alpha virt. eigenvalues --    0.03209   0.04573   0.05267   0.06528   0.06977
 Alpha virt. eigenvalues --    0.08547   0.09163   0.10841   0.11042   0.11772
 Alpha virt. eigenvalues --    0.13160   0.13968   0.14575   0.14775   0.16256
 Alpha virt. eigenvalues --    0.17210   0.17387   0.17572   0.19151   0.19563
 Alpha virt. eigenvalues --    0.19813   0.20314   0.21388   0.22023   0.22637
 Alpha virt. eigenvalues --    0.23595   0.24565   0.26384   0.27265   0.29820
 Alpha virt. eigenvalues --    0.30484   0.30937   0.31394   0.32359   0.33645
 Alpha virt. eigenvalues --    0.35866   0.36225   0.37202   0.38166   0.40328
 Alpha virt. eigenvalues --    0.41372   0.41509   0.42754   0.43461   0.44213
 Alpha virt. eigenvalues --    0.44852   0.45633   0.47150   0.47964   0.49813
 Alpha virt. eigenvalues --    0.51964   0.53526   0.57301   0.59811   0.62087
 Alpha virt. eigenvalues --    0.63239   0.65075   0.65525   0.70691   0.73091
 Alpha virt. eigenvalues --    0.74321   0.76226   0.79483   0.81998   0.82694
 Alpha virt. eigenvalues --    0.85496   0.85747   0.86868   0.86941   0.88510
 Alpha virt. eigenvalues --    0.89638   0.92431   0.93472   0.95215   0.97747
 Alpha virt. eigenvalues --    0.99033   1.02301   1.07126   1.10511   1.16882
 Alpha virt. eigenvalues --    1.18682   1.22508   1.26353   1.29562   1.32982
 Alpha virt. eigenvalues --    1.33694   1.36496   1.39676   1.42027   1.44332
 Alpha virt. eigenvalues --    1.46819   1.48565   1.49675   1.50149   1.52177
 Alpha virt. eigenvalues --    1.56462   1.57798   1.58845   1.61869   1.66015
 Alpha virt. eigenvalues --    1.66753   1.69289   1.71798   1.77080   1.78541
 Alpha virt. eigenvalues --    1.80911   1.83519   1.85033   1.85878   1.87858
 Alpha virt. eigenvalues --    1.89513   1.92539   1.94522   1.95121   2.01289
 Alpha virt. eigenvalues --    2.02503   2.03338   2.07720   2.10817   2.15131
 Alpha virt. eigenvalues --    2.17050   2.20081   2.25878   2.28814   2.31635
 Alpha virt. eigenvalues --    2.35126   2.38458   2.42757   2.49003   2.59384
 Alpha virt. eigenvalues --    2.62776   2.65415   2.74169   2.81870   2.82435
 Alpha virt. eigenvalues --    2.84619   2.85502   2.87770   2.91968   2.93921
 Alpha virt. eigenvalues --    2.95597   2.98871   3.00214   3.03216   3.06657
 Alpha virt. eigenvalues --    3.10643   3.13037   3.15795   3.16841   3.23151
 Alpha virt. eigenvalues --    3.24616   3.28296   3.31441   3.35596   3.39892
 Alpha virt. eigenvalues --    3.43456   3.45393   3.47335   3.48731   3.56315
 Alpha virt. eigenvalues --    3.60397   3.65737   3.67262   3.73714   3.77023
 Alpha virt. eigenvalues --    3.79554   3.86757   3.98261   4.14632   4.21036
 Alpha virt. eigenvalues --    4.21977   4.24226   4.26940   4.42639   4.50890
 Alpha virt. eigenvalues --    4.52277   4.70393   5.54922   5.55871   5.61730
 Alpha virt. eigenvalues --    5.66348   5.74185   5.90003   6.04395   6.18086
 Alpha virt. eigenvalues --    6.47475  24.68210  24.99649  25.02876  25.13560
 Alpha virt. eigenvalues --   26.08732  51.54574  51.60242  51.73617
  Beta  occ. eigenvalues --  -20.60655 -20.59399 -20.55520 -11.40928 -11.29924
  Beta  occ. eigenvalues --  -11.29576 -11.25875 -11.23177  -1.47532  -1.38398
  Beta  occ. eigenvalues --   -1.26106  -1.07371  -1.04771  -0.90661  -0.86577
  Beta  occ. eigenvalues --   -0.75305  -0.72383  -0.69681  -0.67309  -0.64562
  Beta  occ. eigenvalues --   -0.62800  -0.58304  -0.56222  -0.54554  -0.51173
  Beta  occ. eigenvalues --   -0.50716  -0.48671  -0.46607  -0.45095  -0.42923
  Beta virt. eigenvalues --    0.03297   0.03857   0.04572   0.06526   0.06698
  Beta virt. eigenvalues --    0.07621   0.08477   0.09976   0.11158   0.11609
  Beta virt. eigenvalues --    0.11772   0.13627   0.14374   0.14916   0.15337
  Beta virt. eigenvalues --    0.16771   0.17403   0.17649   0.17714   0.19188
  Beta virt. eigenvalues --    0.19884   0.20044   0.20436   0.21730   0.22636
  Beta virt. eigenvalues --    0.22911   0.23745   0.24669   0.26666   0.26940
  Beta virt. eigenvalues --    0.29833   0.30634   0.31549   0.32068   0.33360
  Beta virt. eigenvalues --    0.34389   0.36152   0.36427   0.38081   0.38408
  Beta virt. eigenvalues --    0.40180   0.41443   0.41647   0.42984   0.43586
  Beta virt. eigenvalues --    0.44331   0.44969   0.45893   0.47153   0.47889
  Beta virt. eigenvalues --    0.50756   0.52019   0.53821   0.57349   0.60287
  Beta virt. eigenvalues --    0.62053   0.63638   0.65180   0.65598   0.71072
  Beta virt. eigenvalues --    0.74018   0.76248   0.77702   0.80841   0.81362
  Beta virt. eigenvalues --    0.84008   0.84996   0.86149   0.86864   0.87588
  Beta virt. eigenvalues --    0.88206   0.89191   0.92212   0.93594   0.95235
  Beta virt. eigenvalues --    0.97316   0.99336   1.02570   1.07290   1.11305
  Beta virt. eigenvalues --    1.17552   1.18831   1.22577   1.26907   1.30420
  Beta virt. eigenvalues --    1.34275   1.36008   1.38336   1.40713   1.43237
  Beta virt. eigenvalues --    1.44990   1.47694   1.48955   1.50272   1.50792
  Beta virt. eigenvalues --    1.53720   1.58111   1.58799   1.59660   1.62388
  Beta virt. eigenvalues --    1.67364   1.67649   1.70169   1.71847   1.78506
  Beta virt. eigenvalues --    1.79715   1.80875   1.83527   1.85196   1.85592
  Beta virt. eigenvalues --    1.87789   1.89256   1.92627   1.94569   1.95129
  Beta virt. eigenvalues --    2.01299   2.02494   2.03197   2.07811   2.11064
  Beta virt. eigenvalues --    2.15200   2.17405   2.20595   2.25973   2.29118
  Beta virt. eigenvalues --    2.32020   2.36307   2.38589   2.42784   2.49047
  Beta virt. eigenvalues --    2.59397   2.62760   2.65321   2.74176   2.81865
  Beta virt. eigenvalues --    2.82458   2.84657   2.85566   2.88160   2.92067
  Beta virt. eigenvalues --    2.93890   2.95611   2.99490   3.00560   3.03735
  Beta virt. eigenvalues --    3.07081   3.10767   3.15312   3.18562   3.22520
  Beta virt. eigenvalues --    3.23353   3.24881   3.27701   3.32387   3.38802
  Beta virt. eigenvalues --    3.40658   3.45771   3.47997   3.49824   3.52246
  Beta virt. eigenvalues --    3.56928   3.61008   3.67250   3.67387   3.73466
  Beta virt. eigenvalues --    3.77795   3.78819   3.87545   3.98055   4.14325
  Beta virt. eigenvalues --    4.21090   4.21965   4.24193   4.29714   4.42602
  Beta virt. eigenvalues --    4.50695   4.52292   4.70426   5.57090   5.61914
  Beta virt. eigenvalues --    5.64918   5.66858   5.74278   5.90003   6.06741
  Beta virt. eigenvalues --    6.17947   6.47414  24.68104  24.99862  25.02946
  Beta virt. eigenvalues --   25.13561  26.09023  51.56575  51.60325  51.73356
          Condensed to atoms (all electrons):
               1          2          3          4          5          6
     1  C   18.617113   0.473169  -6.748330  -5.127264  -0.225337  -0.180883
     2  H    0.473169   0.403857  -0.119464   0.004330  -0.003930  -0.003098
     3  C   -6.748330  -0.119464  12.208699  -0.009131   0.074291  -0.118641
     4  C   -5.127264   0.004330  -0.009131  10.540770   0.488672   0.240977
     5  O   -0.225337  -0.003930   0.074291   0.488672   8.063199  -0.054197
     6  O   -0.180883  -0.003098  -0.118641   0.240977  -0.054197   8.181766
     7  C    0.211177  -0.008879  -0.165327  -0.159077  -0.019172   0.258640
     8  C   -0.150908   0.006459   0.045506   0.105697   0.018031  -0.152458
     9  H   -0.099415  -0.001014   0.037350   0.022631   0.002442  -0.008563
    10  H    0.074868  -0.000405   0.032500  -0.091296  -0.002860  -0.074919
    11  H   -0.030946   0.000491  -0.011158   0.036685   0.000730  -0.008147
    12  H    0.020813  -0.004444   0.048341  -0.065461   0.000095  -0.005644
    13  H    0.010787  -0.000187   0.010095  -0.020414   0.000232   0.014872
    14  O   -0.294621  -0.003657   0.313339  -0.119348  -0.011178   0.017801
    15  H   -0.028801  -0.000796   0.016385   0.059248  -0.004245  -0.001861
               7          8          9         10         11         12
     1  C    0.211177  -0.150908  -0.099415   0.074868  -0.030946   0.020813
     2  H   -0.008879   0.006459  -0.001014  -0.000405   0.000491  -0.004444
     3  C   -0.165327   0.045506   0.037350   0.032500  -0.011158   0.048341
     4  C   -0.159077   0.105697   0.022631  -0.091296   0.036685  -0.065461
     5  O   -0.019172   0.018031   0.002442  -0.002860   0.000730   0.000095
     6  O    0.258640  -0.152458  -0.008563  -0.074919  -0.008147  -0.005644
     7  C    5.601031  -0.174637   0.403034   0.474050  -0.049876  -0.024492
     8  C   -0.174637   5.580691  -0.031289  -0.086324   0.441469   0.366575
     9  H    0.403034  -0.031289   0.529916  -0.035962  -0.002083  -0.000862
    10  H    0.474050  -0.086324  -0.035962   0.529867  -0.005027   0.009327
    11  H   -0.049876   0.441469  -0.002083  -0.005027   0.535830  -0.046091
    12  H   -0.024492   0.366575  -0.000862   0.009327  -0.046091   0.617176
    13  H   -0.053205   0.412258  -0.002045  -0.000515  -0.031461  -0.037607
    14  O   -0.036171   0.011957   0.007254  -0.005464   0.000001  -0.000032
    15  H    0.001183  -0.000427  -0.004174  -0.000089   0.000268  -0.000289
              13         14         15
     1  C    0.010787  -0.294621  -0.028801
     2  H   -0.000187  -0.003657  -0.000796
     3  C    0.010095   0.313339   0.016385
     4  C   -0.020414  -0.119348   0.059248
     5  O    0.000232  -0.011178  -0.004245
     6  O    0.014872   0.017801  -0.001861
     7  C   -0.053205  -0.036171   0.001183
     8  C    0.412258   0.011957  -0.000427
     9  H   -0.002045   0.007254  -0.004174
    10  H   -0.000515  -0.005464  -0.000089
    11  H   -0.031461   0.000001   0.000268
    12  H   -0.037607  -0.000032  -0.000289
    13  H    0.568206  -0.000267  -0.000241
    14  O   -0.000267   8.035542   0.256452
    15  H   -0.000241   0.256452   0.453580
          Atomic-Atomic Spin Densities.
               1          2          3          4          5          6
     1  C    1.347409   0.001251  -0.166124   0.268333   0.010780  -0.013750
     2  H    0.001251  -0.068822  -0.014470   0.004843  -0.000086  -0.000418
     3  C   -0.166124  -0.014470  -0.882889  -0.080957   0.020356   0.026130
     4  C    0.268333   0.004843  -0.080957  -0.077425   0.001821  -0.042302
     5  O    0.010780  -0.000086   0.020356   0.001821  -0.145577  -0.001695
     6  O   -0.013750  -0.000418   0.026130  -0.042302  -0.001695   0.036914
     7  C   -0.048224  -0.001664   0.010108   0.020324   0.002992  -0.006393
     8  C    0.020695   0.001009  -0.011349  -0.005096  -0.001153   0.001699
     9  H    0.012077   0.000427   0.013496  -0.006295   0.000348   0.001565
    10  H   -0.010567  -0.000221  -0.004202   0.015419   0.000287  -0.001261
    11  H    0.002943  -0.000004   0.002134  -0.005231  -0.000125   0.000089
    12  H   -0.015292  -0.001055   0.015037   0.004527  -0.000063  -0.000205
    13  H    0.002467   0.000168  -0.002342  -0.000245  -0.000008  -0.000050
    14  O   -0.284800  -0.005943   0.131269   0.108816   0.001303  -0.001641
    15  H    0.038651   0.000816  -0.033220  -0.014001   0.000137   0.000717
               7          8          9         10         11         12
     1  C   -0.048224   0.020695   0.012077  -0.010567   0.002943  -0.015292
     2  H   -0.001664   0.001009   0.000427  -0.000221  -0.000004  -0.001055
     3  C    0.010108  -0.011349   0.013496  -0.004202   0.002134   0.015037
     4  C    0.020324  -0.005096  -0.006295   0.015419  -0.005231   0.004527
     5  O    0.002992  -0.001153   0.000348   0.000287  -0.000125  -0.000063
     6  O   -0.006393   0.001699   0.001565  -0.001261   0.000089  -0.000205
     7  C    0.024326  -0.010540  -0.015560   0.007564  -0.001741   0.001182
     8  C   -0.010540   0.007494   0.006991  -0.005849   0.001465  -0.002651
     9  H   -0.015560   0.006991   0.008417  -0.003885   0.000380  -0.001569
    10  H    0.007564  -0.005849  -0.003885   0.001488   0.000641   0.000334
    11  H   -0.001741   0.001465   0.000380   0.000641  -0.000756   0.000288
    12  H    0.001182  -0.002651  -0.001569   0.000334   0.000288   0.001233
    13  H    0.000597  -0.000908   0.000474  -0.000624   0.000195  -0.000164
    14  O    0.013635  -0.006449  -0.013520  -0.001024   0.000316   0.001442
    15  H   -0.001710   0.000543   0.001313   0.000139  -0.000035  -0.000174
              13         14         15
     1  C    0.002467  -0.284800   0.038651
     2  H    0.000168  -0.005943   0.000816
     3  C   -0.002342   0.131269  -0.033220
     4  C   -0.000245   0.108816  -0.014001
     5  O   -0.000008   0.001303   0.000137
     6  O   -0.000050  -0.001641   0.000717
     7  C    0.000597   0.013635  -0.001710
     8  C   -0.000908  -0.006449   0.000543
     9  H    0.000474  -0.013520   0.001313
    10  H   -0.000624  -0.001024   0.000139
    11  H    0.000195   0.000316  -0.000035
    12  H   -0.000164   0.001442  -0.000174
    13  H    0.000158  -0.000508   0.000041
    14  O   -0.000508   0.892617   0.015606
    15  H    0.000041   0.015606  -0.042218
 Mulliken charges and spin densities:
               1          2
     1  C   -0.521422   1.165850
     2  H    0.257568  -0.084167
     3  C    0.385543  -0.977023
     4  C    0.092981   0.192531
     5  O   -0.326771  -0.110683
     6  O   -0.105647  -0.000602
     7  C   -0.258279  -0.005103
     8  C   -0.392600  -0.004100
     9  H    0.182781   0.004658
    10  H    0.182248  -0.001762
    11  H    0.169314   0.000558
    12  H    0.122594   0.002869
    13  H    0.129492  -0.000748
    14  O   -0.171607   0.851120
    15  H    0.253806  -0.033398
 Sum of Mulliken charges =  -0.00000   1.00000
 Mulliken charges and spin densities with hydrogens summed into heavy atoms:
               1          2
     1  C   -0.263854   1.081683
     3  C    0.385543  -0.977023
     4  C    0.092981   0.192531
     5  O   -0.326771  -0.110683
     6  O   -0.105647  -0.000602
     7  C    0.106750  -0.002207
     8  C    0.028799  -0.001421
    14  O    0.082199   0.817723
 Electronic spatial extent (au):  <R**2>=            975.8764
 Charge=             -0.0000 electrons
 Dipole moment (field-independent basis, Debye):
    X=             -0.3558    Y=             -4.6682    Z=             -0.2284  Tot=              4.6873
 Quadrupole moment (field-independent basis, Debye-Ang):
   XX=            -39.2586   YY=            -53.0596   ZZ=            -46.4009
   XY=             -4.8885   XZ=              0.3981   YZ=              4.5124
 Traceless Quadrupole moment (field-independent basis, Debye-Ang):
   XX=              6.9811   YY=             -6.8199   ZZ=             -0.1612
   XY=             -4.8885   XZ=              0.3981   YZ=              4.5124
 Octapole moment (field-independent basis, Debye-Ang**2):
  XXX=             13.7015  YYY=            -18.6477  ZZZ=              6.2818  XYY=              1.0082
  XXY=            -11.9129  XXZ=             12.2725  XZZ=              3.9929  YZZ=             -2.7469
  YYZ=             -4.0704  XYZ=              9.0706
 Hexadecapole moment (field-independent basis, Debye-Ang**3):
 XXXX=           -585.1914 YYYY=           -381.8045 ZZZZ=           -233.3431 XXXY=            -25.6551
 XXXZ=             26.6519 YYYX=            -29.6553 YYYZ=             22.4516 ZZZX=              3.3051
 ZZZY=              4.0296 XXYY=           -162.7613 XXZZ=           -129.6123 YYZZ=            -91.7531
 XXYZ=              5.2791 YYXZ=             -9.8604 ZZXY=            -13.1695
 N-N= 3.664910915223D+02 E-N=-1.715910753364D+03  KE= 4.177179539162D+02
 1\1\GINC-AJ\SP\UCCSD(T)-FC\6-311++G(d,p)\C5H7O3(2)\AAYUSH\12-May-2025\
 0\\# ccsd(t)/6-311++g(d,p) sp\\Title Card Required\\0,2\C,0,1.29458,-1
 .423552,-1.148862\H,0,1.659701,-2.297426,-1.637915\C,0,0.907859,-0.477
 954,-0.480053\C,0,0.355078,0.872949,-0.202839\O,0,0.968969,1.853207,-0
 .49774\O,0,-0.829693,0.924994,0.392428\C,0,-1.575821,-0.275257,0.67415
 6\C,0,-2.422137,-0.670555,-0.519548\H,0,-0.893876,-1.067392,0.984605\H
 ,0,-2.196114,-0.00368,1.52681\H,0,-3.076042,0.152168,-0.811614\H,0,-1.
 796117,-0.940646,-1.372314\H,0,-3.039852,-1.533655,-0.263009\O,0,1.382
 807,-0.892127,1.380131\H,0,2.336822,-0.734268,1.310652\\Version=ES64L-
 G16RevA.03\State=2-A\HF=-417.9684977\MP2=-419.2272411\MP3=-419.2569286
 \MP4D=-419.2874365\MP4DQ=-419.2627563\PUHF=-417.992863\PMP2-0=-419.248
 603\PMP3-0=-419.2731803\MP4SDQ=-419.2848156\CCSD=-419.2918827\CCSD(T)=
 -419.3468966\S2=1.046954\S2-1=0.965674\S2A=0.805779\RMSD=7.946e-09\PG=
 C01 [X(C5H7O3)]\\@


 QUANTUM MECHANICS IS BOHRING -- M.S. GORDON
 Job cpu time:       0 days 19 hours 59 minutes 55.2 seconds.
 Elapsed time:       0 days  0 hours 50 minutes 13.1 seconds.
 File lengths (MBytes):  RWF=  44733 Int=      0 D2E=      0 Chk=      6 Scr=      1
 Normal termination of Gaussian 16 at Mon May 12 16:37:53 2025.
