 Entering Gaussian System, Link 0=g16
 Initial command:
 /opt/g16/l1.exe "/home/loki/Research/Transition_states/Addition/ts3_irc_points/Gau-419418.inp" -scrdir="/home/loki/Research/Transition_states/Addition/ts3_irc_points/"
 Entering Link 1 = /opt/g16/l1.exe PID=    419421.
  
 Copyright (c) 1988,1990,1992,1993,1995,1998,2003,2009,2016,
            Gaussian, Inc.  All Rights Reserved.
  
 This is part of the Gaussian(R) 16 program.  It is based on
 the Gaussian(R) 09 system (copyright 2009, Gaussian, Inc.),
 the Gaussian(R) 03 system (copyright 2003, Gaussian, Inc.),
 the Gaussian(R) 98 system (copyright 1998, Gaussian, Inc.),
 the Gaussian(R) 94 system (copyright 1995, Gaussian, Inc.),
 the Gaussian 92(TM) system (copyright 1992, Gaussian, Inc.),
 the Gaussian 90(TM) system (copyright 1990, Gaussian, Inc.),
 the Gaussian 88(TM) system (copyright 1988, Gaussian, Inc.),
 the Gaussian 86(TM) system (copyright 1986, Carnegie Mellon
 University), and the Gaussian 82(TM) system (copyright 1983,
 Carnegie Mellon University). Gaussian is a federally registered
 trademark of Gaussian, Inc.
  
 This software contains proprietary and confidential information,
 including trade secrets, belonging to Gaussian, Inc.
  
 This software is provided under written license and may be
 used, copied, transmitted, or stored only in accord with that
 written license.
  
 The following legend is applicable only to US Government
 contracts under FAR:
  
                    RESTRICTED RIGHTS LEGEND
  
 Use, reproduction and disclosure by the US Government is
 subject to restrictions as set forth in subparagraphs (a)
 and (c) of the Commercial Computer Software - Restricted
 Rights clause in FAR 52.227-19.
  
 Gaussian, Inc.
 340 Quinnipiac St., Bldg. 40, Wallingford CT 06492
  
  
 ---------------------------------------------------------------
 Warning -- This program may not be used in any manner that
 competes with the business of Gaussian, Inc. or will provide
 assistance to any competitor of Gaussian, Inc.  The licensee
 of this program is prohibited from giving any competitor of
 Gaussian, Inc. access to this program.  By using this program,
 the user acknowledges that Gaussian, Inc. is engaged in the
 business of creating and licensing software in the field of
 computational chemistry and represents and warrants to the
 licensee that it is not a competitor of Gaussian, Inc. and that
 it will not use this program in any manner prohibited above.
 ---------------------------------------------------------------
  

 Cite this work as:
 Gaussian 16, Revision A.03,
 M. J. Frisch, G. W. Trucks, H. B. Schlegel, G. E. Scuseria, 
 M. A. Robb, J. R. Cheeseman, G. Scalmani, V. Barone, 
 G. A. Petersson, H. Nakatsuji, X. Li, M. Caricato, A. V. Marenich, 
 J. Bloino, B. G. Janesko, R. Gomperts, B. Mennucci, H. P. Hratchian, 
 J. V. Ortiz, A. F. Izmaylov, J. L. Sonnenberg, D. Williams-Young, 
 F. Ding, F. Lipparini, F. Egidi, J. Goings, B. Peng, A. Petrone, 
 T. Henderson, D. Ranasinghe, V. G. Zakrzewski, J. Gao, N. Rega, 
 G. Zheng, W. Liang, M. Hada, M. Ehara, K. Toyota, R. Fukuda, 
 J. Hasegawa, M. Ishida, T. Nakajima, Y. Honda, O. Kitao, H. Nakai, 
 T. Vreven, K. Throssell, J. A. Montgomery, Jr., J. E. Peralta, 
 F. Ogliaro, M. J. Bearpark, J. J. Heyd, E. N. Brothers, K. N. Kudin, 
 V. N. Staroverov, T. A. Keith, R. Kobayashi, J. Normand, 
 K. Raghavachari, A. P. Rendell, J. C. Burant, S. S. Iyengar, 
 J. Tomasi, M. Cossi, J. M. Millam, M. Klene, C. Adamo, R. Cammi, 
 J. W. Ochterski, R. L. Martin, K. Morokuma, O. Farkas, 
 J. B. Foresman, and D. J. Fox, Gaussian, Inc., Wallingford CT, 2016.
 
 ******************************************
 Gaussian 16:  ES64L-G16RevA.03 25-Dec-2016
                28-Mar-2025 
 ******************************************
 %chk=ethyl_propiolate.chk
 %nprocshared=6
 Will use up to    6 processors via shared memory.
 %mem=12GB
 --------------------------
 # freq 6-311++g(d,p) m062x
 --------------------------
 1/10=4,30=1,38=1/1,3;
 2/12=2,17=6,18=5,40=1/2;
 3/5=4,6=6,7=1111,11=2,25=1,30=1,71=2,74=-55,140=1/1,2,3;
 4//1;
 5/5=2,38=5,98=1/2;
 8/6=4,10=90,11=11/1;
 11/6=1,8=1,9=11,15=111,16=1/1,2,10;
 10/6=1/2;
 6/7=2,8=2,9=2,10=2,28=1/1;
 7/8=1,10=1,25=1/1,2,3,16;
 1/10=4,30=1/3;
 99//99;
 -------------------
 Title Card Required
 -------------------
 Symbolic Z-matrix:
 Charge =  0 Multiplicity = 2
 C                     1.29811  -1.43774  -1.14868 
 H                     1.69089  -2.33074  -1.57686 
 C                     0.84884  -0.44168  -0.64528 
 C                     0.34571   0.87805  -0.23029 
 O                     0.97138   1.86449  -0.48364 
 O                    -0.8244    0.92346   0.3983 
 C                    -1.5714   -0.27743   0.67096 
 C                    -2.42379  -0.6689   -0.51995 
 H                    -0.88708  -1.07202   0.97078 
 H                    -2.18792  -0.0117    1.52829 
 H                    -3.07894   0.15494  -0.80629 
 H                    -1.80329  -0.9386   -1.37627 
 H                    -3.04125  -1.53165  -0.26134 
 O                     1.41827  -0.91979   1.50241 
 H                     2.35642  -0.72835   1.3361 
 

 GradGradGradGradGradGradGradGradGradGradGradGradGradGradGradGradGradGrad
 Berny optimization.
 Initialization pass.
 Trust Radius=3.00D-01 FncErr=1.00D-07 GrdErr=1.00D-07 EigMax=2.50D+02 EigMin=1.00D-04
 Number of steps in this run=      2 maximum allowed number of steps=      2.
 GradGradGradGradGradGradGradGradGradGradGradGradGradGradGradGradGradGrad

                          Input orientation:                          
 ---------------------------------------------------------------------
 Center     Atomic      Atomic             Coordinates (Angstroms)
 Number     Number       Type             X           Y           Z
 ---------------------------------------------------------------------
      1          6           0        1.298112   -1.437743   -1.148681
      2          1           0        1.690886   -2.330742   -1.576864
      3          6           0        0.848841   -0.441683   -0.645276
      4          6           0        0.345714    0.878052   -0.230286
      5          8           0        0.971379    1.864488   -0.483644
      6          8           0       -0.824398    0.923457    0.398299
      7          6           0       -1.571398   -0.277433    0.670964
      8          6           0       -2.423793   -0.668898   -0.519946
      9          1           0       -0.887082   -1.072022    0.970779
     10          1           0       -2.187919   -0.011697    1.528287
     11          1           0       -3.078943    0.154935   -0.806285
     12          1           0       -1.803288   -0.938601   -1.376265
     13          1           0       -3.041252   -1.531647   -0.261337
     14          8           0        1.418268   -0.919790    1.502410
     15          1           0        2.356419   -0.728347    1.336101
 ---------------------------------------------------------------------
                    Distance matrix (angstroms):
                    1          2          3          4          5
     1  C    0.000000
     2  H    1.065392   0.000000
     3  C    1.203078   2.268356   0.000000
     4  C    2.667099   3.730834   1.472092   0.000000
     5  O    3.384340   4.394630   2.315073   1.195284   0.000000
     6  O    3.531779   4.562645   2.398413   1.329038   2.210922
     7  C    3.590476   4.462209   2.759895   2.413030   3.519469
     8  C    3.852143   4.561730   3.282905   3.185455   4.236337
     9  H    3.066094   3.836767   2.454056   2.600987   3.767269
    10  H    4.620842   5.483162   3.759146   3.209911   4.189165
    11  H    4.670382   5.433567   3.976099   3.547245   4.408149
    12  H    3.149543   3.766636   2.795543   3.038372   4.043867
    13  H    4.430155   4.976173   4.058110   4.156820   5.261593
    14  O    2.703885   3.398093   2.272749   2.717507   3.449105
    15  H    2.792382   3.390571   2.506157   3.012809   3.457253
                    6          7          8          9         10
     6  O    0.000000
     7  C    1.440310   0.000000
     8  C    2.436562   1.515945   0.000000
     9  H    2.076921   1.090665   2.178589   0.000000
    10  H    2.002642   1.088906   2.163980   1.768412   0.000000
    11  H    2.669199   2.154507   1.090831   3.076952   2.504379
    12  H    2.752192   2.163807   1.091352   2.523064   3.073030
    13  H    3.372995   2.145392   1.092003   2.523849   2.498235
    14  O    3.105829   3.168916   4.349058   2.370748   3.718856
    15  H    3.704798   4.009174   5.128243   3.282053   4.604512
                   11         12         13         14         15
    11  H    0.000000
    12  H    1.774259   0.000000
    13  H    1.772836   1.768424   0.000000
    14  O    5.168173   4.320364   4.834510   0.000000
    15  H    5.908736   4.970342   5.686119   0.971821   0.000000
 Stoichiometry    C5H7O3(2)
 Framework group  C1[X(C5H7O3)]
 Deg. of freedom    39
 Full point group                 C1      NOp   1
 Largest Abelian subgroup         C1      NOp   1
 Largest concise Abelian subgroup C1      NOp   1
                         Standard orientation:                         
 ---------------------------------------------------------------------
 Center     Atomic      Atomic             Coordinates (Angstroms)
 Number     Number       Type             X           Y           Z
 ---------------------------------------------------------------------
      1          6           0        1.345399   -1.344762   -1.204818
      2          1           0        1.736859   -2.223155   -1.663341
      3          6           0        0.897971   -0.365778   -0.667422
      4          6           0        0.393596    0.938885   -0.208602
      5          8           0        1.009981    1.935705   -0.443381
      6          8           0       -0.767452    0.959806    0.437828
      7          6           0       -1.503679   -0.252644    0.687680
      8          6           0       -2.371166   -0.615970   -0.501247
      9          1           0       -0.810636   -1.051145    0.955330
     10          1           0       -2.109095   -0.014521    1.560884
     11          1           0       -3.035014    0.211564   -0.755034
     12          1           0       -1.761730   -0.858062   -1.373616
     13          1           0       -2.979960   -1.489250   -0.257892
     14          8           0        1.501342   -0.899945    1.457665
     15          1           0        2.435883   -0.698344    1.283231
 ---------------------------------------------------------------------
 Rotational constants (GHZ):           2.3116438           1.6452598           1.3994351
 Standard basis: 6-311++G(d,p) (5D, 7F)
 There are   233 symmetry adapted cartesian basis functions of A   symmetry.
 There are   225 symmetry adapted basis functions of A   symmetry.
   225 basis functions,   351 primitive gaussians,   233 cartesian basis functions
    31 alpha electrons       30 beta electrons
       nuclear repulsion energy       362.9496707567 Hartrees.
 NAtoms=   15 NActive=   15 NUniq=   15 SFac= 1.00D+00 NAtFMM=   60 NAOKFM=F Big=F
 Integral buffers will be    131072 words long.
 Raffenetti 2 integral format.
 Two-electron integral symmetry is turned on.
 One-electron integrals computed using PRISM.
 NBasis=   225 RedAO= T EigKep=  1.28D-06  NBF=   225
 NBsUse=   225 1.00D-06 EigRej= -1.00D+00 NBFU=   225
 ExpMin= 3.60D-02 ExpMax= 8.59D+03 ExpMxC= 1.30D+03 IAcc=3 IRadAn=         5 AccDes= 0.00D+00
 Harris functional with IExCor= 1009 and IRadAn=       5 diagonalized for initial guess.
 HarFok:  IExCor= 1009 AccDes= 0.00D+00 IRadAn=         5 IDoV= 1 UseB2=F ITyADJ=14
 ICtDFT=  3500011 ScaDFX=  1.000000  1.000000  1.000000  1.000000
 FoFCou: FMM=F IPFlag=           0 FMFlag=      100000 FMFlg1=           0
         NFxFlg=           0 DoJE=T BraDBF=F KetDBF=T FulRan=T
         wScrn=  0.000000 ICntrl=       500 IOpCl=  0 I1Cent=   200000004 NGrid=           0
         NMat0=    1 NMatS0=      1 NMatT0=    0 NMatD0=    1 NMtDS0=    0 NMtDT0=    0
 Petite list used in FoFCou.
 Initial guess <Sx>= 0.0000 <Sy>= 0.0000 <Sz>= 0.5000 <S**2>= 0.7500 S= 0.5000
 Keep R1 and R2 ints in memory in canonical form, NReq=652863693.
 Requested convergence on RMS density matrix=1.00D-08 within 128 cycles.
 Requested convergence on MAX density matrix=1.00D-06.
 Requested convergence on             energy=1.00D-06.
 No special actions if energy rises.
 SCF Done:  E(UM062X) =  -420.201443223     A.U. after   27 cycles
            NFock= 27  Conv=0.71D-08     -V/T= 2.0032
 <Sx>= 0.0000 <Sy>= 0.0000 <Sz>= 0.5000 <S**2>= 0.7576 S= 0.5038
 <L.S>=  0.00000000000    
 Annihilation of the first spin contaminant:
 S**2 before annihilation     0.7576,   after     0.7500
 DoSCS=F DFT=T ScalE2(SS,OS)=  1.000000  1.000000
 Range of M.O.s used for correlation:     1   225
 NBasis=   225 NAE=    31 NBE=    30 NFC=     0 NFV=     0
 NROrb=    225 NOA=    31 NOB=    30 NVA=   194 NVB=   195

 **** Warning!!: The largest alpha MO coefficient is  0.27748854D+03


 **** Warning!!: The largest beta MO coefficient is  0.27527039D+03

 Symmetrizing basis deriv contribution to polar:
 IMax=3 JMax=2 DiffMx= 0.00D+00
 G2DrvN: will do    16 centers at a time, making    1 passes.
 Calling FoFCou, ICntrl=  3107 FMM=F I1Cent=   0 AccDes= 0.00D+00.
 End of G2Drv F.D. properties file   721 does not exist.
 End of G2Drv F.D. properties file   722 does not exist.
 End of G2Drv F.D. properties file   788 does not exist.
          IDoAtm=111111111111111
          Differentiating once with respect to electric field.
                with respect to dipole field.
          Differentiating once with respect to nuclear coordinates.
 Keep R1 and R2 ints in memory in canonical form, NReq=652870569.
          There are    48 degrees of freedom in the 1st order CPHF.  IDoFFX=6 NUNeed=     3.
     45 vectors produced by pass  0 Test12= 2.47D-14 2.08D-09 XBig12= 8.71D+01 3.18D+00.
 AX will form    45 AO Fock derivatives at one time.
     45 vectors produced by pass  1 Test12= 2.47D-14 2.08D-09 XBig12= 1.91D+01 4.88D-01.
     45 vectors produced by pass  2 Test12= 2.47D-14 2.08D-09 XBig12= 5.74D-01 1.09D-01.
     45 vectors produced by pass  3 Test12= 2.47D-14 2.08D-09 XBig12= 9.08D-03 1.51D-02.
     45 vectors produced by pass  4 Test12= 2.47D-14 2.08D-09 XBig12= 9.42D-05 1.84D-03.
     45 vectors produced by pass  5 Test12= 2.47D-14 2.08D-09 XBig12= 8.16D-07 8.98D-05.
     39 vectors produced by pass  6 Test12= 2.47D-14 2.08D-09 XBig12= 6.93D-09 7.67D-06.
     17 vectors produced by pass  7 Test12= 2.47D-14 2.08D-09 XBig12= 4.52D-11 5.40D-07.
      4 vectors produced by pass  8 Test12= 2.47D-14 2.08D-09 XBig12= 4.63D-13 4.78D-08.
      3 vectors produced by pass  9 Test12= 2.47D-14 2.08D-09 XBig12= 5.50D-15 7.19D-09.
      3 vectors produced by pass 10 Test12= 2.47D-14 2.08D-09 XBig12= 2.05D-15 7.37D-09.
      1 vectors produced by pass 11 Test12= 2.47D-14 2.08D-09 XBig12= 3.50D-16 2.93D-09.
 InvSVY:  IOpt=1 It=  1 EMax= 1.24D-14
 Solved reduced A of dimension   337 with    48 vectors.
 Isotropic polarizability for W=    0.000000       71.10 Bohr**3.
 End of Minotr F.D. properties file   721 does not exist.
 End of Minotr F.D. properties file   722 does not exist.
 End of Minotr F.D. properties file   788 does not exist.

 **********************************************************************

            Population analysis using the SCF density.

 **********************************************************************

 Orbital symmetries:
 Alpha Orbitals:
       Occupied  (A) (A) (A) (A) (A) (A) (A) (A) (A) (A) (A) (A)
                 (A) (A) (A) (A) (A) (A) (A) (A) (A) (A) (A) (A)
                 (A) (A) (A) (A) (A) (A) (A)
       Virtual   (A) (A) (A) (A) (A) (A) (A) (A) (A) (A) (A) (A)
                 (A) (A) (A) (A) (A) (A) (A) (A) (A) (A) (A) (A)
                 (A) (A) (A) (A) (A) (A) (A) (A) (A) (A) (A) (A)
                 (A) (A) (A) (A) (A) (A) (A) (A) (A) (A) (A) (A)
                 (A) (A) (A) (A) (A) (A) (A) (A) (A) (A) (A) (A)
                 (A) (A) (A) (A) (A) (A) (A) (A) (A) (A) (A) (A)
                 (A) (A) (A) (A) (A) (A) (A) (A) (A) (A) (A) (A)
                 (A) (A) (A) (A) (A) (A) (A) (A) (A) (A) (A) (A)
                 (A) (A) (A) (A) (A) (A) (A) (A) (A) (A) (A) (A)
                 (A) (A) (A) (A) (A) (A) (A) (A) (A) (A) (A) (A)
                 (A) (A) (A) (A) (A) (A) (A) (A) (A) (A) (A) (A)
                 (A) (A) (A) (A) (A) (A) (A) (A) (A) (A) (A) (A)
                 (A) (A) (A) (A) (A) (A) (A) (A) (A) (A) (A) (A)
                 (A) (A) (A) (A) (A) (A) (A) (A) (A) (A) (A) (A)
                 (A) (A) (A) (A) (A) (A) (A) (A) (A) (A) (A) (A)
                 (A) (A) (A) (A) (A) (A) (A) (A) (A) (A) (A) (A)
                 (A) (A)
 Beta  Orbitals:
       Occupied  (A) (A) (A) (A) (A) (A) (A) (A) (A) (A) (A) (A)
                 (A) (A) (A) (A) (A) (A) (A) (A) (A) (A) (A) (A)
                 (A) (A) (A) (A) (A) (A)
       Virtual   (A) (A) (A) (A) (A) (A) (A) (A) (A) (A) (A) (A)
                 (A) (A) (A) (A) (A) (A) (A) (A) (A) (A) (A) (A)
                 (A) (A) (A) (A) (A) (A) (A) (A) (A) (A) (A) (A)
                 (A) (A) (A) (A) (A) (A) (A) (A) (A) (A) (A) (A)
                 (A) (A) (A) (A) (A) (A) (A) (A) (A) (A) (A) (A)
                 (A) (A) (A) (A) (A) (A) (A) (A) (A) (A) (A) (A)
                 (A) (A) (A) (A) (A) (A) (A) (A) (A) (A) (A) (A)
                 (A) (A) (A) (A) (A) (A) (A) (A) (A) (A) (A) (A)
                 (A) (A) (A) (A) (A) (A) (A) (A) (A) (A) (A) (A)
                 (A) (A) (A) (A) (A) (A) (A) (A) (A) (A) (A) (A)
                 (A) (A) (A) (A) (A) (A) (A) (A) (A) (A) (A) (A)
                 (A) (A) (A) (A) (A) (A) (A) (A) (A) (A) (A) (A)
                 (A) (A) (A) (A) (A) (A) (A) (A) (A) (A) (A) (A)
                 (A) (A) (A) (A) (A) (A) (A) (A) (A) (A) (A) (A)
                 (A) (A) (A) (A) (A) (A) (A) (A) (A) (A) (A) (A)
                 (A) (A) (A) (A) (A) (A) (A) (A) (A) (A) (A) (A)
                 (A) (A) (A)
 The electronic state is 2-A.
 Alpha  occ. eigenvalues --  -19.68527 -19.67824 -19.62513 -10.70650 -10.60678
 Alpha  occ. eigenvalues --  -10.58668 -10.58388 -10.54197  -1.24963  -1.16369
 Alpha  occ. eigenvalues --   -1.14280  -0.90174  -0.88179  -0.77223  -0.73737
 Alpha  occ. eigenvalues --   -0.64193  -0.62117  -0.58206  -0.57259  -0.55811
 Alpha  occ. eigenvalues --   -0.52739  -0.51301  -0.49059  -0.46821  -0.45769
 Alpha  occ. eigenvalues --   -0.43521  -0.41965  -0.39704  -0.38017  -0.36642
 Alpha  occ. eigenvalues --   -0.36268
 Alpha virt. eigenvalues --   -0.01697  -0.00852   0.00529   0.00987   0.02022
 Alpha virt. eigenvalues --    0.02391   0.03624   0.04594   0.05553   0.06118
 Alpha virt. eigenvalues --    0.07124   0.07813   0.08653   0.09019   0.10580
 Alpha virt. eigenvalues --    0.11032   0.11158   0.11607   0.12340   0.13217
 Alpha virt. eigenvalues --    0.13394   0.14330   0.14513   0.15746   0.15933
 Alpha virt. eigenvalues --    0.17133   0.17494   0.18232   0.18671   0.20090
 Alpha virt. eigenvalues --    0.20901   0.21338   0.22851   0.23389   0.24567
 Alpha virt. eigenvalues --    0.25291   0.26933   0.28100   0.28979   0.29236
 Alpha virt. eigenvalues --    0.31849   0.32551   0.32978   0.33539   0.34143
 Alpha virt. eigenvalues --    0.34939   0.35789   0.36988   0.37705   0.38708
 Alpha virt. eigenvalues --    0.40301   0.43183   0.45866   0.46282   0.49741
 Alpha virt. eigenvalues --    0.51504   0.52912   0.53021   0.56681   0.60160
 Alpha virt. eigenvalues --    0.60916   0.61573   0.62880   0.66871   0.67867
 Alpha virt. eigenvalues --    0.69466   0.69976   0.71043   0.72454   0.72662
 Alpha virt. eigenvalues --    0.74039   0.75994   0.77536   0.80043   0.80663
 Alpha virt. eigenvalues --    0.84864   0.85553   0.90796   0.97203   0.98423
 Alpha virt. eigenvalues --    1.02490   1.04475   1.08376   1.09039   1.12345
 Alpha virt. eigenvalues --    1.12975   1.16043   1.20592   1.22217   1.23147
 Alpha virt. eigenvalues --    1.24687   1.26483   1.29172   1.29797   1.32195
 Alpha virt. eigenvalues --    1.35031   1.36418   1.37331   1.39930   1.41883
 Alpha virt. eigenvalues --    1.43895   1.47900   1.50511   1.52541   1.56631
 Alpha virt. eigenvalues --    1.58765   1.59958   1.62024   1.62610   1.64068
 Alpha virt. eigenvalues --    1.65639   1.68439   1.71080   1.71824   1.77461
 Alpha virt. eigenvalues --    1.78989   1.80348   1.82268   1.84629   1.87985
 Alpha virt. eigenvalues --    1.90316   1.96133   1.99958   2.01044   2.04686
 Alpha virt. eigenvalues --    2.08718   2.10521   2.13930   2.20961   2.30965
 Alpha virt. eigenvalues --    2.34857   2.41146   2.47715   2.50258   2.51282
 Alpha virt. eigenvalues --    2.54838   2.55507   2.59944   2.62564   2.64212
 Alpha virt. eigenvalues --    2.65313   2.66998   2.69446   2.73649   2.75956
 Alpha virt. eigenvalues --    2.79930   2.81542   2.83714   2.89408   2.90512
 Alpha virt. eigenvalues --    2.93649   2.95407   2.99266   3.02702   3.03558
 Alpha virt. eigenvalues --    3.07621   3.11728   3.14736   3.15164   3.17170
 Alpha virt. eigenvalues --    3.25820   3.30025   3.33634   3.39066   3.40459
 Alpha virt. eigenvalues --    3.43985   3.55694   3.64199   3.77726   3.84731
 Alpha virt. eigenvalues --    3.85631   3.87968   3.88969   4.04538   4.14298
 Alpha virt. eigenvalues --    4.16704   4.31536   5.06951   5.11599   5.16452
 Alpha virt. eigenvalues --    5.20267   5.29369   5.44114   5.55388   5.69878
 Alpha virt. eigenvalues --    5.99107  23.62445  23.92989  23.95152  24.05120
 Alpha virt. eigenvalues --   25.12503  49.94199  50.00074  50.13911
  Beta  occ. eigenvalues --  -19.67823 -19.66960 -19.62527 -10.70640 -10.60679
  Beta  occ. eigenvalues --  -10.58630 -10.58313 -10.54197  -1.24963  -1.16396
  Beta  occ. eigenvalues --   -1.06850  -0.89666  -0.88171  -0.77135  -0.73609
  Beta  occ. eigenvalues --   -0.64085  -0.61885  -0.58046  -0.56702  -0.53423
  Beta  occ. eigenvalues --   -0.52625  -0.49411  -0.46961  -0.45743  -0.42017
  Beta  occ. eigenvalues --   -0.40340  -0.39746  -0.39023  -0.37476  -0.36167
  Beta virt. eigenvalues --   -0.09905  -0.01226  -0.00711   0.00593   0.01301
  Beta virt. eigenvalues --    0.02138   0.02526   0.03663   0.04601   0.05675
  Beta virt. eigenvalues --    0.06203   0.07231   0.08013   0.08648   0.09080
  Beta virt. eigenvalues --    0.10744   0.11021   0.11340   0.11701   0.12365
  Beta virt. eigenvalues --    0.13310   0.13659   0.14407   0.14634   0.15788
  Beta virt. eigenvalues --    0.15999   0.17285   0.17523   0.18329   0.18697
  Beta virt. eigenvalues --    0.20190   0.20894   0.21628   0.22666   0.23145
  Beta virt. eigenvalues --    0.24610   0.25083   0.27014   0.28299   0.28947
  Beta virt. eigenvalues --    0.29203   0.31832   0.32638   0.33082   0.33516
  Beta virt. eigenvalues --    0.34141   0.34952   0.35811   0.37022   0.37720
  Beta virt. eigenvalues --    0.38916   0.40312   0.43176   0.45875   0.46304
  Beta virt. eigenvalues --    0.49765   0.51555   0.52884   0.53063   0.57507
  Beta virt. eigenvalues --    0.60263   0.61259   0.61736   0.62970   0.66869
  Beta virt. eigenvalues --    0.67882   0.69456   0.69996   0.71084   0.72429
  Beta virt. eigenvalues --    0.72646   0.74183   0.75983   0.77529   0.80083
  Beta virt. eigenvalues --    0.80733   0.85089   0.85609   0.90862   0.97804
  Beta virt. eigenvalues --    0.98710   1.02723   1.04625   1.08677   1.10986
  Beta virt. eigenvalues --    1.13104   1.13359   1.16149   1.20714   1.22821
  Beta virt. eigenvalues --    1.23841   1.25013   1.26621   1.29360   1.29927
  Beta virt. eigenvalues --    1.32843   1.35209   1.37118   1.37430   1.40129
  Beta virt. eigenvalues --    1.42588   1.44225   1.48145   1.50523   1.53037
  Beta virt. eigenvalues --    1.57250   1.58796   1.60212   1.62160   1.62621
  Beta virt. eigenvalues --    1.64346   1.65638   1.68695   1.71086   1.71862
  Beta virt. eigenvalues --    1.77750   1.79006   1.80389   1.82451   1.84780
  Beta virt. eigenvalues --    1.88343   1.90374   1.96366   2.00024   2.01114
  Beta virt. eigenvalues --    2.04763   2.09978   2.10639   2.13969   2.20940
  Beta virt. eigenvalues --    2.30979   2.34868   2.41476   2.47785   2.50262
  Beta virt. eigenvalues --    2.51288   2.54859   2.55572   2.60046   2.62588
  Beta virt. eigenvalues --    2.64371   2.65365   2.67597   2.69615   2.73911
  Beta virt. eigenvalues --    2.76244   2.80632   2.82578   2.84894   2.90513
  Beta virt. eigenvalues --    2.92416   2.96136   2.97415   2.99369   3.03472
  Beta virt. eigenvalues --    3.05260   3.07695   3.12857   3.14913   3.17592
  Beta virt. eigenvalues --    3.19310   3.25832   3.30658   3.33944   3.39431
  Beta virt. eigenvalues --    3.40448   3.43947   3.55959   3.64191   3.77832
  Beta virt. eigenvalues --    3.84817   3.85636   3.88160   3.92139   4.04573
  Beta virt. eigenvalues --    4.14292   4.16673   4.31538   5.09606   5.15869
  Beta virt. eigenvalues --    5.18612   5.21587   5.29452   5.44117   5.57674
  Beta virt. eigenvalues --    5.69861   5.99098  23.62480  23.92992  23.95155
  Beta virt. eigenvalues --   24.05120  25.12698  49.93740  50.00069  50.13927
          Condensed to atoms (all electrons):
               1          2          3          4          5          6
     1  C   49.366288   0.988891 -24.254822 -17.878125  -0.301571  -0.288483
     2  H    0.988891   0.439786  -0.496561  -0.133084  -0.004824  -0.005621
     3  C  -24.254822  -0.496561  25.457532   3.985598   0.067226  -0.202717
     4  C  -17.878125  -0.133084   3.985598  19.050355   0.572146   0.398286
     5  O   -0.301571  -0.004824   0.067226   0.572146   7.997913  -0.072171
     6  O   -0.288483  -0.005621  -0.202717   0.398286  -0.072171   8.145526
     7  C    0.053289  -0.008211   0.025683  -0.146239  -0.019289   0.244591
     8  C   -0.077635   0.004383  -0.068639   0.111423   0.019226  -0.129959
     9  H   -0.249534  -0.001739   0.118472   0.109003   0.002334  -0.001127
    10  H    0.063866  -0.000166   0.028303  -0.080466  -0.002814  -0.073469
    11  H   -0.003961   0.000307  -0.007529   0.004757   0.000374  -0.004933
    12  H    0.047160  -0.003515   0.042695  -0.075739  -0.001798  -0.009134
    13  H    0.042285   0.000783  -0.013107  -0.027752   0.000408   0.015322
    14  O   -0.261512  -0.002923   0.276736  -0.022116  -0.014398   0.002643
    15  H    0.029872   0.000157  -0.021330   0.020653  -0.004059  -0.001797
               7          8          9         10         11         12
     1  C    0.053289  -0.077635  -0.249534   0.063866  -0.003961   0.047160
     2  H   -0.008211   0.004383  -0.001739  -0.000166   0.000307  -0.003515
     3  C    0.025683  -0.068639   0.118472   0.028303  -0.007529   0.042695
     4  C   -0.146239   0.111423   0.109003  -0.080466   0.004757  -0.075739
     5  O   -0.019289   0.019226   0.002334  -0.002814   0.000374  -0.001798
     6  O    0.244591  -0.129959  -0.001127  -0.073469  -0.004933  -0.009134
     7  C    5.496181  -0.008331   0.367333   0.457834  -0.051513   0.008723
     8  C   -0.008331   5.469338  -0.033268  -0.066822   0.442724   0.337843
     9  H    0.367333  -0.033268   0.547839  -0.036119   0.002755  -0.010535
    10  H    0.457834  -0.066822  -0.036119   0.501664  -0.008352   0.011439
    11  H   -0.051513   0.442724   0.002755  -0.008352   0.519193  -0.047776
    12  H    0.008723   0.337843  -0.010535   0.011439  -0.047776   0.603841
    13  H   -0.057814   0.412338  -0.001328  -0.001016  -0.031281  -0.037998
    14  O   -0.036999   0.007383   0.014772  -0.004943   0.000290  -0.001618
    15  H    0.004345  -0.000321  -0.005418   0.000120   0.000149  -0.000309
              13         14         15
     1  C    0.042285  -0.261512   0.029872
     2  H    0.000783  -0.002923   0.000157
     3  C   -0.013107   0.276736  -0.021330
     4  C   -0.027752  -0.022116   0.020653
     5  O    0.000408  -0.014398  -0.004059
     6  O    0.015322   0.002643  -0.001797
     7  C   -0.057814  -0.036999   0.004345
     8  C    0.412338   0.007383  -0.000321
     9  H   -0.001328   0.014772  -0.005418
    10  H   -0.001016  -0.004943   0.000120
    11  H   -0.031281   0.000290   0.000149
    12  H   -0.037998  -0.001618  -0.000309
    13  H    0.541452  -0.000214  -0.000207
    14  O   -0.000214   8.027448   0.245617
    15  H   -0.000207   0.245617   0.484669
          Atomic-Atomic Spin Densities.
               1          2          3          4          5          6
     1  C    0.510243  -0.001749  -0.136138  -0.106588   0.009126  -0.017835
     2  H   -0.001749  -0.005578   0.002013   0.000746  -0.000015  -0.000241
     3  C   -0.136138   0.002013   0.054913   0.022114   0.004179   0.010424
     4  C   -0.106588   0.000746   0.022114   0.084261  -0.013034   0.007759
     5  O    0.009126  -0.000015   0.004179  -0.013034  -0.010309   0.000587
     6  O   -0.017835  -0.000241   0.010424   0.007759   0.000587   0.001910
     7  C    0.014127  -0.000344  -0.018120  -0.006272   0.000812  -0.003618
     8  C    0.000263   0.000266  -0.000167  -0.000834  -0.000214   0.001818
     9  H   -0.028622  -0.000050   0.020175   0.017637   0.000301   0.001306
    10  H    0.003007   0.000011  -0.001626  -0.001625   0.000049  -0.000623
    11  H    0.005281   0.000076  -0.001416  -0.003366  -0.000131  -0.000119
    12  H   -0.004184  -0.000338   0.002861   0.001244   0.000119  -0.000716
    13  H   -0.003776  -0.000047   0.001847   0.001982   0.000033   0.000107
    14  O   -0.125711  -0.002956  -0.009653   0.050545   0.001217  -0.000625
    15  H    0.025607   0.000335  -0.017430  -0.008932  -0.000167   0.000251
               7          8          9         10         11         12
     1  C    0.014127   0.000263  -0.028622   0.003007   0.005281  -0.004184
     2  H   -0.000344   0.000266  -0.000050   0.000011   0.000076  -0.000338
     3  C   -0.018120  -0.000167   0.020175  -0.001626  -0.001416   0.002861
     4  C   -0.006272  -0.000834   0.017637  -0.001625  -0.003366   0.001244
     5  O    0.000812  -0.000214   0.000301   0.000049  -0.000131   0.000119
     6  O   -0.003618   0.001818   0.001306  -0.000623  -0.000119  -0.000716
     7  C    0.026092  -0.013756  -0.016705   0.003506  -0.000098   0.003750
     8  C   -0.013756   0.009518   0.007360  -0.001791  -0.000663  -0.001242
     9  H   -0.016705   0.007360   0.014048  -0.002696  -0.000152  -0.001634
    10  H    0.003506  -0.001791  -0.002696   0.001100   0.000185   0.000348
    11  H   -0.000098  -0.000663  -0.000152   0.000185  -0.000013   0.000252
    12  H    0.003750  -0.001242  -0.001634   0.000348   0.000252   0.000110
    13  H   -0.000911   0.001005   0.000547  -0.000537   0.000153  -0.000709
    14  O    0.013605  -0.004317  -0.009806  -0.000329  -0.000070   0.001172
    15  H   -0.001283   0.000214   0.000467   0.000007  -0.000011  -0.000027
              13         14         15
     1  C   -0.003776  -0.125711   0.025607
     2  H   -0.000047  -0.002956   0.000335
     3  C    0.001847  -0.009653  -0.017430
     4  C    0.001982   0.050545  -0.008932
     5  O    0.000033   0.001217  -0.000167
     6  O    0.000107  -0.000625   0.000251
     7  C   -0.000911   0.013605  -0.001283
     8  C    0.001005  -0.004317   0.000214
     9  H    0.000547  -0.009806   0.000467
    10  H   -0.000537  -0.000329   0.000007
    11  H    0.000153  -0.000070  -0.000011
    12  H   -0.000709   0.001172  -0.000027
    13  H    0.000124  -0.000004   0.000022
    14  O   -0.000004   0.989012   0.010508
    15  H    0.000022   0.010508  -0.030032
 Mulliken charges and spin densities:
               1          2
     1  C   -1.276008   0.143050
     2  H    0.222335  -0.007872
     3  C    1.062460  -0.066024
     4  C    0.111299   0.045635
     5  O   -0.238704  -0.007447
     6  O   -0.016958   0.000386
     7  C   -0.329583   0.000785
     8  C   -0.419681  -0.002539
     9  H    0.176561   0.002176
    10  H    0.210941  -0.001015
    11  H    0.184795  -0.000094
    12  H    0.136720   0.001005
    13  H    0.158129  -0.000163
    14  O   -0.230166   0.912589
    15  H    0.247860  -0.020470
 Sum of Mulliken charges =  -0.00000   1.00000
 Mulliken charges and spin densities with hydrogens summed into heavy atoms:
               1          2
     1  C   -1.053673   0.135178
     3  C    1.062460  -0.066024
     4  C    0.111299   0.045635
     5  O   -0.238704  -0.007447
     6  O   -0.016958   0.000386
     7  C    0.057919   0.001945
     8  C    0.059964  -0.001791
    14  O    0.017693   0.892118
 APT charges:
               1
     1  C   -0.189030
     2  H    0.231084
     3  C   -0.328694
     4  C    1.503369
     5  O   -0.845430
     6  O   -0.916621
     7  C    0.502089
     8  C   -0.027120
     9  H   -0.000642
    10  H   -0.009158
    11  H    0.012468
    12  H    0.009830
    13  H    0.008285
    14  O   -0.224505
    15  H    0.274073
 Sum of APT charges =   0.00000
 APT charges with hydrogens summed into heavy atoms:
               1
     1  C    0.042054
     3  C   -0.328694
     4  C    1.503369
     5  O   -0.845430
     6  O   -0.916621
     7  C    0.492289
     8  C    0.003464
    14  O    0.049568
 Electronic spatial extent (au):  <R**2>=            993.4508
 Charge=             -0.0000 electrons
 Dipole moment (field-independent basis, Debye):
    X=             -0.3815    Y=             -4.1921    Z=             -0.5156  Tot=              4.2409
 Quadrupole moment (field-independent basis, Debye-Ang):
   XX=            -39.0100   YY=            -52.4740   ZZ=            -46.7096
   XY=             -4.4175   XZ=             -0.2276   YZ=              4.3387
 Traceless Quadrupole moment (field-independent basis, Debye-Ang):
   XX=              7.0545   YY=             -6.4094   ZZ=             -0.6451
   XY=             -4.4175   XZ=             -0.2276   YZ=              4.3387
 Octapole moment (field-independent basis, Debye-Ang**2):
  XXX=             14.0670  YYY=            -16.6279  ZZZ=              6.1680  XYY=              1.0628
  XXY=            -11.5091  XXZ=             10.6976  XZZ=              3.5898  YZZ=             -2.0865
  YYZ=             -5.7081  XYZ=              9.4523
 Hexadecapole moment (field-independent basis, Debye-Ang**3):
 XXXX=           -585.4004 YYYY=           -386.1837 ZZZZ=           -254.2706 XXXY=            -24.1911
 XXXZ=             24.4571 YYYX=            -27.3993 YYYZ=             21.9301 ZZZX=              1.2332
 ZZZY=              5.7167 XXYY=           -162.8895 XXZZ=           -134.6881 YYZZ=            -96.3943
 XXYZ=              6.8681 YYXZ=            -12.0747 ZZXY=            -12.0072
 N-N= 3.629496707567D+02 E-N=-1.710517843696D+03  KE= 4.188569785685D+02
  Exact polarizability:  72.052  -0.608  73.558  -4.156   4.820  67.697
 Approx polarizability:  76.670  -1.716  93.869  -8.654   8.287  77.223
                          Isotropic Fermi Contact Couplings
        Atom                 a.u.       MegaHertz       Gauss      10(-4) cm-1
     1  C(13)              0.02581      29.01057      10.35169       9.67689
     2  H(1)              -0.00246     -10.98332      -3.91912      -3.66364
     3  C(13)              0.01846      20.74717       7.40311       6.92051
     4  C(13)              0.00545       6.12201       2.18448       2.04208
     5  O(17)             -0.00238       1.44027       0.51392       0.48042
     6  O(17)             -0.00014       0.08347       0.02978       0.02784
     7  C(13)             -0.00069      -0.77796      -0.27760      -0.25950
     8  C(13)              0.00002       0.02163       0.00772       0.00722
     9  H(1)               0.00012       0.53548       0.19107       0.17862
    10  H(1)              -0.00002      -0.08910      -0.03179      -0.02972
    11  H(1)              -0.00002      -0.07381      -0.02634      -0.02462
    12  H(1)              -0.00003      -0.13617      -0.04859      -0.04542
    13  H(1)               0.00000       0.00288       0.00103       0.00096
    14  O(17)              0.13126     -79.56756     -28.39169     -26.54088
    15  H(1)              -0.01494     -66.77692     -23.82766     -22.27438
 --------------------------------------------------------
       Center         ----  Spin Dipole Couplings  ----
                      3XX-RR        3YY-RR        3ZZ-RR
 --------------------------------------------------------
     1   Atom       -0.062414     -0.079760      0.142173
     2   Atom       -0.010117      0.004688      0.005429
     3   Atom       -0.024305      0.002566      0.021739
     4   Atom       -0.005265      0.006407     -0.001141
     5   Atom        0.010158      0.022422     -0.032580
     6   Atom        0.007099      0.002008     -0.009108
     7   Atom        0.006758     -0.003745     -0.003012
     8   Atom        0.002562     -0.001873     -0.000690
     9   Atom        0.017314     -0.009778     -0.007537
    10   Atom        0.004489     -0.002148     -0.002341
    11   Atom        0.001467     -0.000900     -0.000567
    12   Atom        0.002296     -0.002156     -0.000140
    13   Atom        0.002134     -0.001284     -0.000850
    14   Atom       -1.632278     -1.772180      3.404457
    15   Atom        0.149724     -0.111311     -0.038413
 --------------------------------------------------------
                        XY            XZ            YZ
 --------------------------------------------------------
     1   Atom       -0.006831      0.063690     -0.058672
     2   Atom       -0.008277     -0.002601      0.010499
     3   Atom       -0.023550      0.013105     -0.001517
     4   Atom       -0.011693      0.007288     -0.009690
     5   Atom       -0.007875     -0.015104     -0.011876
     6   Atom       -0.009839      0.001034     -0.001761
     7   Atom       -0.002212      0.002077     -0.000282
     8   Atom       -0.000476      0.001570     -0.000091
     9   Atom        0.001453      0.004167      0.000569
    10   Atom       -0.001786     -0.000326      0.000139
    11   Atom       -0.000711      0.000946     -0.000221
    12   Atom       -0.000405      0.002182     -0.000063
    13   Atom        0.000374      0.000939      0.000139
    14   Atom        0.028445      0.912941      0.204585
    15   Atom        0.059962     -0.030541     -0.005990
 --------------------------------------------------------


 ---------------------------------------------------------------------------------
              Anisotropic Spin Dipole Couplings in Principal Axis System
 ---------------------------------------------------------------------------------

       Atom             a.u.   MegaHertz   Gauss  10(-4) cm-1        Axes

              Baa    -0.0981   -13.167    -4.698    -4.392 -0.3987  0.8610  0.3159
     1 C(13)  Bbb    -0.0757   -10.155    -3.624    -3.387  0.8795  0.4565 -0.1342
              Bcc     0.1738    23.322     8.322     7.779  0.2597 -0.2243  0.9393
 
              Baa    -0.0141    -7.508    -2.679    -2.504  0.8779  0.4606 -0.1309
     2 H(1)   Bbb    -0.0036    -1.940    -0.692    -0.647  0.3951 -0.5423  0.7415
              Bcc     0.0177     9.448     3.371     3.152 -0.2705  0.7026  0.6581
 
              Baa    -0.0398    -5.345    -1.907    -1.783  0.8637  0.4736 -0.1722
     3 C(13)  Bbb     0.0113     1.520     0.542     0.507 -0.3263  0.7859  0.5252
              Bcc     0.0285     3.825     1.365     1.276  0.3841 -0.3975  0.8334
 
              Baa    -0.0127    -1.704    -0.608    -0.568  0.8770  0.4458 -0.1792
     4 C(13)  Bbb    -0.0077    -1.035    -0.369    -0.345 -0.0867  0.5138  0.8535
              Bcc     0.0204     2.739     0.977     0.914 -0.4726  0.7330 -0.4893
 
              Baa    -0.0404     2.922     1.043     0.975  0.3102  0.2141  0.9263
     5 O(17)  Bbb     0.0137    -0.993    -0.354    -0.331  0.8815  0.3002 -0.3645
              Bcc     0.0267    -1.929    -0.688    -0.643 -0.3561  0.9295 -0.0956
 
              Baa    -0.0094     0.681     0.243     0.227  0.0589  0.2015  0.9777
     6 O(17)  Bbb    -0.0055     0.395     0.141     0.132  0.6148  0.7643 -0.1946
              Bcc     0.0149    -1.076    -0.384    -0.359  0.7865 -0.6126  0.0789
 
              Baa    -0.0042    -0.566    -0.202    -0.189  0.2244  0.9609 -0.1621
     7 C(13)  Bbb    -0.0034    -0.457    -0.163    -0.152 -0.1544  0.1993  0.9677
              Bcc     0.0076     1.022     0.365     0.341  0.9622 -0.1922  0.1931
 
              Baa    -0.0019    -0.259    -0.092    -0.086  0.1418  0.9841 -0.1073
     8 C(13)  Bbb    -0.0013    -0.176    -0.063    -0.059 -0.3553  0.1518  0.9223
              Bcc     0.0032     0.435     0.155     0.145  0.9239 -0.0927  0.3712
 
              Baa    -0.0099    -5.295    -1.889    -1.766 -0.0226  0.9807 -0.1944
     9 H(1)   Bbb    -0.0082    -4.351    -1.552    -1.451 -0.1690  0.1879  0.9675
              Bcc     0.0181     9.646     3.442     3.217  0.9854  0.0547  0.1615
 
              Baa    -0.0026    -1.393    -0.497    -0.465  0.2290  0.9495 -0.2145
    10 H(1)   Bbb    -0.0023    -1.252    -0.447    -0.417  0.0979  0.1968  0.9755
              Bcc     0.0050     2.644     0.944     0.882  0.9685 -0.2444 -0.0479
 
              Baa    -0.0011    -0.590    -0.210    -0.197  0.3278  0.9239 -0.1974
    11 H(1)   Bbb    -0.0009    -0.492    -0.176    -0.164 -0.2752  0.2933  0.9156
              Bcc     0.0020     1.082     0.386     0.361  0.9038 -0.2458  0.3504
 
              Baa    -0.0022    -1.179    -0.421    -0.393  0.1505  0.9802 -0.1290
    12 H(1)   Bbb    -0.0014    -0.743    -0.265    -0.248 -0.4850  0.1869  0.8543
              Bcc     0.0036     1.922     0.686     0.641  0.8614 -0.0660  0.5035
 
              Baa    -0.0013    -0.710    -0.253    -0.237 -0.0618  0.9845 -0.1644
    13 H(1)   Bbb    -0.0011    -0.596    -0.213    -0.199 -0.2896  0.1400  0.9468
              Bcc     0.0024     1.306     0.466     0.436  0.9551  0.1061  0.2765
 
              Baa    -1.7961   129.962    46.374    43.351  0.8908  0.4201 -0.1729
    14 O(17)  Bbb    -1.7767   128.563    45.875    42.884 -0.4202  0.9066  0.0382
              Bcc     3.5728  -258.525   -92.248   -86.235  0.1728  0.0386  0.9842
 
              Baa    -0.1244   -66.390   -23.690   -22.145 -0.2145  0.9767 -0.0082
    15 H(1)   Bbb    -0.0431   -23.001    -8.207    -7.672  0.1442  0.0399  0.9887
              Bcc     0.1675    89.391    31.897    29.818  0.9660  0.2109 -0.1494
 

 ---------------------------------------------------------------------------------

 Calling FoFJK, ICntrl=    100127 FMM=F ISym2X=0 I1Cent= 0 IOpClX= 1 NMat=1 NMatS=1 NMatT=0.
 Full mass-weighted force constant matrix:
 Low frequencies ---  -46.2337  -36.5714   -3.7552   -0.0002    0.0009    0.0011
 Low frequencies ---   63.0328   85.6238  101.2613
 Diagonal vibrational polarizability:
       35.5452785      66.3888133      36.4114075
 Harmonic frequencies (cm**-1), IR intensities (KM/Mole), Raman scattering
 activities (A**4/AMU), depolarization ratios for plane and unpolarized
 incident light, reduced masses (AMU), force constants (mDyne/A),
 and normal coordinates:
                      1                      2                      3
                      A                      A                      A
 Frequencies --     58.0413                84.2888               100.5492
 Red. masses --      7.1308                 3.5264                 5.7304
 Frc consts  --      0.0142                 0.0148                 0.0341
 IR Inten    --      4.1561                 1.7228                 2.1587
  Atom  AN      X      Y      Z        X      Y      Z        X      Y      Z
     1   6    -0.20  -0.12  -0.06     0.13  -0.00  -0.04    -0.05  -0.06   0.20
     2   1    -0.27  -0.13  -0.09     0.19   0.03  -0.05    -0.05  -0.10   0.29
     3   6    -0.11  -0.09  -0.03     0.07  -0.04  -0.02    -0.05  -0.01   0.11
     4   6     0.01  -0.09   0.08     0.01  -0.06  -0.01    -0.09   0.01   0.01
     5   8     0.13  -0.13   0.25    -0.08  -0.03  -0.10    -0.18   0.03  -0.17
     6   8    -0.04  -0.05   0.00     0.09  -0.13   0.12    -0.00   0.01   0.17
     7   6    -0.08  -0.04  -0.08     0.04  -0.13  -0.03    -0.07   0.01  -0.03
     8   6    -0.05   0.04  -0.13    -0.13   0.21  -0.00     0.09   0.16  -0.20
     9   1    -0.11  -0.07  -0.09     0.02  -0.24  -0.29    -0.13  -0.03   0.00
    10   1    -0.11  -0.06  -0.10     0.17  -0.28   0.11    -0.19  -0.04  -0.10
    11   1    -0.01   0.07  -0.12    -0.09   0.32   0.26     0.17   0.21  -0.22
    12   1    -0.02   0.06  -0.12    -0.24   0.37  -0.13     0.21   0.21  -0.13
    13   1    -0.08   0.05  -0.20    -0.17   0.20  -0.15     0.01   0.16  -0.38
    14   8     0.26   0.38  -0.02    -0.08   0.14   0.07     0.30  -0.16  -0.02
    15   1     0.20   0.49  -0.20    -0.04  -0.04   0.11     0.23   0.09  -0.13
                      4                      5                      6
                      A                      A                      A
 Frequencies --    114.6630               171.5733               204.9521
 Red. masses --      4.1989                 2.6708                 4.8788
 Frc consts  --      0.0325                 0.0463                 0.1207
 IR Inten    --      4.1708                 8.7175                 1.9332
  Atom  AN      X      Y      Z        X      Y      Z        X      Y      Z
     1   6    -0.18  -0.03  -0.10     0.21   0.09  -0.08    -0.05   0.12  -0.28
     2   1    -0.29  -0.04  -0.17     0.42   0.22  -0.15    -0.09   0.24  -0.54
     3   6    -0.05  -0.01  -0.03    -0.05  -0.08   0.02    -0.01  -0.02  -0.00
     4   6     0.01  -0.00   0.02    -0.05  -0.08   0.02    -0.01  -0.02  -0.01
     5   8    -0.03   0.00  -0.07     0.01  -0.12  -0.02    -0.02  -0.03  -0.07
     6   8     0.10  -0.01   0.19    -0.02   0.02   0.06    -0.03   0.02  -0.04
     7   6     0.05  -0.01   0.07    -0.12   0.10   0.08    -0.04   0.04  -0.01
     8   6     0.29  -0.06  -0.10     0.02   0.02   0.00    -0.02  -0.01  -0.02
     9   1     0.00   0.00   0.23    -0.20   0.09   0.27    -0.05   0.04   0.03
    10   1    -0.12   0.02  -0.07    -0.23   0.23  -0.03    -0.06   0.07  -0.04
    11   1     0.33  -0.07  -0.25     0.23   0.10  -0.28     0.06   0.02  -0.12
    12   1     0.45  -0.08   0.03     0.13  -0.28   0.16    -0.01  -0.14   0.03
    13   1     0.25  -0.05  -0.19    -0.19   0.18   0.07    -0.11   0.07   0.04
    14   8    -0.19   0.12   0.01    -0.01   0.02  -0.09     0.15  -0.06   0.39
    15   1    -0.11  -0.26   0.01    -0.05   0.23  -0.04     0.20  -0.47   0.15
                      7                      8                      9
                      A                      A                      A
 Frequencies --    215.9873               229.4050               278.5441
 Red. masses --      1.5043                 1.2387                 2.5712
 Frc consts  --      0.0413                 0.0384                 0.1175
 IR Inten    --     55.0423                 0.6816                23.0418
  Atom  AN      X      Y      Z        X      Y      Z        X      Y      Z
     1   6     0.00  -0.00  -0.02     0.03   0.03  -0.02    -0.10   0.03  -0.09
     2   1     0.07  -0.02   0.07     0.07   0.08  -0.08    -0.28   0.08  -0.34
     3   6    -0.08   0.01  -0.13    -0.03  -0.04   0.06     0.16  -0.04   0.27
     4   6    -0.02  -0.00  -0.04    -0.02  -0.02   0.02     0.06  -0.01   0.07
     5   8     0.02  -0.01   0.00     0.02  -0.05  -0.03    -0.02   0.01  -0.07
     6   8     0.02   0.01   0.03    -0.03   0.04   0.00    -0.00  -0.01  -0.04
     7   6     0.03  -0.00   0.01    -0.01   0.03   0.01     0.01  -0.01  -0.02
     8   6     0.03   0.01   0.00     0.02   0.00  -0.00    -0.02  -0.00  -0.00
     9   1     0.04   0.01  -0.01     0.01   0.05   0.01     0.01  -0.02  -0.04
    10   1     0.03  -0.02   0.01    -0.02   0.01   0.01     0.03  -0.02  -0.00
    11   1    -0.06  -0.04   0.08    -0.38  -0.23   0.29     0.01   0.02  -0.01
    12   1     0.04   0.14  -0.03     0.05   0.53  -0.13    -0.04  -0.04  -0.00
    13   1     0.13  -0.08  -0.05     0.45  -0.35  -0.20    -0.05   0.03   0.02
    14   8    -0.01  -0.06   0.08     0.00   0.01  -0.01    -0.02  -0.02  -0.06
    15   1    -0.20   0.91   0.17     0.03  -0.14  -0.04    -0.14   0.76   0.22
                     10                     11                     12
                      A                      A                      A
 Frequencies --    356.1918               409.1765               549.6356
 Red. masses --      2.8988                 3.6564                 1.1999
 Frc consts  --      0.2167                 0.3607                 0.2136
 IR Inten    --      1.7903                 6.3619                97.9665
  Atom  AN      X      Y      Z        X      Y      Z        X      Y      Z
     1   6    -0.01   0.09   0.04    -0.01   0.08   0.04     0.01  -0.04  -0.02
     2   1     0.13   0.18  -0.02     0.03   0.09   0.06     0.03  -0.03  -0.01
     3   6    -0.19  -0.04   0.11    -0.08   0.05   0.03    -0.01  -0.03  -0.02
     4   6    -0.08   0.03   0.02     0.05   0.06   0.04    -0.02  -0.01  -0.00
     5   8     0.07  -0.09  -0.04     0.13  -0.01  -0.10    -0.04  -0.00   0.03
     6   8    -0.10   0.10  -0.03     0.13   0.04   0.21    -0.01   0.05   0.02
     7   6     0.19  -0.10  -0.06    -0.04   0.01  -0.17     0.03   0.04  -0.03
     8   6     0.07   0.03   0.01    -0.18  -0.17  -0.07     0.00  -0.00  -0.00
     9   1     0.39  -0.02  -0.34    -0.09  -0.04  -0.20     0.06   0.05  -0.08
    10   1     0.32  -0.40   0.11    -0.07  -0.07  -0.16     0.04  -0.04  -0.01
    11   1     0.29   0.21   0.01    -0.36  -0.34  -0.13    -0.03  -0.03  -0.02
    12   1    -0.03  -0.16  -0.02    -0.36  -0.38  -0.14    -0.04  -0.05  -0.01
    13   1    -0.17   0.21   0.06    -0.02  -0.17   0.33     0.03   0.00   0.08
    14   8    -0.02  -0.00  -0.01     0.00   0.00  -0.00     0.02   0.01  -0.05
    15   1    -0.02  -0.06  -0.10    -0.01   0.01  -0.05     0.23  -0.11   0.94
                     13                     14                     15
                      A                      A                      A
 Frequencies --    559.6425               631.7725               724.2003
 Red. masses --      3.4484                 5.0395                 1.3413
 Frc consts  --      0.6363                 1.1851                 0.4145
 IR Inten    --     37.1044                 1.6901                34.8752
  Atom  AN      X      Y      Z        X      Y      Z        X      Y      Z
     1   6    -0.07   0.15   0.07     0.02  -0.07  -0.03    -0.08  -0.10   0.08
     2   1    -0.15   0.06   0.18    -0.36  -0.34   0.15     0.59   0.54  -0.57
     3   6     0.01   0.20  -0.02     0.35   0.16  -0.15     0.05   0.03  -0.04
     4   6    -0.01   0.03  -0.02    -0.12  -0.06   0.09    -0.00   0.01   0.01
     5   8     0.19  -0.09  -0.11     0.00  -0.19  -0.03     0.01   0.01  -0.01
     6   8    -0.05  -0.11  -0.04    -0.18   0.18   0.13    -0.01   0.01   0.01
     7   6    -0.11  -0.15   0.13    -0.00   0.04  -0.02    -0.01  -0.01   0.01
     8   6    -0.01   0.00   0.01     0.00  -0.01  -0.01    -0.00  -0.00  -0.00
     9   1    -0.14  -0.14   0.21     0.21   0.13  -0.31     0.01  -0.00  -0.02
    10   1    -0.14   0.01   0.07     0.07  -0.34   0.13     0.00  -0.03   0.03
    11   1     0.12   0.12   0.06    -0.01  -0.05  -0.11     0.01   0.00  -0.02
    12   1     0.15   0.18   0.07     0.02  -0.10   0.03     0.02   0.00   0.02
    13   1    -0.12  -0.01  -0.32     0.01   0.01   0.08    -0.01  -0.01  -0.03
    14   8     0.01   0.01  -0.03    -0.01  -0.00   0.02    -0.00  -0.00  -0.00
    15   1     0.16  -0.09   0.63    -0.07   0.04  -0.28    -0.00   0.01  -0.01
                     16                     17                     18
                      A                      A                      A
 Frequencies --    754.9273               758.7008               762.7446
 Red. masses --      2.1722                 2.8703                 3.8546
 Frc consts  --      0.7294                 0.9735                 1.3213
 IR Inten    --      7.0739                 0.3936                68.3652
  Atom  AN      X      Y      Z        X      Y      Z        X      Y      Z
     1   6    -0.15   0.08  -0.05     0.02   0.10   0.16    -0.06  -0.00  -0.07
     2   1     0.64   0.09   0.61    -0.56   0.21  -0.53     0.58  -0.08   0.63
     3   6     0.07   0.08   0.07    -0.06   0.13  -0.07    -0.07   0.01  -0.11
     4   6    -0.08  -0.08  -0.10     0.03  -0.14   0.10     0.22  -0.04   0.39
     5   8    -0.04  -0.09   0.05    -0.10  -0.11   0.00    -0.06   0.02  -0.11
     6   8     0.06  -0.06  -0.01     0.06  -0.08  -0.07    -0.04   0.01  -0.08
     7   6     0.06   0.07  -0.06     0.08   0.10  -0.08    -0.00  -0.00   0.00
     8   6     0.03   0.03   0.01     0.05   0.04   0.01    -0.00  -0.00  -0.00
     9   1    -0.03   0.03   0.04    -0.03   0.05   0.08     0.02   0.01  -0.02
    10   1    -0.01   0.13  -0.11    -0.02   0.19  -0.17     0.01  -0.01   0.02
    11   1    -0.05  -0.03   0.05    -0.06  -0.03   0.08     0.01   0.01  -0.00
    12   1    -0.09  -0.05  -0.05    -0.14  -0.06  -0.09     0.02   0.02   0.00
    13   1     0.10   0.03   0.20     0.13   0.05   0.28    -0.02  -0.00  -0.03
    14   8    -0.00   0.00   0.00    -0.00   0.00  -0.01    -0.00   0.00  -0.01
    15   1     0.00  -0.03  -0.03     0.00   0.01   0.02     0.00   0.01   0.03
                     19                     20                     21
                      A                      A                      A
 Frequencies --    809.4930               951.6119              1106.1417
 Red. masses --      1.1563                 2.2615                 3.3098
 Frc consts  --      0.4464                 1.2066                 2.3860
 IR Inten    --      3.4803                11.8116                42.5019
  Atom  AN      X      Y      Z        X      Y      Z        X      Y      Z
     1   6     0.01  -0.03  -0.01     0.02  -0.04  -0.02     0.02  -0.04  -0.02
     2   1     0.02  -0.03  -0.01     0.02  -0.05  -0.02     0.01  -0.05  -0.02
     3   6     0.02  -0.01  -0.01     0.01  -0.03  -0.01     0.01  -0.02  -0.01
     4   6    -0.01   0.02   0.01    -0.03   0.09   0.03    -0.10   0.10   0.07
     5   8     0.01   0.00  -0.01     0.07   0.04  -0.04     0.05   0.01  -0.03
     6   8    -0.03   0.04   0.02    -0.10  -0.10   0.01    -0.09  -0.15   0.01
     7   6     0.05  -0.05  -0.02    -0.08  -0.02  -0.10     0.21   0.10   0.18
     8   6     0.02  -0.03  -0.02     0.14   0.13   0.09    -0.09   0.06  -0.19
     9   1     0.02   0.10   0.49    -0.21  -0.16  -0.14     0.15   0.09   0.32
    10   1    -0.33   0.15  -0.33    -0.23  -0.12  -0.18     0.22   0.23   0.17
    11   1     0.10   0.18   0.44    -0.14  -0.11   0.06    -0.38  -0.23  -0.40
    12   1    -0.37   0.06  -0.31    -0.03  -0.18   0.06    -0.23  -0.24  -0.22
    13   1    -0.16   0.11   0.05     0.41   0.10   0.67     0.12  -0.01   0.12
    14   8    -0.00  -0.00   0.00     0.00  -0.00   0.00     0.00  -0.00   0.00
    15   1    -0.00   0.00   0.00     0.00   0.00   0.01     0.00   0.00   0.01
                     22                     23                     24
                      A                      A                      A
 Frequencies --   1132.6553              1182.9312              1270.7866
 Red. masses --      2.6457                 1.8669                 2.7236
 Frc consts  --      1.9998                 1.5392                 2.5914
 IR Inten    --     52.9274                43.4680               346.5410
  Atom  AN      X      Y      Z        X      Y      Z        X      Y      Z
     1   6    -0.01   0.03   0.02    -0.01   0.02   0.01    -0.02   0.04   0.02
     2   1    -0.01   0.04   0.02     0.00   0.03   0.01     0.00   0.06   0.02
     3   6    -0.01   0.01   0.00    -0.01  -0.00   0.01    -0.02   0.00   0.00
     4   6     0.08  -0.09  -0.06     0.08  -0.04  -0.05     0.21  -0.13  -0.13
     5   8    -0.04  -0.00   0.03     0.02   0.03  -0.01     0.01   0.04   0.00
     6   8     0.05   0.14  -0.06    -0.04  -0.08   0.02    -0.16  -0.02   0.08
     7   6    -0.06  -0.16   0.18    -0.09   0.16   0.07     0.12   0.03  -0.03
     8   6     0.04   0.09  -0.13     0.08  -0.08  -0.05    -0.08   0.06   0.05
     9   1    -0.05  -0.21   0.04     0.17   0.24  -0.34     0.09   0.11   0.32
    10   1    -0.14  -0.27   0.16    -0.02  -0.46   0.29    -0.46  -0.41  -0.30
    11   1    -0.35  -0.21  -0.08     0.10   0.08   0.35    -0.05  -0.05  -0.37
    12   1    -0.29  -0.33  -0.23    -0.30   0.06  -0.35     0.15  -0.01   0.22
    13   1     0.24   0.08   0.46    -0.20   0.15   0.08     0.11  -0.13  -0.14
    14   8    -0.00   0.00  -0.00    -0.00  -0.00  -0.00    -0.00   0.00  -0.00
    15   1    -0.00  -0.00  -0.01    -0.00   0.00  -0.01    -0.00   0.00  -0.02
                     25                     26                     27
                      A                      A                      A
 Frequencies --   1354.6368              1406.3374              1433.0524
 Red. masses --      1.2985                 1.2789                 1.3770
 Frc consts  --      1.4039                 1.4902                 1.6661
 IR Inten    --    116.9640                31.8441                18.4290
  Atom  AN      X      Y      Z        X      Y      Z        X      Y      Z
     1   6     0.00  -0.01  -0.00    -0.00   0.01   0.00    -0.00   0.01   0.00
     2   1    -0.00  -0.01  -0.00    -0.00   0.01   0.00    -0.00   0.01   0.00
     3   6     0.00  -0.00   0.00    -0.00  -0.00  -0.00    -0.00  -0.00   0.00
     4   6    -0.07   0.04   0.04     0.04  -0.03  -0.03     0.04  -0.03  -0.02
     5   8    -0.00  -0.01  -0.00     0.00   0.01  -0.00     0.00   0.01  -0.00
     6   8     0.09  -0.02  -0.04    -0.04  -0.00   0.03    -0.03  -0.01   0.03
     7   6    -0.05  -0.02  -0.00    -0.03  -0.03  -0.03    -0.08  -0.06  -0.08
     8   6    -0.04   0.03   0.00    -0.06  -0.01  -0.10     0.07   0.05   0.05
     9   1     0.55   0.56   0.15     0.14   0.18   0.19     0.29   0.37   0.27
    10   1    -0.32  -0.41  -0.08     0.33   0.21   0.17     0.46   0.29   0.20
    11   1    -0.05   0.00  -0.06     0.17   0.30   0.34    -0.24  -0.24  -0.10
    12   1     0.14  -0.02   0.14     0.37   0.04   0.20    -0.24  -0.21  -0.09
    13   1     0.06  -0.03   0.05     0.25  -0.06   0.48    -0.11   0.08  -0.29
    14   8    -0.00   0.00   0.00    -0.00   0.00  -0.00    -0.00   0.00  -0.00
    15   1     0.00  -0.00   0.01    -0.00  -0.00  -0.00    -0.00  -0.00  -0.00
                     28                     29                     30
                      A                      A                      A
 Frequencies --   1493.1166              1503.5662              1532.5632
 Red. masses --      1.0410                 1.0468                 1.0988
 Frc consts  --      1.3673                 1.3943                 1.5206
 IR Inten    --      3.9420                 1.6117                12.3019
  Atom  AN      X      Y      Z        X      Y      Z        X      Y      Z
     1   6     0.00  -0.00  -0.00     0.00  -0.00  -0.00    -0.00   0.01   0.00
     2   1    -0.00  -0.00  -0.00     0.00   0.00  -0.00    -0.00   0.01   0.00
     3   6     0.00   0.00   0.00     0.00   0.00  -0.00    -0.00  -0.00   0.00
     4   6    -0.00   0.00   0.00    -0.00   0.00   0.00     0.02  -0.02  -0.01
     5   8     0.00   0.00  -0.00    -0.00  -0.00   0.00     0.00   0.01  -0.00
     6   8     0.01  -0.00  -0.00     0.01   0.00  -0.00    -0.02  -0.01   0.02
     7   6    -0.02   0.01   0.01    -0.02  -0.02  -0.02    -0.01  -0.05   0.06
     8   6    -0.03   0.02   0.03    -0.00  -0.04   0.03    -0.00  -0.01   0.01
     9   1    -0.00   0.02  -0.02    -0.03   0.04   0.22     0.40   0.12  -0.56
    10   1     0.04  -0.01   0.06     0.14  -0.09   0.12    -0.23   0.56  -0.27
    11   1     0.41   0.32  -0.09     0.24  -0.00  -0.54     0.06   0.00  -0.15
    12   1    -0.37  -0.29  -0.14    -0.16   0.58  -0.26    -0.05   0.15  -0.07
    13   1     0.50  -0.41  -0.21     0.02   0.05   0.34     0.02   0.00   0.11
    14   8     0.00   0.00   0.00     0.00   0.00  -0.00    -0.00   0.00   0.00
    15   1     0.00  -0.00   0.00     0.00  -0.00   0.00    -0.00  -0.00  -0.00
                     31                     32                     33
                      A                      A                      A
 Frequencies --   1861.2857              2221.4938              3071.5196
 Red. masses --     12.9462                 5.8260                 1.0354
 Frc consts  --     26.4253                16.9399                 5.7552
 IR Inten    --    502.2896                51.2252                 8.6298
  Atom  AN      X      Y      Z        X      Y      Z        X      Y      Z
     1   6     0.01  -0.03  -0.02     0.14  -0.32  -0.17     0.00   0.00   0.00
     2   1     0.04  -0.03  -0.03     0.28  -0.61  -0.33    -0.00   0.00   0.00
     3   6    -0.02   0.02   0.02    -0.20   0.44   0.22     0.00   0.00   0.00
     4   6     0.43   0.68  -0.17     0.03  -0.07  -0.02     0.00   0.00  -0.00
     5   8    -0.27  -0.46   0.10     0.00   0.00  -0.00    -0.00  -0.00   0.00
     6   8    -0.03  -0.03   0.02     0.00  -0.00   0.00    -0.00   0.00   0.00
     7   6    -0.03  -0.01   0.01     0.00  -0.00  -0.00     0.00  -0.00   0.00
     8   6     0.00   0.01  -0.00     0.00   0.00  -0.00    -0.03  -0.02  -0.04
     9   1     0.09   0.07  -0.02     0.01   0.00  -0.00    -0.01   0.01  -0.01
    10   1    -0.02   0.05   0.02     0.00   0.00  -0.00     0.01  -0.00  -0.01
    11   1    -0.00   0.00  -0.01    -0.00  -0.00  -0.00     0.33  -0.42   0.12
    12   1    -0.02   0.00  -0.01     0.00   0.00   0.00    -0.33   0.13   0.45
    13   1     0.02  -0.00   0.03     0.00   0.00   0.00     0.33   0.48  -0.14
    14   8     0.00  -0.00   0.00     0.00  -0.00   0.00    -0.00   0.00  -0.00
    15   1    -0.01   0.03   0.01    -0.00  -0.00  -0.00     0.00  -0.00   0.00
                     34                     35                     36
                      A                      A                      A
 Frequencies --   3111.6179              3145.4817              3150.1328
 Red. masses --      1.0606                 1.1037                 1.1017
 Frc consts  --      6.0502                 6.4338                 6.4413
 IR Inten    --     10.0759                 5.7059                12.6741
  Atom  AN      X      Y      Z        X      Y      Z        X      Y      Z
     1   6     0.00   0.00  -0.00     0.00   0.00   0.00    -0.00  -0.00  -0.00
     2   1     0.00   0.00  -0.00    -0.00   0.00   0.00    -0.00   0.00   0.00
     3   6     0.00   0.00   0.00     0.00  -0.00   0.00    -0.00   0.00  -0.00
     4   6     0.00   0.00  -0.00    -0.00  -0.00  -0.00     0.00   0.00  -0.00
     5   8    -0.00  -0.00   0.00     0.00   0.00  -0.00    -0.00  -0.00   0.00
     6   8    -0.00  -0.00   0.00    -0.00  -0.00  -0.00    -0.00   0.00  -0.00
     7   6     0.01  -0.03   0.06    -0.03   0.03   0.01    -0.02   0.01   0.02
     8   6     0.01   0.01  -0.01     0.07  -0.01  -0.05    -0.00  -0.08   0.03
     9   1    -0.49   0.55  -0.17     0.23  -0.26   0.09     0.05  -0.06   0.02
    10   1     0.36  -0.15  -0.50     0.16  -0.06  -0.23     0.18  -0.07  -0.26
    11   1     0.03  -0.04   0.01    -0.17   0.23  -0.08    -0.41   0.50  -0.15
    12   1    -0.04   0.02   0.05    -0.41   0.16   0.58     0.04  -0.03  -0.05
    13   1    -0.08  -0.12   0.04    -0.22  -0.33   0.08     0.38   0.52  -0.15
    14   8     0.00   0.00   0.00    -0.00  -0.00  -0.00    -0.00   0.00  -0.00
    15   1    -0.00  -0.00   0.00     0.00   0.00  -0.00     0.00   0.00   0.00
                     37                     38                     39
                      A                      A                      A
 Frequencies --   3169.9333              3483.2150              3794.2974
 Red. masses --      1.1079                 1.1656                 1.0673
 Frc consts  --      6.5593                 8.3325                 9.0531
 IR Inten    --     16.8826                66.0445                41.0481
  Atom  AN      X      Y      Z        X      Y      Z        X      Y      Z
     1   6     0.00   0.00   0.00     0.04  -0.09  -0.05     0.00  -0.00  -0.00
     2   1     0.00  -0.00  -0.00    -0.37   0.82   0.43     0.00  -0.00  -0.00
     3   6     0.00   0.00   0.00    -0.01   0.03   0.01     0.00   0.00   0.00
     4   6    -0.00  -0.00  -0.00     0.00  -0.00  -0.00    -0.00   0.00  -0.00
     5   8    -0.00   0.00   0.00    -0.00  -0.00   0.00    -0.00  -0.00   0.00
     6   8     0.00   0.00   0.00    -0.00  -0.00   0.00     0.00  -0.00  -0.00
     7   6     0.06  -0.04  -0.03     0.00   0.00  -0.00     0.00  -0.00   0.00
     8   6     0.04  -0.03  -0.02     0.00  -0.00  -0.00    -0.00   0.00   0.00
     9   1    -0.35   0.38  -0.13    -0.00   0.00  -0.00    -0.00   0.00  -0.00
    10   1    -0.35   0.14   0.51    -0.00   0.00   0.00     0.00   0.00  -0.00
    11   1    -0.24   0.30  -0.10    -0.00   0.00  -0.00     0.00  -0.00  -0.00
    12   1    -0.20   0.08   0.30     0.00   0.00   0.00     0.00  -0.00  -0.00
    13   1     0.02   0.01  -0.01    -0.00  -0.00   0.00     0.00   0.00  -0.00
    14   8     0.00   0.00   0.00     0.00  -0.00   0.00    -0.06  -0.01   0.01
    15   1    -0.00  -0.00  -0.00    -0.00   0.00  -0.00     0.96   0.21  -0.18

 -------------------
 - Thermochemistry -
 -------------------
 Temperature   298.150 Kelvin.  Pressure   1.00000 Atm.
 Atom     1 has atomic number  6 and mass  12.00000
 Atom     2 has atomic number  1 and mass   1.00783
 Atom     3 has atomic number  6 and mass  12.00000
 Atom     4 has atomic number  6 and mass  12.00000
 Atom     5 has atomic number  8 and mass  15.99491
 Atom     6 has atomic number  8 and mass  15.99491
 Atom     7 has atomic number  6 and mass  12.00000
 Atom     8 has atomic number  6 and mass  12.00000
 Atom     9 has atomic number  1 and mass   1.00783
 Atom    10 has atomic number  1 and mass   1.00783
 Atom    11 has atomic number  1 and mass   1.00783
 Atom    12 has atomic number  1 and mass   1.00783
 Atom    13 has atomic number  1 and mass   1.00783
 Atom    14 has atomic number  8 and mass  15.99491
 Atom    15 has atomic number  1 and mass   1.00783
 Molecular mass:   115.03952 amu.
 Principal axes and moments of inertia in atomic units:
                           1         2         3
     Eigenvalues --   780.717691096.933901289.62125
           X            0.99988   0.00976   0.01201
           Y           -0.01045   0.99821   0.05881
           Z           -0.01142  -0.05892   0.99820
 This molecule is an asymmetric top.
 Rotational symmetry number  1.
 Warning -- assumption of classical behavior for rotation
           may cause significant error
 Rotational temperatures (Kelvin)      0.11094     0.07896     0.06716
 Rotational constants (GHZ):           2.31164     1.64526     1.39944
 Zero-point vibrational energy     293987.5 (Joules/Mol)
                                   70.26469 (Kcal/Mol)
 Warning -- explicit consideration of  13 degrees of freedom as
           vibrations may cause significant error
 Vibrational temperatures:     83.51   121.27   144.67   164.97   246.86
          (Kelvin)            294.88   310.76   330.06   400.76   512.48
                              588.71   790.80   805.20   908.98  1041.96
                             1086.17  1091.60  1097.42  1164.68  1369.16
                             1591.49  1629.64  1701.97  1828.38  1949.02
                             2023.41  2061.84  2148.26  2163.30  2205.02
                             2677.98  3196.23  4419.23  4476.92  4525.65
                             4532.34  4560.83  5011.57  5459.15
 
 Zero-point correction=                           0.111974 (Hartree/Particle)
 Thermal correction to Energy=                    0.122273
 Thermal correction to Enthalpy=                  0.123218
 Thermal correction to Gibbs Free Energy=         0.075697
 Sum of electronic and zero-point Energies=           -419.3498681
 Sum of electronic and thermal Energies=              -420.079170
 Sum of electronic and thermal Enthalpies=            -420.078226
 Sum of electronic and thermal Free Energies=         -420.125746
 
                     E (Thermal)             CV                S
                      KCal/Mol        Cal/Mol-Kelvin    Cal/Mol-Kelvin
 Total                   76.728             34.543            100.015
 Electronic               0.000              0.000              1.377
 Translational            0.889              2.981             40.136
 Rotational               0.889              2.981             28.492
 Vibrational             74.950             28.581             30.009
 Vibration     1          0.596              1.974              4.523
 Vibration     2          0.601              1.960              3.788
 Vibration     3          0.604              1.949              3.444
 Vibration     4          0.608              1.937              3.188
 Vibration     5          0.626              1.877              2.418
 Vibration     6          0.640              1.833              2.088
 Vibration     7          0.645              1.817              1.992
 Vibration     8          0.652              1.796              1.884
 Vibration     9          0.679              1.713              1.543
 Vibration    10          0.732              1.563              1.139
 Vibration    11          0.774              1.450              0.930
 Vibration    12          0.905              1.140              0.545
 Vibration    13          0.915              1.119              0.525
                       Q            Log10(Q)             Ln(Q)
 Total Bot       0.151925D-34        -34.818370        -80.172259
 Total V=0       0.485298D+17         16.686008         38.420954
 Vib (Bot)       0.416353D-48        -48.380538       -111.400305
 Vib (Bot)    1  0.355865D+01          0.551286          1.269382
 Vib (Bot)    2  0.244164D+01          0.387682          0.892671
 Vib (Bot)    3  0.204085D+01          0.309811          0.713365
 Vib (Bot)    4  0.178440D+01          0.251492          0.579081
 Vib (Bot)    5  0.117397D+01          0.069657          0.160391
 Vib (Bot)    6  0.971025D+00         -0.012770         -0.029404
 Vib (Bot)    7  0.917339D+00         -0.037470         -0.086278
 Vib (Bot)    8  0.858784D+00         -0.066116         -0.152238
 Vib (Bot)    9  0.690766D+00         -0.160669         -0.369954
 Vib (Bot)   10  0.515884D+00         -0.287448         -0.661874
 Vib (Bot)   11  0.432652D+00         -0.363862         -0.837823
 Vib (Bot)   12  0.285620D+00         -0.544211         -1.253092
 Vib (Bot)   13  0.277814D+00         -0.556247         -1.280805
 Vib (V=0)       0.132996D+04          3.123840          7.192907
 Vib (V=0)    1  0.409361D+01          0.612106          1.409427
 Vib (V=0)    2  0.299231D+01          0.476007          1.096046
 Vib (V=0)    3  0.260120D+01          0.415174          0.955974
 Vib (V=0)    4  0.235313D+01          0.371645          0.855745
 Vib (V=0)    5  0.177601D+01          0.249446          0.574370
 Vib (V=0)    6  0.159219D+01          0.201996          0.465113
 Vib (V=0)    7  0.154475D+01          0.188859          0.434865
 Vib (V=0)    8  0.149374D+01          0.174274          0.401280
 Vib (V=0)    9  0.135274D+01          0.131213          0.302129
 Vib (V=0)   10  0.121843D+01          0.085799          0.197560
 Vib (V=0)   11  0.116120D+01          0.064908          0.149455
 Vib (V=0)   12  0.107583D+01          0.031743          0.073092
 Vib (V=0)   13  0.107200D+01          0.030193          0.069523
 Electronic      0.200000D+01          0.301030          0.693147
 Translational   0.484981D+08          7.685724         17.697035
 Rotational      0.376196D+06          5.575414         12.837865
 ***** Axes restored to original set *****
 -------------------------------------------------------------------
 Center     Atomic                   Forces (Hartrees/Bohr)
 Number     Number              X              Y              Z
 -------------------------------------------------------------------
      1        6          -0.000138650   -0.000784157   -0.000592148
      2        1           0.000099213   -0.000102805    0.000329519
      3        6          -0.003168633    0.001717427   -0.007596779
      4        6          -0.000665891    0.000442938   -0.002385364
      5        8           0.000219685    0.000944248    0.001338036
      6        8           0.000561491   -0.000228641    0.000201034
      7        6           0.000502163   -0.000374540   -0.000050458
      8        6          -0.000175546    0.000113708   -0.000060171
      9        1           0.000017323    0.000078303   -0.000144286
     10        1           0.000080381   -0.000093104   -0.000087727
     11        1          -0.000044042   -0.000022081    0.000057152
     12        1           0.000002186    0.000071746    0.000024710
     13        1           0.000004354    0.000083652   -0.000041096
     14        8           0.002840471   -0.001987578    0.008854264
     15        1          -0.000134505    0.000140885    0.000153313
 -------------------------------------------------------------------
 Cartesian Forces:  Max     0.008854264 RMS     0.001956602

 GradGradGradGradGradGradGradGradGradGradGradGradGradGradGradGradGradGrad
 Berny optimization.
 Search for a local minimum.
 Step number   1 out of a maximum of    2
 All quantities printed in internal units (Hartrees-Bohrs-Radians)
 Second derivative matrix not updated -- analytic derivatives used.
 ITU=  0
     Eigenvalues ---    0.00077   0.00088   0.00197   0.00234   0.00313
     Eigenvalues ---    0.00363   0.00488   0.00926   0.01835   0.02166
     Eigenvalues ---    0.02870   0.02913   0.03311   0.06008   0.06282
     Eigenvalues ---    0.07790   0.08074   0.08806   0.08926   0.09984
     Eigenvalues ---    0.11557   0.13921   0.16953   0.17678   0.23295
     Eigenvalues ---    0.24679   0.27402   0.35200   0.51806   0.62798
     Eigenvalues ---    0.71399   0.77309   0.78143   0.86619   0.88134
     Eigenvalues ---    0.94656   0.97778   1.76940   2.64062
 Quadratic step=8.578D-01 exceeds max=3.000D-01 adjusted using Lamda=-1.616D-02.
 Angle between NR and scaled steps=  46.33 degrees.
 Angle between quadratic step and forces=  13.37 degrees.
 Linear search not attempted -- first point.
 B after Tr=    -0.000467   -0.000648    0.002071
         Rot=    1.000000   -0.000527    0.000058    0.000175 Ang=  -0.06 deg.
 Variable       Old X    -DE/DX   Delta X   Delta X   Delta X     New X
                                 (Linear)    (Quad)   (Total)
    X1        2.45308  -0.00014   0.00000  -0.02843  -0.02959   2.42348
    Y1       -2.71694  -0.00078   0.00000  -0.00430  -0.00347  -2.72041
    Z1       -2.17069  -0.00059   0.00000  -0.03344  -0.03396  -2.20465
    X2        3.19531   0.00010   0.00000   0.00002  -0.00165   3.19366
    Y2       -4.40446  -0.00010   0.00000  -0.01937  -0.01801  -4.42248
    Z2       -2.97984   0.00033   0.00000   0.02512   0.02290  -2.95694
    X3        1.60408  -0.00317   0.00000  -0.06991  -0.07049   1.53358
    Y3       -0.83466   0.00172   0.00000   0.03536   0.03564  -0.79902
    Z3       -1.21939  -0.00760   0.00000  -0.16369  -0.16228  -1.38168
    X4        0.65330  -0.00067   0.00000  -0.01718  -0.01701   0.63629
    Y4        1.65928   0.00044   0.00000   0.01490   0.01454   1.67382
    Z4       -0.43518  -0.00239   0.00000  -0.05096  -0.04706  -0.48223
    X5        1.83564   0.00022   0.00000   0.00601   0.00689   1.84253
    Y5        3.52337   0.00094   0.00000   0.02092   0.02057   3.54394
    Z5       -0.91395   0.00134   0.00000   0.02335   0.02937  -0.88458
    X6       -1.55789   0.00056   0.00000   0.00558   0.00564  -1.55225
    Y6        1.74508  -0.00023   0.00000  -0.00040  -0.00129   1.74379
    Z6        0.75268   0.00020   0.00000  -0.00588  -0.00215   0.75053
    X7       -2.96951   0.00050   0.00000   0.01015   0.00935  -2.96016
    Y7       -0.52427  -0.00037   0.00000  -0.00373  -0.00467  -0.52894
    Z7        1.26794  -0.00005   0.00000  -0.00987  -0.00870   1.25924
    X8       -4.58030  -0.00018   0.00000  -0.00058  -0.00137  -4.58168
    Y8       -1.26403   0.00011   0.00000  -0.00115   0.00084  -1.26319
    Z8       -0.98256  -0.00006   0.00000  -0.00323  -0.00302  -0.98557
    X9       -1.67634   0.00002   0.00000   0.01472   0.01334  -1.66300
    Y9       -2.02583   0.00008   0.00000  -0.00204  -0.00403  -2.02985
    Z9        1.83451  -0.00014   0.00000  -0.01598  -0.01624   1.81827
   X10       -4.13457   0.00008   0.00000   0.01497   0.01416  -4.12041
   Y10       -0.02210  -0.00009   0.00000  -0.00755  -0.00979  -0.03190
   Z10        2.88804  -0.00009   0.00000  -0.00497  -0.00340   2.88464
   X11       -5.81836  -0.00004   0.00000  -0.00237  -0.00256  -5.82092
   Y11        0.29278  -0.00002   0.00000   0.00001   0.00299   0.29578
   Z11       -1.52366   0.00006   0.00000   0.00437   0.00608  -1.51758
   X12       -3.40772   0.00000   0.00000  -0.00777  -0.00856  -3.41628
   Y12       -1.77370   0.00007   0.00000  -0.00073   0.00257  -1.77113
   Z12       -2.60076   0.00002   0.00000  -0.00786  -0.00805  -2.60881
   X13       -5.74713   0.00000   0.00000   0.00020  -0.00122  -5.74836
   Y13       -2.89439   0.00008   0.00000  -0.00032   0.00157  -2.89283
   Z13       -0.49386  -0.00004   0.00000   0.00053  -0.00111  -0.49496
   X14        2.68014   0.00284   0.00000   0.06628   0.06483   2.74497
   Y14       -1.73815  -0.00199   0.00000  -0.05521  -0.06002  -1.79817
   Z14        2.83914   0.00885   0.00000   0.19864   0.19913   3.03827
   X15        4.45299  -0.00013   0.00000   0.01948   0.01825   4.47124
   Y15       -1.37638   0.00014   0.00000   0.02747   0.02257  -1.35381
   Z15        2.52486   0.00015   0.00000   0.02732   0.02848   2.55334
         Item               Value     Threshold  Converged?
 Maximum Force            0.008854     0.000450     NO 
 RMS     Force            0.001957     0.000300     NO 
 Maximum Displacement     0.199132     0.001800     NO 
 RMS     Displacement     0.044679     0.001200     NO 
 Predicted change in Energy=-2.643122D-03
 GradGradGradGradGradGradGradGradGradGradGradGradGradGradGradGradGradGrad


 ----------------------------------------------------------------------

 Electric dipole moment (input orientation):
 (Debye = 10**-18 statcoulomb cm , SI units = C m)
                  (au)            (Debye)         (10**-30 SI)
   Tot        0.166849D+01      0.424089D+01      0.141461D+02
   x         -0.157002D+00     -0.399058D+00     -0.133112D+01
   y         -0.165345D+01     -0.420265D+01     -0.140185D+02
   z         -0.159129D+00     -0.404466D+00     -0.134915D+01

 Dipole polarizability, Alpha (input orientation).
 (esu units = cm**3 , SI units = C**2 m**2 J**-1)
 Alpha(0;0):
               (au)            (10**-24 esu)      (10**-40 SI)
   iso        0.711022D+02      0.105363D+02      0.117232D+02
   aniso      0.122643D+02      0.181738D+01      0.202211D+01
   xx         0.721629D+02      0.106934D+02      0.118980D+02
   yx        -0.782116D+00     -0.115898D+00     -0.128953D+00
   yy         0.738301D+02      0.109405D+02      0.121729D+02
   zx        -0.404189D+01     -0.598946D+00     -0.666417D+00
   zy         0.466150D+01      0.690763D+00      0.768578D+00
   zz         0.673137D+02      0.997486D+01      0.110985D+02

 ----------------------------------------------------------------------

 Dipole orientation:
     6          2.50487195         -2.17145694          2.66864115
     1          3.33765401         -2.90539371          4.34827838
     6          1.55967127         -1.30231579          0.79249183
     6          0.43492184         -0.64060624         -1.66428844
     8          1.36848111         -1.39648110         -3.57716877
     8         -1.65169668          0.75712505         -1.65453865
     6         -2.76709411          1.60747534          0.67804325
     6         -4.49763244         -0.39337444          1.77734348
     1         -1.27848775          2.16414549          1.99034139
     1         -3.82006189          3.29009090          0.13551750
     1         -5.93496278         -0.93521930          0.40266541
     1         -3.43625840         -2.07424429          2.32640881
     1         -5.43899615          0.35073126          3.45619100
     8          3.10023186          2.68603580          1.19950792
     1          4.78886300          2.16088219          0.70414728

 Electric dipole moment (dipole orientation):
 (Debye = 10**-18 statcoulomb cm , SI units = C m)
                  (au)            (Debye)         (10**-30 SI)
   Tot        0.166849D+01      0.424089D+01      0.141461D+02
   x          0.000000D+00      0.000000D+00      0.000000D+00
   y          0.000000D+00      0.000000D+00      0.000000D+00
   z          0.166849D+01      0.424089D+01      0.141461D+02

 Dipole polarizability, Alpha (dipole orientation).
 (esu units = cm**3 , SI units = C**2 m**2 J**-1)
 Alpha(0;0):
               (au)            (10**-24 esu)      (10**-40 SI)
   iso        0.711022D+02      0.105363D+02      0.117232D+02
   aniso      0.122643D+02      0.181738D+01      0.202211D+01
   xx         0.714536D+02      0.105883D+02      0.117811D+02
   yx        -0.482026D+01     -0.714289D+00     -0.794753D+00
   yy         0.674342D+02      0.999271D+01      0.111184D+02
   zx         0.100237D+01      0.148536D+00      0.165268D+00
   zy        -0.368909D+01     -0.546666D+00     -0.608248D+00
   zz         0.744188D+02      0.110277D+02      0.122700D+02

 ----------------------------------------------------------------------
 1\1\GINC-BOSON\Freq\UM062X\6-311++G(d,p)\C5H7O3(2)\LOKI\28-Mar-2025\0\
 \# freq 6-311++g(d,p) m062x\\Title Card Required\\0,2\C,1.298112,-1.43
 7743,-1.148681\H,1.690886,-2.330742,-1.576864\C,0.848841,-0.441683,-0.
 645276\C,0.345714,0.878052,-0.230286\O,0.971379,1.864488,-0.483644\O,-
 0.824398,0.923457,0.398299\C,-1.571398,-0.277433,0.670964\C,-2.423793,
 -0.668898,-0.519946\H,-0.887082,-1.072022,0.970779\H,-2.187919,-0.0116
 97,1.528287\H,-3.078943,0.154935,-0.806285\H,-1.803288,-0.938601,-1.37
 6265\H,-3.041252,-1.531647,-0.261337\O,1.418268,-0.91979,1.50241\H,2.3
 56419,-0.728347,1.336101\\Version=ES64L-G16RevA.03\State=2-A\HF=-420.2
 014432\S2=0.75763\S2-1=0.\S2A=0.750037\RMSD=7.120e-09\RMSF=1.957e-03\Z
 eroPoint=0.1119739\Thermal=0.1222734\Dipole=-0.1570017,-1.6534517,-0.1
 591291\DipoleDeriv=-0.2172978,0.0802154,-0.0663305,0.1013945,-0.253927
 3,0.1442499,0.0332888,-0.0370747,-0.0958651,0.2253198,-0.0135931,-0.02
 73563,-0.0166547,0.2505134,0.0330153,-0.0202204,0.0185206,0.2174194,-0
 .2086427,0.1046515,0.0975869,0.1154974,-0.3180375,-0.2248316,-0.046164
 7,-0.0813286,-0.4594012,2.0501218,0.3331428,-0.5988871,-0.0235727,1.70
 38429,-0.0610561,-0.8273026,-0.0775986,0.7561425,-0.8528794,-0.3143217
 ,0.1743321,-0.3550785,-1.2398207,0.1508158,0.2248578,0.0939128,-0.4435
 891,-1.5571562,-0.4293415,0.3671574,-0.1793269,-0.6488223,0.01489,0.58
 15834,0.1760126,-0.5438836,0.6534474,0.2470275,-0.027204,0.4412339,0.5
 114592,-0.0497658,-0.0425748,-0.022032,0.3413592,-0.0381501,-0.0428582
 ,-0.0361302,-0.0789339,0.0289675,-0.0044904,-0.0703001,-0.0557617,-0.0
 721764,-0.0119012,0.0346466,-0.0447151,-0.0283309,-0.0337613,0.0221668
 ,-0.0213878,0.0093996,0.0437363,-0.022475,-0.0186322,0.0667773,0.00040
 95,0.0379013,-0.0645715,0.0629999,-0.0202404,-0.0429002,0.0108406,0.05
 24019,-0.0428114,0.1006515,-0.0231149,0.0381007,-0.0367265,0.0031923,0
 .0496797,0.0103382,0.0256608,0.0865522,0.0235039,0.057515,-0.0277728,0
 .0494875,-0.0361505,-0.0383635,0.000214,-0.0770696,0.0089448,-0.104915
 5,-0.0333014,0.0324259,0.0146314,0.0440052,0.0579433,-0.2542254,0.0456
 951,-0.0760966,0.0421269,-0.3294708,-0.0120793,0.0287582,-0.0102407,-0
 .0898186,0.212446,-0.0276254,0.1181803,-0.0380045,0.2900569,0.0089032,
 0.0690698,-0.0046156,0.3197174\Polar=72.162856,-0.7821157,73.8301047,-
 4.0418876,4.6615017,67.3136715\Quadrupole=5.2083166,-4.5452427,-0.6630
 739,-3.3907788,0.0266676,3.2913172\PG=C01 [X(C5H7O3)]\NImag=0\\0.26146
 966,-0.45886956,1.08161972,-0.22187990,0.50225673,0.30686775,-0.080873
 10,0.12302422,0.05789905,0.07068334,0.12332005,-0.30545697,-0.13442595
 ,-0.12293819,0.29506907,0.05677982,-0.13177404,-0.09056612,-0.05822314
 ,0.13394864,0.08063334,-0.18464720,0.33800881,0.16788670,0.00543868,-0
 .00263917,0.00121270,0.28983452,0.33788676,-0.78094887,-0.37173199,-0.
 00128104,0.00915803,-0.00094032,-0.41011229,1.03665146,0.16023331,-0.3
 5597423,-0.20461252,0.00051141,0.00250730,0.00669948,-0.20971189,0.423
 54010,0.26079339,0.00686333,-0.00548331,-0.00366807,0.00529808,0.00292
 721,0.00094730,-0.09895166,0.07053747,0.02433657,0.62057269,-0.0058040
 8,0.00985854,0.00707179,0.00118451,0.00050331,-0.00110855,0.05641707,-
 0.17982571,-0.05283620,0.22357166,0.87770265,0.00011666,-0.00248994,0.
 00257964,0.00055796,-0.00265502,0.00420322,0.01938412,-0.04773557,-0.0
 8400455,-0.20604694,-0.06006308,0.31083206,-0.00057751,0.00287708,0.00
 051715,-0.00059096,-0.00041967,-0.00038426,0.01874262,-0.01377217,0.00
 148384,-0.26105956,-0.28611402,0.07484772,0.31123947,0.00272029,-0.002
 54479,-0.00235180,0.00117703,0.00128940,-0.00029974,-0.01737852,-0.077
 61436,0.00195566,-0.29600507,-0.58917388,0.11587989,0.35590600,0.65919
 698,0.00031301,-0.00124940,0.00002842,-0.00024529,0.00053382,-0.000714
 36,0.00107078,-0.00239678,0.02122688,0.07320441,0.10946682,-0.10715680
 ,-0.11957956,-0.13676807,0.08490490,-0.00187793,0.00568318,0.00217485,
 0.00005900,-0.00018884,-0.00059108,-0.02157337,0.01430254,0.02118211,-
 0.24449603,0.04039698,0.10450651,-0.06819152,-0.04841399,0.04160804,0.
 46176940,0.00077468,-0.00301997,-0.00083064,-0.00096005,-0.00060713,0.
 00023396,0.03058305,-0.00793079,-0.01656631,0.01273551,-0.11757021,-0.
 01238240,-0.06337584,0.00456199,0.03277729,0.09709915,0.35964685,0.000
 88575,-0.00267871,-0.00030784,-0.00053624,0.00021171,-0.00035864,0.023
 72798,-0.01012299,0.00274785,0.10730655,-0.02654651,-0.10783835,0.0389
 5466,0.02446333,-0.00276214,-0.19766614,-0.02443441,0.16910849,0.00016
 910,-0.00258996,-0.00070725,-0.00005072,0.00012103,0.00022022,-0.00152
 912,-0.00063091,0.00126761,-0.03449256,-0.02593481,0.01346479,0.003878
 17,0.00357566,0.00076937,-0.09745671,-0.03283333,0.01748950,0.56072524
 ,0.00031862,-0.00306183,-0.00074225,-0.00003953,0.00006141,0.00009411,
 0.00511364,0.00022104,-0.00297223,-0.02648047,0.00801333,0.01624621,0.
 01184715,0.00699109,-0.00614239,-0.04999176,-0.18220717,0.01847615,-0.
 10328381,0.51169468,0.00031804,0.00145089,-0.00056088,0.00010075,0.000
 06306,-0.00006043,0.00163819,-0.00099506,-0.00069021,0.01323953,0.0168
 5344,-0.01787061,0.00271086,-0.00240784,0.00533755,0.01632494,0.012664
 97,-0.06566653,-0.03563343,0.00852070,0.56992484,0.00005091,-0.0000044
 1,-0.00015239,-0.00004474,0.00001042,-0.00007041,-0.00119840,0.0001097
 7,0.00045975,0.00227757,-0.00113469,-0.00472267,-0.00093424,-0.0005471
 7,0.00151512,-0.01959041,-0.01770566,-0.01285000,-0.11852019,-0.007603
 89,-0.05549655,0.55221006,-0.00021446,0.00064325,0.00001428,-0.0000513
 4,-0.00005747,0.00002395,-0.00054047,0.00018885,0.00007237,0.00557077,
 -0.00142482,-0.00554639,-0.00198358,-0.00127845,0.00228057,-0.03282505
 ,-0.02025308,-0.01984320,-0.00441555,-0.08159995,-0.01777811,-0.015728
 50,0.58044259,-0.00031146,-0.00040343,-0.00039581,0.00013369,-0.000035
 75,0.00003817,-0.00059479,0.00010811,-0.00056332,-0.00285738,0.0016676
 8,0.00442654,0.00135230,0.00100844,-0.00154170,0.00917952,0.00156196,0
 .00985322,-0.06263987,-0.02645849,-0.17781779,-0.04161376,-0.02153815,
 0.53331306,-0.00076893,0.00000784,0.00051085,-0.00003885,-0.00000287,0
 .00006500,-0.00187073,0.00008697,0.00126185,0.00505940,-0.00255740,-0.
 00124441,-0.00153531,-0.00015329,0.00048936,0.00856837,-0.02292771,0.0
 0860762,-0.16621336,0.13328221,-0.04622873,-0.01005356,0.01207336,-0.0
 0413785,0.17986430,0.00026713,0.00048486,-0.00019369,0.00004895,0.0000
 5482,-0.00002508,-0.00049864,0.00059463,0.00036626,0.00760278,-0.00081
 900,-0.00316794,-0.00202529,-0.00036801,0.00049559,0.00446086,-0.03356
 745,0.01164510,0.11996355,-0.18723491,0.05178788,-0.00663974,0.0108583
 5,-0.00312311,-0.12936447,0.21301744,-0.00007132,0.00010750,-0.0001005
 8,0.00009237,-0.00003963,-0.00006124,0.00156103,0.00019478,-0.00141545
 ,-0.00247104,0.00200671,0.00152478,0.00071468,-0.00022583,-0.00036760,
 -0.00055631,0.00719308,-0.00235009,-0.04332861,0.05001864,-0.07177620,
 -0.01796325,0.01857480,-0.00612494,0.04858758,-0.05756410,0.07358243,-
 0.00025193,0.00008071,0.00017589,-0.00001220,-0.00005920,-0.00001740,-
 0.00000748,0.00036041,-0.00011232,0.00208757,-0.00290218,0.00054019,-0
 .00154705,-0.00058579,0.00040661,-0.01850813,-0.00311538,0.01622676,-0
 .13600293,0.04292140,0.11906557,0.01307465,-0.00521665,-0.01775808,-0.
 00986361,0.00542813,0.01587633,0.15188846,0.00008552,0.00049795,0.0000
 5356,-0.00001614,0.00002802,0.00001939,-0.00024755,0.00013164,-0.00013
 061,0.00257243,-0.00445715,0.00110036,-0.00287198,-0.00105040,0.000551
 60,-0.03131745,-0.00221964,0.02856906,0.05292949,-0.06821958,-0.063703
 09,0.00501382,-0.00127398,-0.00572784,0.01206193,-0.00339639,-0.018890
 46,-0.03645287,0.07866300,-0.00008867,-0.00015915,0.00010681,-0.000017
 51,0.00000271,0.00000052,-0.00003657,0.00023775,-0.00000042,-0.0027322
 4,0.00065814,0.00079205,0.00074387,0.00036766,-0.00022832,0.00829648,0
 .00258119,-0.00366517,0.12121490,-0.05457326,-0.21850108,0.01349149,-0
 .00823761,-0.02055059,-0.00545843,0.00122042,0.00888607,-0.13208168,0.
 05876893,0.23452047,-0.00007701,-0.00025985,-0.00009405,0.00003661,-0.
 00001380,-0.00001370,0.00000983,0.00004138,-0.00017312,-0.00111061,0.0
 0072974,0.00046050,0.00021052,-0.00019961,-0.00005991,0.00200792,0.000
 32955,0.00134601,-0.01297972,0.01468912,-0.00608774,-0.14504066,0.1243
 3185,-0.04025052,-0.00069381,-0.00162085,-0.00302013,0.00077599,-0.000
 56276,0.00047834,0.15490821,0.00004182,0.00000336,0.00001338,-0.000044
 94,-0.00000231,0.00001525,0.00011655,-0.00001445,0.00004119,-0.0006337
 6,-0.00016238,0.00041735,0.00022377,0.00024332,-0.00014636,0.00137004,
 0.00173796,-0.00000037,-0.00778573,0.00724315,-0.00317003,0.12601855,-
 0.20596276,0.05349246,-0.00173638,0.00002261,-0.00177173,0.00036147,0.
 00044620,0.00076310,-0.13618367,0.21930389,0.00014178,0.00008796,0.000
 11484,-0.00005755,-0.00000842,-0.00001271,0.00029147,-0.00006705,0.000
 06119,-0.00000342,-0.00028512,0.00002521,-0.00011013,0.00008646,-0.000
 02976,0.00215876,-0.00002933,0.00152216,-0.01782986,0.02369784,-0.0087
 7784,-0.04016417,0.05090779,-0.06535154,-0.00258090,-0.00278387,-0.003
 57195,0.00068434,0.00045235,0.00084371,0.04786518,-0.05674253,0.070480
 00,-0.00059219,-0.00011111,-0.00015015,0.00003187,0.00006439,0.0000630
 9,-0.00158796,0.00013593,-0.00035388,0.00029296,-0.00061959,0.00010888
 ,-0.00011387,0.00032065,-0.00004874,0.00164257,0.00146273,0.00136014,0
 .01273570,-0.00586030,-0.01797340,-0.13874689,0.03924868,0.12393356,0.
 00087977,0.00038421,0.00104250,-0.00213435,-0.00145089,-0.00375056,-0.
 01072677,0.00262701,0.01433253,0.14875755,0.00025729,-0.00019360,0.000
 10436,0.00009401,0.00005324,-0.00001319,-0.00011007,0.00009466,-0.0000
 3930,-0.00068600,0.00007435,-0.00041381,0.00006187,-0.00017910,0.00008
 657,0.00126124,0.00060898,0.00055614,0.00398354,-0.00361461,-0.0073157
 2,0.03966068,-0.06477658,-0.05163053,-0.00037183,0.00006839,0.00078464
 ,-0.00105520,0.00070819,-0.00131273,0.01329107,-0.00531505,-0.02012397
 ,-0.04191392,0.06487738,0.00049340,0.00024956,0.00028054,-0.00009165,0
 .00002259,0.00003946,0.00014434,0.00003701,0.00022181,0.00073341,-0.00
 154463,-0.00093535,-0.00050271,0.00013617,0.00022973,-0.00096737,0.001
 11535,0.00282306,0.01738857,-0.00568109,-0.02318104,0.12083334,-0.0520
 1199,-0.21150589,0.00029760,0.00026343,0.00095434,-0.00408560,-0.00116
 222,-0.00272139,-0.00567478,0.00180147,0.00791681,-0.13144921,0.058261
 16,0.23123393,-0.00012695,0.00017439,0.00001654,-0.00004136,-0.0000599
 8,0.00000338,-0.00018344,0.00004032,-0.00006070,0.00223891,-0.00001989
 ,-0.00133703,-0.00065404,-0.00043361,0.00054237,-0.00364462,-0.0020094
 7,-0.00299509,-0.00952483,-0.01285719,0.00826242,-0.13294359,-0.121197
 18,0.03566725,0.00002101,0.00071591,0.00014935,0.00062611,0.00002434,-
 0.00005102,0.01290894,0.01576061,-0.00443597,-0.01038222,-0.01442209,0
 .00297592,0.14163949,-0.00002004,0.00007851,0.00003812,0.00001299,-0.0
 0000990,-0.00000601,-0.00002037,0.00005172,0.00007733,0.00153871,-0.00
 017691,-0.00121300,-0.00042255,-0.00030533,0.00031273,-0.00262100,0.00
 059476,-0.00114170,-0.00240887,-0.00703592,0.00380291,-0.12152865,-0.2
 1573976,0.05111564,-0.00019271,0.00016700,-0.00027654,0.00026494,0.000
 07266,-0.00026184,-0.01451594,-0.01754760,0.00483891,0.00571640,0.0076
 2865,-0.00152038,0.13422517,0.23218156,0.00005875,0.00013168,0.0001292
 5,0.00000586,0.00002661,0.00000297,0.00002676,0.00010665,0.00009890,0.
 00181043,-0.00092180,-0.00249489,-0.00087953,-0.00054143,0.00091458,-0
 .00709919,-0.00362421,-0.00270798,-0.01163663,-0.01964170,0.00943097,0
 .03693053,0.05282116,-0.06386106,0.00016982,0.00089207,0.00075508,0.00
 119652,0.00002663,0.00064002,0.00524392,0.00532712,-0.00313114,0.01292
 754,0.02112127,-0.00522885,-0.03878630,-0.05576057,0.06548294,0.000408
 68,-0.00174263,-0.00277474,-0.00007792,0.00004425,-0.00000887,-0.00232
 492,0.00174732,-0.00211746,-0.00238556,0.00067949,-0.00060172,0.000926
 05,0.00070220,0.00001272,0.00015474,0.00016683,-0.00132777,-0.00054817
 ,-0.00103341,-0.00051697,-0.00048300,0.00065716,-0.00012543,-0.0030785
 8,0.00076493,-0.00066146,-0.00016309,0.00019455,0.00003072,-0.00020450
 ,-0.00008231,-0.00020599,-0.00000640,-0.00002162,-0.00000463,0.0000207
 0,-0.00005032,0.00002098,0.48869064,-0.00087311,0.00284915,0.00104764,
 0.00003404,-0.00011778,0.00026078,0.00006147,-0.00027721,-0.00105253,-
 0.00022515,-0.00569086,0.00136400,0.00154748,0.00201074,0.00071762,0.0
 0112116,0.00058148,0.00056971,-0.00085913,-0.00142968,0.00017043,0.000
 08361,0.00031749,-0.00010628,-0.00014642,0.00041907,-0.00015175,-0.000
 02116,0.00010852,-0.00005717,-0.00009038,-0.00001029,-0.00004018,-0.00
 000611,-0.00003603,0.00006040,0.00008834,0.00005410,0.00006124,0.09670
 012,0.02245507,0.00427471,-0.00997957,-0.01310637,-0.00014519,0.000089
 27,0.00029260,-0.00297280,0.01071918,0.00219260,-0.00213608,0.00390769
 ,-0.00482562,-0.00042899,-0.00064317,0.00037211,0.00089628,0.00016714,
 0.00036385,0.00034454,-0.00123518,0.00021472,-0.00023921,0.00031851,0.
 00013583,-0.00032939,0.00028954,-0.00019965,-0.00026875,0.00012955,-0.
 00014281,-0.00001539,-0.00002478,-0.00012450,0.00001894,-0.00006514,-0
 .00009312,0.00002339,-0.00002435,-0.00002371,-0.08242574,-0.02124120,0
 .03793637,0.00083108,-0.00079540,0.00024552,0.00018227,-0.00016563,0.0
 0001735,-0.00015135,0.00054752,0.00179291,-0.00219454,0.00210720,-0.00
 003456,0.00020723,-0.00068480,0.00000170,0.00113674,-0.00022405,-0.000
 52973,-0.00018991,-0.00102178,0.00027652,-0.00005752,0.00029097,0.0000
 2282,-0.00027611,0.00051253,0.00004829,0.00003798,0.00003756,-0.000039
 12,-0.00002493,-0.00005302,-0.00008607,-0.00004978,-0.00002896,-0.0000
 9064,0.00004590,0.00002224,0.00001054,-0.48092866,-0.09741477,0.083403
 69,0.48143158,0.00010909,-0.00080929,-0.00032352,-0.00024453,0.0000342
 5,-0.00042915,0.00124648,-0.00048063,0.00101121,0.00245722,0.00314878,
 0.00065933,-0.00147826,-0.00177917,-0.00051961,-0.00033706,-0.00035660
 ,0.00027669,0.00016882,0.00017895,0.00005555,-0.00000413,-0.00008368,0
 .00006929,-0.00005923,-0.00030140,0.00003990,-0.00000863,-0.00003902,0
 .00000186,0.00003414,0.00001436,0.00000915,0.00000192,0.00000112,-0.00
 002684,-0.00002967,-0.00001353,-0.00002472,-0.09872656,-0.02123376,0.0
 1759251,0.09687039,0.02171963,-0.00126387,0.00042415,-0.00045714,0.000
 01547,-0.00024093,-0.00013628,-0.00362804,-0.00095382,-0.00275564,-0.0
 0166302,0.00167361,0.00074266,0.00056011,-0.00065975,-0.00021350,0.000
 55259,-0.00042765,-0.00076188,-0.00038386,0.00039294,-0.00000547,0.000
 04218,-0.00005796,-0.00005421,-0.00000996,-0.00010249,0.00026499,0.000
 15164,-0.00005720,0.00002011,-0.00000461,-0.00001552,0.00003551,-0.000
 06126,0.00000025,-0.00003406,0.00002548,0.00001875,-0.00000709,0.09070
 638,0.01839730,-0.02299230,-0.08503923,-0.01839167,0.02635429\\0.00013
 865,0.00078416,0.00059215,-0.00009921,0.00010280,-0.00032952,0.0031686
 3,-0.00171743,0.00759678,0.00066589,-0.00044294,0.00238536,-0.00021968
 ,-0.00094425,-0.00133804,-0.00056149,0.00022864,-0.00020103,-0.0005021
 6,0.00037454,0.00005046,0.00017555,-0.00011371,0.00006017,-0.00001732,
 -0.00007830,0.00014429,-0.00008038,0.00009310,0.00008773,0.00004404,0.
 00002208,-0.00005715,-0.00000219,-0.00007175,-0.00002471,-0.00000435,-
 0.00008365,0.00004110,-0.00284047,0.00198758,-0.00885426,0.00013450,-0
 .00014089,-0.00015331\\\@


 At the touch of love, everyone becomves a poet.
                                -- Plato
 Job cpu time:       0 days  1 hours 16 minutes 43.4 seconds.
 Elapsed time:       0 days  0 hours 12 minutes 59.8 seconds.
 File lengths (MBytes):  RWF=    146 Int=      0 D2E=      0 Chk=      5 Scr=      1
 Normal termination of Gaussian 16 at Fri Mar 28 17:44:21 2025.
