 Entering Gaussian System, Link 0=g16
 Initial command:
 /opt/g16/l1.exe "/home/aayush/scratches/g16/Gau-10599.inp" -scrdir="/home/aayush/scratches/g16/"
 Entering Link 1 = /opt/g16/l1.exe PID=     10602.
  
 Copyright (c) 1988,1990,1992,1993,1995,1998,2003,2009,2016,
            Gaussian, Inc.  All Rights Reserved.
  
 This is part of the Gaussian(R) 16 program.  It is based on
 the Gaussian(R) 09 system (copyright 2009, Gaussian, Inc.),
 the Gaussian(R) 03 system (copyright 2003, Gaussian, Inc.),
 the Gaussian(R) 98 system (copyright 1998, Gaussian, Inc.),
 the Gaussian(R) 94 system (copyright 1995, Gaussian, Inc.),
 the Gaussian 92(TM) system (copyright 1992, Gaussian, Inc.),
 the Gaussian 90(TM) system (copyright 1990, Gaussian, Inc.),
 the Gaussian 88(TM) system (copyright 1988, Gaussian, Inc.),
 the Gaussian 86(TM) system (copyright 1986, Carnegie Mellon
 University), and the Gaussian 82(TM) system (copyright 1983,
 Carnegie Mellon University). Gaussian is a federally registered
 trademark of Gaussian, Inc.
  
 This software contains proprietary and confidential information,
 including trade secrets, belonging to Gaussian, Inc.
  
 This software is provided under written license and may be
 used, copied, transmitted, or stored only in accord with that
 written license.
  
 The following legend is applicable only to US Government
 contracts under FAR:
  
                    RESTRICTED RIGHTS LEGEND
  
 Use, reproduction and disclosure by the US Government is
 subject to restrictions as set forth in subparagraphs (a)
 and (c) of the Commercial Computer Software - Restricted
 Rights clause in FAR 52.227-19.
  
 Gaussian, Inc.
 340 Quinnipiac St., Bldg. 40, Wallingford CT 06492
  
  
 ---------------------------------------------------------------
 Warning -- This program may not be used in any manner that
 competes with the business of Gaussian, Inc. or will provide
 assistance to any competitor of Gaussian, Inc.  The licensee
 of this program is prohibited from giving any competitor of
 Gaussian, Inc. access to this program.  By using this program,
 the user acknowledges that Gaussian, Inc. is engaged in the
 business of creating and licensing software in the field of
 computational chemistry and represents and warrants to the
 licensee that it is not a competitor of Gaussian, Inc. and that
 it will not use this program in any manner prohibited above.
 ---------------------------------------------------------------
  

 Cite this work as:
 Gaussian 16, Revision A.03,
 M. J. Frisch, G. W. Trucks, H. B. Schlegel, G. E. Scuseria, 
 M. A. Robb, J. R. Cheeseman, G. Scalmani, V. Barone, 
 G. A. Petersson, H. Nakatsuji, X. Li, M. Caricato, A. V. Marenich, 
 J. Bloino, B. G. Janesko, R. Gomperts, B. Mennucci, H. P. Hratchian, 
 J. V. Ortiz, A. F. Izmaylov, J. L. Sonnenberg, D. Williams-Young, 
 F. Ding, F. Lipparini, F. Egidi, J. Goings, B. Peng, A. Petrone, 
 T. Henderson, D. Ranasinghe, V. G. Zakrzewski, J. Gao, N. Rega, 
 G. Zheng, W. Liang, M. Hada, M. Ehara, K. Toyota, R. Fukuda, 
 J. Hasegawa, M. Ishida, T. Nakajima, Y. Honda, O. Kitao, H. Nakai, 
 T. Vreven, K. Throssell, J. A. Montgomery, Jr., J. E. Peralta, 
 F. Ogliaro, M. J. Bearpark, J. J. Heyd, E. N. Brothers, K. N. Kudin, 
 V. N. Staroverov, T. A. Keith, R. Kobayashi, J. Normand, 
 K. Raghavachari, A. P. Rendell, J. C. Burant, S. S. Iyengar, 
 J. Tomasi, M. Cossi, J. M. Millam, M. Klene, C. Adamo, R. Cammi, 
 J. W. Ochterski, R. L. Martin, K. Morokuma, O. Farkas, 
 J. B. Foresman, and D. J. Fox, Gaussian, Inc., Wallingford CT, 2016.
 
 ******************************************
 Gaussian 16:  ES64L-G16RevA.03 25-Dec-2016
                12-May-2025 
 ******************************************
 %chk=ethyl_propiolate.chk
 %nprocshared=24
 Will use up to   24 processors via shared memory.
 %mem=12GB
 --------------------------
 # ccsd(t)/6-311++g(d,p) sp
 --------------------------
 1/38=1,172=1/1;
 2/12=2,17=6,18=5,40=1/2;
 3/5=4,6=6,7=1111,11=9,25=1,30=1/1,2,3;
 4//1;
 5/5=2,38=5/2;
 8/6=4,9=120000,10=2/1,4;
 9/5=7,14=2/13;
 6/7=2,8=2,9=2,10=2/1;
 99/5=1,9=1/99;
 -------------------
 Title Card Required
 -------------------
 Symbolic Z-matrix:
 Charge =  0 Multiplicity = 2
 C                     1.28799  -1.41272  -1.16121 
 H                     1.65413  -2.29232  -1.64151 
 C                     0.94681  -0.50646  -0.36113 
 C                     0.35725   0.86996  -0.19893 
 O                     0.96793   1.84922  -0.50262 
 O                    -0.83124   0.92556   0.38995 
 C                    -1.57705  -0.27458   0.67482 
 C                    -2.42173  -0.67081  -0.51942 
 H                    -0.89814  -1.06692   0.99076 
 H                    -2.1983   -0.00131   1.5262 
 H                    -3.07499   0.15192  -0.81282 
 H                    -1.79404  -0.94065  -1.37158 
 H                    -3.03963  -1.53407  -0.26399 
 O                     1.3619   -0.87452   1.3052 
 H                     2.31685  -0.72548   1.29115 
 
                          Input orientation:                          
 ---------------------------------------------------------------------
 Center     Atomic      Atomic             Coordinates (Angstroms)
 Number     Number       Type             X           Y           Z
 ---------------------------------------------------------------------
      1          6           0        1.287994   -1.412722   -1.161208
      2          1           0        1.654132   -2.292317   -1.641509
      3          6           0        0.946814   -0.506459   -0.361129
      4          6           0        0.357246    0.869955   -0.198931
      5          8           0        0.967928    1.849218   -0.502622
      6          8           0       -0.831242    0.925557    0.389950
      7          6           0       -1.577051   -0.274575    0.674821
      8          6           0       -2.421729   -0.670814   -0.519415
      9          1           0       -0.898139   -1.066922    0.990759
     10          1           0       -2.198297   -0.001305    1.526200
     11          1           0       -3.074992    0.151915   -0.812823
     12          1           0       -1.794044   -0.940649   -1.371576
     13          1           0       -3.039634   -1.534072   -0.263991
     14          8           0        1.361903   -0.874521    1.305198
     15          1           0        2.316850   -0.725475    1.291150
 ---------------------------------------------------------------------
                    Distance matrix (angstroms):
                    1          2          3          4          5
     1  C    0.000000
     2  H    1.066974   0.000000
     3  C    1.256122   2.308454   0.000000
     4  C    2.646296   3.709839   1.506126   0.000000
     5  O    3.343117   4.349742   2.360017   1.193364   0.000000
     6  O    3.516362   4.545176   2.403388   1.327545   2.210621
     7  C    3.588156   4.458387   2.738039   2.411410   3.517639
     8  C    3.837235   4.527804   3.376263   3.193647   4.223816
     9  H    3.087024   3.865814   2.354904   2.596699   3.770446
    10  H    4.622606   5.488563   3.702555   3.204055   4.191126
    11  H    4.648130   5.387542   4.100294   3.559874   4.395710
    12  H    3.125071   3.713460   2.953274   3.046544   4.020812
    13  H    4.421322   4.950145   4.117911   4.162015   5.250157
    14  O    2.525526   3.283082   1.756250   2.512954   3.292747
    15  H    2.746800   3.390380   2.157543   2.933562   3.415590
                    6          7          8          9         10
     6  O    0.000000
     7  C    1.441423   0.000000
     8  C    2.430019   1.515482   0.000000
     9  H    2.082167   1.090207   2.181480   0.000000
    10  H    2.004739   1.088793   2.163956   1.764270   0.000000
    11  H    2.660752   2.153789   1.090745   3.078500   2.502618
    12  H    2.740928   2.162980   1.092235   2.529667   3.072929
    13  H    3.369630   2.146357   1.091908   2.525594   2.502400
    14  O    2.981249   3.065087   4.205542   2.289908   3.672380
    15  H    3.667227   3.968077   5.072994   3.246995   4.578889
                   11         12         13         14         15
    11  H    0.000000
    12  H    1.773902   0.000000
    13  H    1.773420   1.769291   0.000000
    14  O    5.022511   4.138779   4.719204   0.000000
    15  H    5.853928   4.902638   5.635975   0.966610   0.000000
 Stoichiometry    C5H7O3(2)
 Framework group  C1[X(C5H7O3)]
 Deg. of freedom    39
 Full point group                 C1      NOp   1
 Largest Abelian subgroup         C1      NOp   1
 Largest concise Abelian subgroup C1      NOp   1
                         Standard orientation:                         
 ---------------------------------------------------------------------
 Center     Atomic      Atomic             Coordinates (Angstroms)
 Number     Number       Type             X           Y           Z
 ---------------------------------------------------------------------
      1          6           0        1.349488   -1.385836   -1.123563
      2          1           0        1.716143   -2.275050   -1.585402
      3          6           0        1.005142   -0.464522   -0.342250
      4          6           0        0.419845    0.916810   -0.208976
      5          8           0        1.037129    1.888252   -0.524219
      6          8           0       -0.773436    0.987288    0.368509
      7          6           0       -1.526585   -0.204780    0.667576
      8          6           0       -2.362557   -0.618289   -0.526931
      9          1           0       -0.853674   -0.994215    1.003038
     10          1           0       -2.154020    0.085634    1.508679
     11          1           0       -3.009890    0.201812   -0.840169
     12          1           0       -1.728662   -0.905307   -1.368820
     13          1           0       -2.986173   -1.474550   -0.262014
     14          8           0        1.404344   -0.805328    1.333729
     15          1           0        2.359979   -0.660319    1.325405
 ---------------------------------------------------------------------
 Rotational constants (GHZ):           2.4744379           1.7132118           1.4135877
 Standard basis: 6-311++G(d,p) (5D, 7F)
 There are   233 symmetry adapted cartesian basis functions of A   symmetry.
 There are   225 symmetry adapted basis functions of A   symmetry.
   225 basis functions,   351 primitive gaussians,   233 cartesian basis functions
    31 alpha electrons       30 beta electrons
       nuclear repulsion energy       368.5615356118 Hartrees.
 NAtoms=   15 NActive=   15 NUniq=   15 SFac= 1.00D+00 NAtFMM=   60 NAOKFM=F Big=F
 Integral buffers will be    131072 words long.
 Raffenetti 2 integral format.
 Two-electron integral symmetry is turned on.
 One-electron integrals computed using PRISM.
 NBasis=   225 RedAO= T EigKep=  7.29D-06  NBF=   225
 NBsUse=   225 1.00D-06 EigRej= -1.00D+00 NBFU=   225
 ExpMin= 3.60D-02 ExpMax= 8.59D+03 ExpMxC= 1.30D+03 IAcc=3 IRadAn=         5 AccDes= 0.00D+00
 Harris functional with IExCor=  205 and IRadAn=       5 diagonalized for initial guess.
 HarFok:  IExCor=  205 AccDes= 0.00D+00 IRadAn=         5 IDoV= 1 UseB2=F ITyADJ=14
 ICtDFT=  3500011 ScaDFX=  1.000000  1.000000  1.000000  1.000000
 FoFCou: FMM=F IPFlag=           0 FMFlag=      100000 FMFlg1=           0
         NFxFlg=           0 DoJE=T BraDBF=F KetDBF=T FulRan=T
         wScrn=  0.000000 ICntrl=       500 IOpCl=  0 I1Cent=   200000004 NGrid=           0
         NMat0=    1 NMatS0=      1 NMatT0=    0 NMatD0=    1 NMtDS0=    0 NMtDT0=    0
 Petite list used in FoFCou.
 Initial guess <Sx>= 0.0000 <Sy>= 0.0000 <Sz>= 0.5000 <S**2>= 0.7500 S= 0.5000
 Requested convergence on RMS density matrix=1.00D-08 within 128 cycles.
 Requested convergence on MAX density matrix=1.00D-06.
 Requested convergence on             energy=1.00D-06.
 No special actions if energy rises.
 Initial convergence to 1.0D-05 achieved.  Increase integral accuracy.
 SCF Done:  E(UHF) =  -417.970967721     A.U. after   29 cycles
            NFock= 29  Conv=0.79D-08     -V/T= 2.0010
 <Sx>= 0.0000 <Sy>= 0.0000 <Sz>= 0.5000 <S**2>= 1.0708 S= 0.6492
 <L.S>=  0.00000000000    
 Annihilation of the first spin contaminant:
 S**2 before annihilation     1.0708,   after     0.8237
 ExpMin= 3.60D-02 ExpMax= 8.59D+03 ExpMxC= 1.30D+03 IAcc=3 IRadAn=         5 AccDes= 0.00D+00
 HarFok:  IExCor=  205 AccDes= 0.00D+00 IRadAn=         5 IDoV=-2 UseB2=F ITyADJ=14
 ICtDFT= 12500011 ScaDFX=  1.000000  1.000000  1.000000  1.000000
 Range of M.O.s used for correlation:     9   225
 NBasis=   225 NAE=    31 NBE=    30 NFC=     8 NFV=     0
 NROrb=    217 NOA=    23 NOB=    22 NVA=   194 NVB=   195

 **** Warning!!: The largest alpha MO coefficient is  0.11258944D+03


 **** Warning!!: The largest beta MO coefficient is  0.97332031D+02

 Semi-Direct transformation.
 ModeAB=           4 MOrb=            23 LenV=    1609168870
 LASXX=    109339976 LTotXX=   109339976 LenRXX=   221407890
 LTotAB=   112067914 MaxLAS=   132775573 LenRXY=           0
 NonZer=   330747866 LenScr=   498067456 LnRSAI=   132775573
 LnScr1=   199945216 LExtra=           0 Total=   1052196135
 MaxDsk=          -1 SrtSym=           T ITran=            4
 JobTyp=1 Pass  1:  I=   1 to  23.
 (rs|ai) integrals will be sorted in core.
 ModeAB=           4 MOrb=            22 LenV=    1609168870
 LASXX=    104936601 LTotXX=   104936601 LenRXX=   190867446
 LTotAB=    85930845 MaxLAS=   127002722 LenRXY=           0
 NonZer=   295804047 LenScr=   445446144 LnRSAI=   127002722
 LnScr1=   191264768 LExtra=           0 Total=    954581080
 MaxDsk=          -1 SrtSym=           T ITran=            4
 JobTyp=2 Pass  1:  I=   1 to  22.
 (rs|ai) integrals will be sorted in core.
 SymMOI:  orbitals are not symmetric.
 Spin components of T(2) and E(2):
     alpha-alpha T2 =       0.5252782737D-01 E2=     -0.1712569351D+00
     alpha-beta  T2 =       0.2817359196D+00 E2=     -0.9343391743D+00
     beta-beta   T2 =       0.5044304891D-01 E2=     -0.1607484412D+00
 ANorm=    0.1176735653D+01
 E2 =    -0.1266344551D+01 EUMP2 =    -0.41923731227120D+03
 (S**2,0)=  0.10708D+01           (S**2,1)=  0.97999D+00
 E(PUHF)=      -0.41799861877D+03        E(PMP2)=      -0.41926151686D+03
 Keep R2 and R3 ints in memory in canonical form, NReq=652884060.
 CIDS: In Core Option IDoMem=           1.
 Iterations=  50 Convergence= 0.100D-06
 Produce multiple copies of IABC intergrals
 Iteration Nr.   1
 **********************
 DD1Dir will call FoFMem   1 times, MxPair=      1496
 NAB=   506 NAA=   253 NBB=   231.
 E(PMP3)=      -0.41928378860D+03
 MP4(R+Q)=  0.24730552D-01
 E3=       -0.27846451D-01        EUMP3=      -0.41926515872D+03
 E4(DQ)=   -0.64792258D-02        UMP4(DQ)=   -0.41927163795D+03
 E4(SDQ)=  -0.29196956D-01        UMP4(SDQ)=  -0.41929435568D+03
 DE(Corr)=  -1.2691915     E(Corr)=     -419.24015925    
 NORM(A)=   0.11871530D+01
 Iteration Nr.   2
 **********************
 DD1Dir will call FoFMem   1 times, MxPair=      1496
 NAB=   506 NAA=   253 NBB=   231.
 DE(Corr)=  -1.3145813     E(CORR)=     -419.28554903     Delta=-4.54D-02
 NORM(A)=   0.12104158D+01
 Iteration Nr.   3
 **********************
 DD1Dir will call FoFMem   1 times, MxPair=      1496
 NAB=   506 NAA=   253 NBB=   231.
 DE(Corr)=  -1.3184107     E(CORR)=     -419.28937847     Delta=-3.83D-03
 NORM(A)=   0.12251269D+01
 Iteration Nr.   4
 **********************
 DD1Dir will call FoFMem   1 times, MxPair=      1496
 NAB=   506 NAA=   253 NBB=   231.
 DE(Corr)=  -1.3270713     E(CORR)=     -419.29803906     Delta=-8.66D-03
 NORM(A)=   0.12347498D+01
 Iteration Nr.   5
 **********************
 DD1Dir will call FoFMem   1 times, MxPair=      1496
 NAB=   506 NAA=   253 NBB=   231.
 DE(Corr)=  -1.3297000     E(CORR)=     -419.30066775     Delta=-2.63D-03
 NORM(A)=   0.12391859D+01
 Iteration Nr.   6
 **********************
 DD1Dir will call FoFMem   1 times, MxPair=      1496
 NAB=   506 NAA=   253 NBB=   231.
 DE(Corr)=  -1.3304689     E(CORR)=     -419.30143660     Delta=-7.69D-04
 NORM(A)=   0.12399079D+01
 Iteration Nr.   7
 **********************
 DD1Dir will call FoFMem   1 times, MxPair=      1496
 NAB=   506 NAA=   253 NBB=   231.
 DE(Corr)=  -1.3305831     E(CORR)=     -419.30155085     Delta=-1.14D-04
 NORM(A)=   0.12400609D+01
 Iteration Nr.   8
 **********************
 DD1Dir will call FoFMem   1 times, MxPair=      1496
 NAB=   506 NAA=   253 NBB=   231.
 DE(Corr)=  -1.3305623     E(CORR)=     -419.30153003     Delta= 2.08D-05
 NORM(A)=   0.12401102D+01
 Iteration Nr.   9
 **********************
 DD1Dir will call FoFMem   1 times, MxPair=      1496
 NAB=   506 NAA=   253 NBB=   231.
 DE(Corr)=  -1.3305826     E(CORR)=     -419.30155030     Delta=-2.03D-05
 NORM(A)=   0.12401149D+01
 Iteration Nr.  10
 **********************
 DD1Dir will call FoFMem   1 times, MxPair=      1496
 NAB=   506 NAA=   253 NBB=   231.
 DE(Corr)=  -1.3305763     E(CORR)=     -419.30154402     Delta= 6.28D-06
 NORM(A)=   0.12401279D+01
 Iteration Nr.  11
 **********************
 DD1Dir will call FoFMem   1 times, MxPair=      1496
 NAB=   506 NAA=   253 NBB=   231.
 DE(Corr)=  -1.3305915     E(CORR)=     -419.30155922     Delta=-1.52D-05
 NORM(A)=   0.12401590D+01
 Iteration Nr.  12
 **********************
 DD1Dir will call FoFMem   1 times, MxPair=      1496
 NAB=   506 NAA=   253 NBB=   231.
 DE(Corr)=  -1.3305956     E(CORR)=     -419.30156332     Delta=-4.10D-06
 NORM(A)=   0.12401984D+01
 Iteration Nr.  13
 **********************
 DD1Dir will call FoFMem   1 times, MxPair=      1496
 NAB=   506 NAA=   253 NBB=   231.
 DE(Corr)=  -1.3306045     E(CORR)=     -419.30157223     Delta=-8.91D-06
 NORM(A)=   0.12402306D+01
 Iteration Nr.  14
 **********************
 DD1Dir will call FoFMem   1 times, MxPair=      1496
 NAB=   506 NAA=   253 NBB=   231.
 DE(Corr)=  -1.3306109     E(CORR)=     -419.30157866     Delta=-6.44D-06
 NORM(A)=   0.12402499D+01
 Iteration Nr.  15
 **********************
 DD1Dir will call FoFMem   1 times, MxPair=      1496
 NAB=   506 NAA=   253 NBB=   231.
 DE(Corr)=  -1.3306138     E(CORR)=     -419.30158149     Delta=-2.83D-06
 NORM(A)=   0.12402604D+01
 Iteration Nr.  16
 **********************
 DD1Dir will call FoFMem   1 times, MxPair=      1496
 NAB=   506 NAA=   253 NBB=   231.
 DE(Corr)=  -1.3306162     E(CORR)=     -419.30158390     Delta=-2.41D-06
 NORM(A)=   0.12402650D+01
 Iteration Nr.  17
 **********************
 DD1Dir will call FoFMem   1 times, MxPair=      1496
 NAB=   506 NAA=   253 NBB=   231.
 DE(Corr)=  -1.3306168     E(CORR)=     -419.30158453     Delta=-6.28D-07
 NORM(A)=   0.12402672D+01
 Iteration Nr.  18
 **********************
 DD1Dir will call FoFMem   1 times, MxPair=      1496
 NAB=   506 NAA=   253 NBB=   231.
 DE(Corr)=  -1.3306173     E(CORR)=     -419.30158501     Delta=-4.83D-07
 NORM(A)=   0.12402681D+01
 Iteration Nr.  19
 **********************
 DD1Dir will call FoFMem   1 times, MxPair=      1496
 NAB=   506 NAA=   253 NBB=   231.
 DE(Corr)=  -1.3306174     E(CORR)=     -419.30158514     Delta=-1.29D-07
 NORM(A)=   0.12402686D+01
 Iteration Nr.  20
 **********************
 DD1Dir will call FoFMem   1 times, MxPair=      1496
 NAB=   506 NAA=   253 NBB=   231.
 DE(Corr)=  -1.3306175     E(CORR)=     -419.30158523     Delta=-8.95D-08
 NORM(A)=   0.12402688D+01
 Wavefunction amplitudes converged. E(Corr)=     -419.30158523    
 Largest amplitude= 6.03D-02
 Time for triples=    36174.20 seconds.
 T4(CCSD)= -0.59883437D-01
 T5(CCSD)=  0.43028134D-02
 CCSD(T)= -0.41935716585D+03

 S**2, projected HF & approx projected MPn energies after annihilation of
 unwanted spin states (see manual for definitions):

 spins       (S**2,0) (S**2,1)    PUHF        PMP2        PMP3        PMP4
 annihilated
 s+1         0.70662  0.73380 -417.998619 -419.261517 -419.283789
 s+1,s+2     0.75091  0.74983 -417.995692 -419.258731 -419.281195
 s+1 to s+3  0.74999  0.75001 -417.995764 -419.258783 -419.281216
 s+1 to s+4  0.75000  0.75000 -417.995764 -419.258782 -419.281215
 s+1 to s+5  0.75000  0.75000 -417.995764
 s+1 to s+6  0.75000  0.75000 -417.995764

 Discarding MO integrals.

 **********************************************************************

            Population analysis using the SCF density.

 **********************************************************************

 Orbital symmetries:
 Alpha Orbitals:
       Occupied  (A) (A) (A) (A) (A) (A) (A) (A) (A) (A) (A) (A)
                 (A) (A) (A) (A) (A) (A) (A) (A) (A) (A) (A) (A)
                 (A) (A) (A) (A) (A) (A) (A)
       Virtual   (A) (A) (A) (A) (A) (A) (A) (A) (A) (A) (A) (A)
                 (A) (A) (A) (A) (A) (A) (A) (A) (A) (A) (A) (A)
                 (A) (A) (A) (A) (A) (A) (A) (A) (A) (A) (A) (A)
                 (A) (A) (A) (A) (A) (A) (A) (A) (A) (A) (A) (A)
                 (A) (A) (A) (A) (A) (A) (A) (A) (A) (A) (A) (A)
                 (A) (A) (A) (A) (A) (A) (A) (A) (A) (A) (A) (A)
                 (A) (A) (A) (A) (A) (A) (A) (A) (A) (A) (A) (A)
                 (A) (A) (A) (A) (A) (A) (A) (A) (A) (A) (A) (A)
                 (A) (A) (A) (A) (A) (A) (A) (A) (A) (A) (A) (A)
                 (A) (A) (A) (A) (A) (A) (A) (A) (A) (A) (A) (A)
                 (A) (A) (A) (A) (A) (A) (A) (A) (A) (A) (A) (A)
                 (A) (A) (A) (A) (A) (A) (A) (A) (A) (A) (A) (A)
                 (A) (A) (A) (A) (A) (A) (A) (A) (A) (A) (A) (A)
                 (A) (A) (A) (A) (A) (A) (A) (A) (A) (A) (A) (A)
                 (A) (A) (A) (A) (A) (A) (A) (A) (A) (A) (A) (A)
                 (A) (A) (A) (A) (A) (A) (A) (A) (A) (A) (A) (A)
                 (A) (A)
 Beta  Orbitals:
       Occupied  (A) (A) (A) (A) (A) (A) (A) (A) (A) (A) (A) (A)
                 (A) (A) (A) (A) (A) (A) (A) (A) (A) (A) (A) (A)
                 (A) (A) (A) (A) (A) (A)
       Virtual   (A) (A) (A) (A) (A) (A) (A) (A) (A) (A) (A) (A)
                 (A) (A) (A) (A) (A) (A) (A) (A) (A) (A) (A) (A)
                 (A) (A) (A) (A) (A) (A) (A) (A) (A) (A) (A) (A)
                 (A) (A) (A) (A) (A) (A) (A) (A) (A) (A) (A) (A)
                 (A) (A) (A) (A) (A) (A) (A) (A) (A) (A) (A) (A)
                 (A) (A) (A) (A) (A) (A) (A) (A) (A) (A) (A) (A)
                 (A) (A) (A) (A) (A) (A) (A) (A) (A) (A) (A) (A)
                 (A) (A) (A) (A) (A) (A) (A) (A) (A) (A) (A) (A)
                 (A) (A) (A) (A) (A) (A) (A) (A) (A) (A) (A) (A)
                 (A) (A) (A) (A) (A) (A) (A) (A) (A) (A) (A) (A)
                 (A) (A) (A) (A) (A) (A) (A) (A) (A) (A) (A) (A)
                 (A) (A) (A) (A) (A) (A) (A) (A) (A) (A) (A) (A)
                 (A) (A) (A) (A) (A) (A) (A) (A) (A) (A) (A) (A)
                 (A) (A) (A) (A) (A) (A) (A) (A) (A) (A) (A) (A)
                 (A) (A) (A) (A) (A) (A) (A) (A) (A) (A) (A) (A)
                 (A) (A) (A) (A) (A) (A) (A) (A) (A) (A) (A) (A)
                 (A) (A) (A)
 The electronic state is 2-A.
 Alpha  occ. eigenvalues --  -20.61215 -20.60808 -20.55259 -11.41242 -11.30726
 Alpha  occ. eigenvalues --  -11.29979 -11.29329 -11.23358  -1.47516  -1.37807
 Alpha  occ. eigenvalues --   -1.36967  -1.09255  -1.04910  -0.91636  -0.87894
 Alpha  occ. eigenvalues --   -0.76401  -0.73107  -0.70009  -0.68652  -0.65753
 Alpha  occ. eigenvalues --   -0.63093  -0.62338  -0.57804  -0.55887  -0.54512
 Alpha  occ. eigenvalues --   -0.53097  -0.50683  -0.47636  -0.45368  -0.44723
 Alpha  occ. eigenvalues --   -0.42547
 Alpha virt. eigenvalues --    0.03169   0.04569   0.05347   0.06517   0.06911
 Alpha virt. eigenvalues --    0.08564   0.09134   0.10914   0.11625   0.11739
 Alpha virt. eigenvalues --    0.13127   0.13894   0.14309   0.14641   0.16213
 Alpha virt. eigenvalues --    0.17237   0.17273   0.17551   0.19278   0.19414
 Alpha virt. eigenvalues --    0.19448   0.20116   0.20765   0.21355   0.22408
 Alpha virt. eigenvalues --    0.23342   0.23907   0.25703   0.27716   0.30179
 Alpha virt. eigenvalues --    0.30553   0.31446   0.31993   0.32913   0.33231
 Alpha virt. eigenvalues --    0.35841   0.36253   0.37517   0.38299   0.40769
 Alpha virt. eigenvalues --    0.41241   0.41636   0.42891   0.43607   0.44533
 Alpha virt. eigenvalues --    0.45034   0.45607   0.46722   0.47768   0.50480
 Alpha virt. eigenvalues --    0.52105   0.53858   0.57140   0.59159   0.61609
 Alpha virt. eigenvalues --    0.62075   0.64744   0.65444   0.70459   0.71549
 Alpha virt. eigenvalues --    0.74510   0.75016   0.78606   0.80282   0.80745
 Alpha virt. eigenvalues --    0.84463   0.84964   0.86680   0.87489   0.88359
 Alpha virt. eigenvalues --    0.89213   0.92697   0.93665   0.94900   0.97675
 Alpha virt. eigenvalues --    0.98368   1.01429   1.06886   1.08103   1.17001
 Alpha virt. eigenvalues --    1.17980   1.22220   1.23304   1.28467   1.33504
 Alpha virt. eigenvalues --    1.35731   1.36178   1.40167   1.43925   1.45045
 Alpha virt. eigenvalues --    1.47787   1.48193   1.50269   1.50771   1.52596
 Alpha virt. eigenvalues --    1.55852   1.58533   1.59635   1.62872   1.67168
 Alpha virt. eigenvalues --    1.68995   1.69602   1.71711   1.77481   1.79675
 Alpha virt. eigenvalues --    1.80730   1.83084   1.85338   1.85549   1.88681
 Alpha virt. eigenvalues --    1.89464   1.92962   1.93596   1.94953   1.99094
 Alpha virt. eigenvalues --    2.01969   2.03337   2.07695   2.11128   2.14716
 Alpha virt. eigenvalues --    2.16377   2.17831   2.26275   2.29942   2.32571
 Alpha virt. eigenvalues --    2.37558   2.38463   2.42779   2.49083   2.52735
 Alpha virt. eigenvalues --    2.59160   2.63499   2.67948   2.79413   2.81582
 Alpha virt. eigenvalues --    2.83899   2.85236   2.88741   2.92331   2.93497
 Alpha virt. eigenvalues --    2.94038   2.95875   2.99945   3.02544   3.05093
 Alpha virt. eigenvalues --    3.08781   3.10679   3.13389   3.17101   3.22694
 Alpha virt. eigenvalues --    3.25288   3.28511   3.31112   3.35912   3.39342
 Alpha virt. eigenvalues --    3.44561   3.47682   3.48724   3.50201   3.51917
 Alpha virt. eigenvalues --    3.61615   3.67194   3.70967   3.74345   3.79778
 Alpha virt. eigenvalues --    3.83846   3.96361   3.96780   4.13717   4.20905
 Alpha virt. eigenvalues --    4.21798   4.23937   4.29979   4.42278   4.48286
 Alpha virt. eigenvalues --    4.52008   4.70214   5.58653   5.61770   5.62754
 Alpha virt. eigenvalues --    5.66255   5.73806   5.89732   6.07005   6.17475
 Alpha virt. eigenvalues --    6.47157  24.65581  24.98620  25.02643  25.13317
 Alpha virt. eigenvalues --   25.85950  51.58021  51.60199  51.72731
  Beta  occ. eigenvalues --  -20.60757 -20.58633 -20.55665 -11.40863 -11.32945
  Beta  occ. eigenvalues --  -11.29996 -11.26321 -11.23354  -1.47600  -1.38407
  Beta  occ. eigenvalues --   -1.28987  -1.06842  -1.04878  -0.90495  -0.86211
  Beta  occ. eigenvalues --   -0.75375  -0.72107  -0.69965  -0.67796  -0.64758
  Beta  occ. eigenvalues --   -0.62830  -0.58152  -0.56733  -0.54609  -0.51081
  Beta  occ. eigenvalues --   -0.50807  -0.49709  -0.47319  -0.46180  -0.43043
  Beta virt. eigenvalues --    0.03284   0.03447   0.04575   0.06344   0.06580
  Beta virt. eigenvalues --    0.07267   0.08396   0.09920   0.11050   0.11613
  Beta virt. eigenvalues --    0.12533   0.13335   0.14115   0.14932   0.15544
  Beta virt. eigenvalues --    0.16703   0.17551   0.17668   0.17771   0.19315
  Beta virt. eigenvalues --    0.19698   0.19955   0.20271   0.21156   0.22142
  Beta virt. eigenvalues --    0.22766   0.23789   0.24078   0.26030   0.27457
  Beta virt. eigenvalues --    0.30052   0.30797   0.31607   0.32246   0.33555
  Beta virt. eigenvalues --    0.34752   0.36101   0.36565   0.38207   0.38664
  Beta virt. eigenvalues --    0.40597   0.41430   0.41780   0.42863   0.43667
  Beta virt. eigenvalues --    0.44647   0.45317   0.46233   0.46952   0.47687
  Beta virt. eigenvalues --    0.50962   0.52391   0.54165   0.57256   0.60045
  Beta virt. eigenvalues --    0.62000   0.62230   0.64729   0.65575   0.70877
  Beta virt. eigenvalues --    0.73379   0.74500   0.77370   0.80178   0.80909
  Beta virt. eigenvalues --    0.83666   0.84438   0.85119   0.86828   0.87260
  Beta virt. eigenvalues --    0.87963   0.88772   0.92552   0.93883   0.94995
  Beta virt. eigenvalues --    0.96939   0.98615   1.02168   1.07085   1.09126
  Beta virt. eigenvalues --    1.17353   1.18014   1.22320   1.23830   1.28684
  Beta virt. eigenvalues --    1.35280   1.36248   1.37506   1.41924   1.44606
  Beta virt. eigenvalues --    1.46087   1.48822   1.49969   1.50715   1.53141
  Beta virt. eigenvalues --    1.54944   1.57159   1.59075   1.60773   1.63386
  Beta virt. eigenvalues --    1.68547   1.70171   1.70682   1.71740   1.77883
  Beta virt. eigenvalues --    1.80548   1.80810   1.82685   1.85144   1.85635
  Beta virt. eigenvalues --    1.88763   1.89555   1.93065   1.93959   1.94962
  Beta virt. eigenvalues --    1.99435   2.01910   2.03234   2.07829   2.11452
  Beta virt. eigenvalues --    2.14926   2.17095   2.17912   2.26315   2.30046
  Beta virt. eigenvalues --    2.33584   2.38171   2.38591   2.42818   2.49147
  Beta virt. eigenvalues --    2.52512   2.59342   2.63501   2.68042   2.80156
  Beta virt. eigenvalues --    2.81599   2.83944   2.85266   2.88824   2.92333
  Beta virt. eigenvalues --    2.93520   2.94771   2.96031   3.00243   3.03089
  Beta virt. eigenvalues --    3.05216   3.10524   3.11057   3.15096   3.21294
  Beta virt. eigenvalues --    3.22728   3.25052   3.28424   3.31526   3.35013
  Beta virt. eigenvalues --    3.44027   3.45088   3.47968   3.50399   3.51452
  Beta virt. eigenvalues --    3.56067   3.62088   3.67190   3.70690   3.74935
  Beta virt. eigenvalues --    3.79255   3.85672   3.96567   3.97724   4.13460
  Beta virt. eigenvalues --    4.20928   4.21796   4.23907   4.32048   4.42252
  Beta virt. eigenvalues --    4.48038   4.52038   4.70242   5.59051   5.62990
  Beta virt. eigenvalues --    5.66093   5.68764   5.74294   5.89724   6.08625
  Beta virt. eigenvalues --    6.17367   6.47114  24.65473  24.98843  25.02685
  Beta virt. eigenvalues --   25.13319  25.86516  51.58947  51.60740  51.72533
          Condensed to atoms (all electrons):
               1          2          3          4          5          6
     1  C   10.939278   0.432475  -2.659745  -1.961562  -0.202498  -0.145807
     2  H    0.432475   0.406221  -0.096627   0.019022  -0.003575  -0.001913
     3  C   -2.659745  -0.096627   9.089157  -0.731610   0.081001  -0.127255
     4  C   -1.961562   0.019022  -0.731610   8.174435   0.478160   0.219221
     5  O   -0.202498  -0.003575   0.081001   0.478160   8.051207  -0.060687
     6  O   -0.145807  -0.001913  -0.127255   0.219221  -0.060687   8.183351
     7  C    0.179080  -0.008970  -0.155362  -0.111857  -0.023958   0.248664
     8  C   -0.133265   0.007925   0.002138   0.116360   0.020768  -0.153898
     9  H   -0.049560  -0.000032   0.018320  -0.016595   0.001962  -0.005488
    10  H    0.045955  -0.000586   0.030949  -0.053842  -0.002581  -0.077408
    11  H   -0.020804   0.000601  -0.016644   0.032394   0.000671  -0.008324
    12  H   -0.009258  -0.005534   0.075695  -0.058118   0.000306  -0.005331
    13  H    0.001162  -0.000275   0.014075  -0.015763   0.000198   0.015225
    14  O   -0.322800  -0.003515   0.400478  -0.150792  -0.007263   0.027416
    15  H   -0.013705  -0.000513  -0.002920   0.052052  -0.004024  -0.002776
               7          8          9         10         11         12
     1  C    0.179080  -0.133265  -0.049560   0.045955  -0.020804  -0.009258
     2  H   -0.008970   0.007925  -0.000032  -0.000586   0.000601  -0.005534
     3  C   -0.155362   0.002138   0.018320   0.030949  -0.016644   0.075695
     4  C   -0.111857   0.116360  -0.016595  -0.053842   0.032394  -0.058118
     5  O   -0.023958   0.020768   0.001962  -0.002581   0.000671   0.000306
     6  O    0.248664  -0.153898  -0.005488  -0.077408  -0.008324  -0.005331
     7  C    5.651108  -0.212846   0.401568   0.481710  -0.053022  -0.020648
     8  C   -0.212846   5.630989  -0.030588  -0.097835   0.446371   0.350533
     9  H    0.401568  -0.030588   0.523574  -0.034521  -0.003171  -0.000701
    10  H    0.481710  -0.097835  -0.034521   0.529211  -0.004514   0.010152
    11  H   -0.053022   0.446371  -0.003171  -0.004514   0.533618  -0.046699
    12  H   -0.020648   0.350533  -0.000701   0.010152  -0.046699   0.633195
    13  H   -0.056682   0.414440  -0.001169  -0.001528  -0.030672  -0.037145
    14  O   -0.049270   0.022049   0.007863  -0.007328  -0.000185  -0.001209
    15  H    0.003073  -0.000755  -0.005165   0.000467   0.000283  -0.000213
              13         14         15
     1  C    0.001162  -0.322800  -0.013705
     2  H   -0.000275  -0.003515  -0.000513
     3  C    0.014075   0.400478  -0.002920
     4  C   -0.015763  -0.150792   0.052052
     5  O    0.000198  -0.007263  -0.004024
     6  O    0.015225   0.027416  -0.002776
     7  C   -0.056682  -0.049270   0.003073
     8  C    0.414440   0.022049  -0.000755
     9  H   -0.001169   0.007863  -0.005165
    10  H   -0.001528  -0.007328   0.000467
    11  H   -0.030672  -0.000185   0.000283
    12  H   -0.037145  -0.001209  -0.000213
    13  H    0.566394   0.000227  -0.000317
    14  O    0.000227   8.060833   0.255465
    15  H   -0.000317   0.255465   0.452916
          Atomic-Atomic Spin Densities.
               1          2          3          4          5          6
     1  C    2.211423   0.037894  -0.412653  -0.020779   0.006842  -0.008771
     2  H    0.037894  -0.080895  -0.044183  -0.007566  -0.000030  -0.000248
     3  C   -0.412653  -0.044183  -0.887574   0.084246   0.008959   0.026925
     4  C   -0.020779  -0.007566   0.084246   0.047389   0.009368  -0.044811
     5  O    0.006842  -0.000030   0.008959   0.009368  -0.109079  -0.001034
     6  O   -0.008771  -0.000248   0.026925  -0.044811  -0.001034   0.033507
     7  C   -0.027486  -0.001821   0.005354   0.006096   0.002826  -0.007209
     8  C    0.007214   0.001082  -0.013726   0.011337  -0.001421   0.002310
     9  H    0.011691   0.000405   0.016734  -0.003916   0.000157   0.000877
    10  H   -0.005184  -0.000162  -0.004781   0.011133   0.000279  -0.001510
    11  H    0.000261  -0.000076   0.004183  -0.004817  -0.000068   0.000148
    12  H   -0.010880  -0.001352   0.011353   0.003383  -0.000179  -0.000340
    13  H    0.002305   0.000250  -0.002065  -0.000676   0.000012   0.000088
    14  O   -0.274128  -0.007285   0.154546   0.088012   0.001474  -0.001205
    15  H    0.031407   0.000641  -0.024391  -0.009592   0.000044   0.000474
               7          8          9         10         11         12
     1  C   -0.027486   0.007214   0.011691  -0.005184   0.000261  -0.010880
     2  H   -0.001821   0.001082   0.000405  -0.000162  -0.000076  -0.001352
     3  C    0.005354  -0.013726   0.016734  -0.004781   0.004183   0.011353
     4  C    0.006096   0.011337  -0.003916   0.011133  -0.004817   0.003383
     5  O    0.002826  -0.001421   0.000157   0.000279  -0.000068  -0.000179
     6  O   -0.007209   0.002310   0.000877  -0.001510   0.000148  -0.000340
     7  C    0.008205   0.003348  -0.009017   0.004913  -0.001907  -0.001438
     8  C    0.003348  -0.005282   0.001294  -0.003860   0.001821  -0.000407
     9  H   -0.009017   0.001294   0.002907  -0.002399   0.000516  -0.000441
    10  H    0.004913  -0.003860  -0.002399   0.000493   0.000572   0.000154
    11  H   -0.001907   0.001821   0.000516   0.000572  -0.000677   0.000218
    12  H   -0.001438  -0.000407  -0.000441   0.000154   0.000218   0.001579
    13  H    0.000592  -0.000641   0.000269  -0.000476   0.000022  -0.000316
    14  O    0.011752  -0.005417  -0.014738  -0.000692   0.000402   0.001838
    15  H   -0.001212   0.000250   0.001024   0.000058  -0.000011  -0.000184
              13         14         15
     1  C    0.002305  -0.274128   0.031407
     2  H    0.000250  -0.007285   0.000641
     3  C   -0.002065   0.154546  -0.024391
     4  C   -0.000676   0.088012  -0.009592
     5  O    0.000012   0.001474   0.000044
     6  O    0.000088  -0.001205   0.000474
     7  C    0.000592   0.011752  -0.001212
     8  C   -0.000641  -0.005417   0.000250
     9  H    0.000269  -0.014738   0.001024
    10  H   -0.000476  -0.000692   0.000058
    11  H    0.000022   0.000402  -0.000011
    12  H   -0.000316   0.001838  -0.000184
    13  H    0.000331  -0.000589   0.000024
    14  O   -0.000589   0.607718   0.007545
    15  H    0.000024   0.007545  -0.027708
 Mulliken charges and spin densities:
               1          2
     1  C   -0.078945   1.549154
     2  H    0.255294  -0.103346
     3  C    0.078347  -1.077073
     4  C    0.008494   0.168809
     5  O   -0.329687  -0.081849
     6  O   -0.104991  -0.000799
     7  C   -0.272589  -0.007003
     8  C   -0.382386  -0.002098
     9  H    0.193702   0.005363
    10  H    0.181700  -0.001464
    11  H    0.170097   0.000588
    12  H    0.114974   0.002989
    13  H    0.131829  -0.000869
    14  O   -0.231971   0.569232
    15  H    0.266130  -0.021633
 Sum of Mulliken charges =  -0.00000   1.00000
 Mulliken charges and spin densities with hydrogens summed into heavy atoms:
               1          2
     1  C    0.176350   1.445808
     3  C    0.078347  -1.077073
     4  C    0.008494   0.168809
     5  O   -0.329687  -0.081849
     6  O   -0.104991  -0.000799
     7  C    0.102813  -0.003104
     8  C    0.034514   0.000610
    14  O    0.034160   0.547599
 Electronic spatial extent (au):  <R**2>=            967.0211
 Charge=             -0.0000 electrons
 Dipole moment (field-independent basis, Debye):
    X=             -0.5141    Y=             -4.6282    Z=             -0.6949  Tot=              4.7082
 Quadrupole moment (field-independent basis, Debye-Ang):
   XX=            -39.5986   YY=            -52.9882   ZZ=            -47.2055
   XY=             -4.7025   XZ=             -0.2889   YZ=              4.9709
 Traceless Quadrupole moment (field-independent basis, Debye-Ang):
   XX=              6.9988   YY=             -6.3908   ZZ=             -0.6081
   XY=             -4.7025   XZ=             -0.2889   YZ=              4.9709
 Octapole moment (field-independent basis, Debye-Ang**2):
  XXX=             11.8822  YYY=            -18.3060  ZZZ=              3.8312  XYY=              0.9361
  XXY=            -11.3490  XXZ=             11.2051  XZZ=              2.5783  YZZ=             -1.7181
  YYZ=             -3.8986  XYZ=              9.4211
 Hexadecapole moment (field-independent basis, Debye-Ang**3):
 XXXX=           -587.5884 YYYY=           -378.6891 ZZZZ=           -229.4072 XXXY=            -23.8703
 XXXZ=             23.9022 YYYX=            -29.0164 YYYZ=             22.9065 ZZZX=              0.3051
 ZZZY=              4.9290 XXYY=           -162.8310 XXZZ=           -130.1574 YYZZ=            -91.5562
 XXYZ=              5.9166 YYXZ=             -9.8224 ZZXY=            -11.7188
 N-N= 3.685615356118D+02 E-N=-1.719812914976D+03  KE= 4.175671970309D+02
 1\1\GINC-AJ\SP\UCCSD(T)-FC\6-311++G(d,p)\C5H7O3(2)\AAYUSH\12-May-2025\
 0\\# ccsd(t)/6-311++g(d,p) sp\\Title Card Required\\0,2\C,0,1.287994,-
 1.412722,-1.161208\H,0,1.654132,-2.292317,-1.641509\C,0,0.946814,-0.50
 6459,-0.361129\C,0,0.357246,0.869955,-0.198931\O,0,0.967928,1.849218,-
 0.502622\O,0,-0.831242,0.925557,0.38995\C,0,-1.577051,-0.274575,0.6748
 21\C,0,-2.421729,-0.670814,-0.519415\H,0,-0.898139,-1.066922,0.990759\
 H,0,-2.198297,-0.001305,1.5262\H,0,-3.074992,0.151915,-0.812823\H,0,-1
 .794044,-0.940649,-1.371576\H,0,-3.039634,-1.534072,-0.263991\O,0,1.36
 1903,-0.874521,1.305198\H,0,2.31685,-0.725475,1.29115\\Version=ES64L-G
 16RevA.03\State=2-A\HF=-417.9709677\MP2=-419.2373123\MP3=-419.2651587\
 MP4D=-419.2963685\MP4DQ=-419.2716379\PUHF=-417.9986188\PMP2-0=-419.261
 5169\PMP3-0=-419.2837886\MP4SDQ=-419.2943557\CCSD=-419.3015852\CCSD(T)
 =-419.3571659\S2=1.070758\S2-1=0.979986\S2A=0.823671\RMSD=7.872e-09\PG
 =C01 [X(C5H7O3)]\\@


 THE MORE PROGRESS PHYSICAL SCIENCES MAKE, THE MORE THEY TEND TO ENTER
 THE DOMAIN OF MATHEMATICS, WHICH IS A KIND OF CENTRE TO WHICH THEY ALL
 CONVERGE.  WE MAY EVEN JUDGE THE DEGREE OF PERFECTION TO WHICH A 
 SCIENCE HAS ARRIVED BY THE FACILITY WITH WHICH IT MAY BE SUBMITTED
 TO CALCULATION.

                               -- ADOLPHE QUETELET, 1796-1874
 Job cpu time:       0 days 17 hours 34 minutes 38.9 seconds.
 Elapsed time:       0 days  0 hours 44 minutes  8.0 seconds.
 File lengths (MBytes):  RWF=  44733 Int=      0 D2E=      0 Chk=      6 Scr=      1
 Normal termination of Gaussian 16 at Mon May 12 04:53:18 2025.
