 Entering Gaussian System, Link 0=g16
 Initial command:
 /opt/g16/l1.exe "/home/loki/Research/Transition_states/Addition/ts3_irc_points/Gau-347747.inp" -scrdir="/home/loki/Research/Transition_states/Addition/ts3_irc_points/"
 Entering Link 1 = /opt/g16/l1.exe PID=    347750.
  
 Copyright (c) 1988,1990,1992,1993,1995,1998,2003,2009,2016,
            Gaussian, Inc.  All Rights Reserved.
  
 This is part of the Gaussian(R) 16 program.  It is based on
 the Gaussian(R) 09 system (copyright 2009, Gaussian, Inc.),
 the Gaussian(R) 03 system (copyright 2003, Gaussian, Inc.),
 the Gaussian(R) 98 system (copyright 1998, Gaussian, Inc.),
 the Gaussian(R) 94 system (copyright 1995, Gaussian, Inc.),
 the Gaussian 92(TM) system (copyright 1992, Gaussian, Inc.),
 the Gaussian 90(TM) system (copyright 1990, Gaussian, Inc.),
 the Gaussian 88(TM) system (copyright 1988, Gaussian, Inc.),
 the Gaussian 86(TM) system (copyright 1986, Carnegie Mellon
 University), and the Gaussian 82(TM) system (copyright 1983,
 Carnegie Mellon University). Gaussian is a federally registered
 trademark of Gaussian, Inc.
  
 This software contains proprietary and confidential information,
 including trade secrets, belonging to Gaussian, Inc.
  
 This software is provided under written license and may be
 used, copied, transmitted, or stored only in accord with that
 written license.
  
 The following legend is applicable only to US Government
 contracts under FAR:
  
                    RESTRICTED RIGHTS LEGEND
  
 Use, reproduction and disclosure by the US Government is
 subject to restrictions as set forth in subparagraphs (a)
 and (c) of the Commercial Computer Software - Restricted
 Rights clause in FAR 52.227-19.
  
 Gaussian, Inc.
 340 Quinnipiac St., Bldg. 40, Wallingford CT 06492
  
  
 ---------------------------------------------------------------
 Warning -- This program may not be used in any manner that
 competes with the business of Gaussian, Inc. or will provide
 assistance to any competitor of Gaussian, Inc.  The licensee
 of this program is prohibited from giving any competitor of
 Gaussian, Inc. access to this program.  By using this program,
 the user acknowledges that Gaussian, Inc. is engaged in the
 business of creating and licensing software in the field of
 computational chemistry and represents and warrants to the
 licensee that it is not a competitor of Gaussian, Inc. and that
 it will not use this program in any manner prohibited above.
 ---------------------------------------------------------------
  

 Cite this work as:
 Gaussian 16, Revision A.03,
 M. J. Frisch, G. W. Trucks, H. B. Schlegel, G. E. Scuseria, 
 M. A. Robb, J. R. Cheeseman, G. Scalmani, V. Barone, 
 G. A. Petersson, H. Nakatsuji, X. Li, M. Caricato, A. V. Marenich, 
 J. Bloino, B. G. Janesko, R. Gomperts, B. Mennucci, H. P. Hratchian, 
 J. V. Ortiz, A. F. Izmaylov, J. L. Sonnenberg, D. Williams-Young, 
 F. Ding, F. Lipparini, F. Egidi, J. Goings, B. Peng, A. Petrone, 
 T. Henderson, D. Ranasinghe, V. G. Zakrzewski, J. Gao, N. Rega, 
 G. Zheng, W. Liang, M. Hada, M. Ehara, K. Toyota, R. Fukuda, 
 J. Hasegawa, M. Ishida, T. Nakajima, Y. Honda, O. Kitao, H. Nakai, 
 T. Vreven, K. Throssell, J. A. Montgomery, Jr., J. E. Peralta, 
 F. Ogliaro, M. J. Bearpark, J. J. Heyd, E. N. Brothers, K. N. Kudin, 
 V. N. Staroverov, T. A. Keith, R. Kobayashi, J. Normand, 
 K. Raghavachari, A. P. Rendell, J. C. Burant, S. S. Iyengar, 
 J. Tomasi, M. Cossi, J. M. Millam, M. Klene, C. Adamo, R. Cammi, 
 J. W. Ochterski, R. L. Martin, K. Morokuma, O. Farkas, 
 J. B. Foresman, and D. J. Fox, Gaussian, Inc., Wallingford CT, 2016.
 
 ******************************************
 Gaussian 16:  ES64L-G16RevA.03 25-Dec-2016
                28-Mar-2025 
 ******************************************
 %chk=ethyl_propiolate.chk
 %nprocshared=6
 Will use up to    6 processors via shared memory.
 %mem=12GB
 --------------------------
 # freq 6-311++g(d,p) m062x
 --------------------------
 1/10=4,30=1,38=1/1,3;
 2/12=2,17=6,18=5,40=1/2;
 3/5=4,6=6,7=1111,11=2,25=1,30=1,71=2,74=-55,140=1/1,2,3;
 4//1;
 5/5=2,38=5,98=1/2;
 8/6=4,10=90,11=11/1;
 11/6=1,8=1,9=11,15=111,16=1/1,2,10;
 10/6=1/2;
 6/7=2,8=2,9=2,10=2,28=1/1;
 7/8=1,10=1,25=1/1,2,3,16;
 1/10=4,30=1/3;
 99//99;
 -------------------
 Title Card Required
 -------------------
 Symbolic Z-matrix:
 Charge =  0 Multiplicity = 2
 C                     1.29071  -1.41712  -1.15666 
 H                     1.65386  -2.29211  -1.64626 
 C                     0.93379  -0.4968   -0.40077 
 C                     0.35633   0.87145  -0.19979 
 O                     0.96833   1.8505   -0.5011 
 O                    -0.83072   0.92536   0.39071 
 C                    -1.57659  -0.27491   0.67466 
 C                    -2.42186  -0.6707   -0.51944 
 H                    -0.89627  -1.06685   0.9889 
 H                    -2.19747  -0.00212   1.52644 
 H                    -3.07536   0.152    -0.8124 
 H                    -1.79485  -0.94062  -1.37191 
 H                    -3.03966  -1.53393  -0.26368 
 O                     1.36865  -0.88031   1.33005 
 H                     2.32358  -0.72829   1.29679 
 

 GradGradGradGradGradGradGradGradGradGradGradGradGradGradGradGradGradGrad
 Berny optimization.
 Initialization pass.
 Trust Radius=3.00D-01 FncErr=1.00D-07 GrdErr=1.00D-07 EigMax=2.50D+02 EigMin=1.00D-04
 Number of steps in this run=      2 maximum allowed number of steps=      2.
 GradGradGradGradGradGradGradGradGradGradGradGradGradGradGradGradGradGrad

                          Input orientation:                          
 ---------------------------------------------------------------------
 Center     Atomic      Atomic             Coordinates (Angstroms)
 Number     Number       Type             X           Y           Z
 ---------------------------------------------------------------------
      1          6           0        1.290711   -1.417119   -1.156662
      2          1           0        1.653855   -2.292108   -1.646257
      3          6           0        0.933789   -0.496803   -0.400773
      4          6           0        0.356329    0.871453   -0.199788
      5          8           0        0.968332    1.850497   -0.501098
      6          8           0       -0.830715    0.925361    0.390709
      7          6           0       -1.576593   -0.274912    0.674661
      8          6           0       -2.421858   -0.670703   -0.519442
      9          1           0       -0.896269   -1.066849    0.988903
     10          1           0       -2.197467   -0.002118    1.526444
     11          1           0       -3.075360    0.152003   -0.812401
     12          1           0       -1.794847   -0.940624   -1.371911
     13          1           0       -3.039662   -1.533934   -0.263679
     14          8           0        1.368647   -0.880309    1.330049
     15          1           0        2.323582   -0.728290    1.296786
 ---------------------------------------------------------------------
                    Distance matrix (angstroms):
                    1          2          3          4          5
     1  C    0.000000
     2  H    1.066388   0.000000
     3  C    1.243279   2.300618   0.000000
     4  C    2.650705   3.712676   1.498659   0.000000
     5  O    3.348284   4.352299   2.349697   1.193257   0.000000
     6  O    3.518809   4.546914   2.400514   1.326901   2.210829
     7  C    3.588846   4.459993   2.740039   2.411431   3.518013
     8  C    3.840098   4.528808   3.362245   3.193548   4.224947
     9  H    3.083670   3.866324   2.367544   2.595959   3.769317
    10  H    4.622626   5.490243   3.709938   3.203885   4.191109
    11  H    4.652229   5.388364   4.082115   3.559409   4.396958
    12  H    3.129544   3.714205   2.930109   3.047139   4.022913
    13  H    4.423030   4.951308   4.108862   4.162058   5.251167
    14  O    2.545186   3.306496   1.825356   2.536505   3.312198
    15  H    2.749675   3.399347   2.206086   2.944316   3.423336
                    6          7          8          9         10
     6  O    0.000000
     7  C    1.441394   0.000000
     8  C    2.430541   1.515587   0.000000
     9  H    2.081114   1.090299   2.181618   0.000000
    10  H    2.004525   1.088777   2.164026   1.765140   0.000000
    11  H    2.661576   2.154046   1.090750   3.078755   2.502927
    12  H    2.741948   2.163161   1.092110   2.529193   3.073005
    13  H    3.369837   2.146203   1.091909   2.526116   2.502058
    14  O    2.996664   3.077414   4.222852   2.298047   3.677902
    15  H    3.674932   3.975419   5.081457   3.252208   4.584752
                   11         12         13         14         15
    11  H    0.000000
    12  H    1.773865   0.000000
    13  H    1.773345   1.769113   0.000000
    14  O    5.040333   4.160760   4.732904   0.000000
    15  H    5.862778   4.912076   5.643447   0.967531   0.000000
 Stoichiometry    C5H7O3(2)
 Framework group  C1[X(C5H7O3)]
 Deg. of freedom    39
 Full point group                 C1      NOp   1
 Largest Abelian subgroup         C1      NOp   1
 Largest concise Abelian subgroup C1      NOp   1
                         Standard orientation:                         
 ---------------------------------------------------------------------
 Center     Atomic      Atomic             Coordinates (Angstroms)
 Number     Number       Type             X           Y           Z
 ---------------------------------------------------------------------
      1          6           0        1.351107   -1.384314   -1.127285
      2          1           0        1.714764   -2.266829   -1.602789
      3          6           0        0.992080   -0.452940   -0.386080
      4          6           0        0.417486    0.919575   -0.207131
      5          8           0        1.034406    1.892699   -0.517457
      6          8           0       -0.773200    0.984865    0.374823
      7          6           0       -1.524550   -0.209304    0.669868
      8          6           0       -2.363238   -0.618503   -0.524353
      9          1           0       -0.848692   -0.998980    0.999079
     10          1           0       -2.150113    0.076668    1.513862
     11          1           0       -3.012320    0.202144   -0.832518
     12          1           0       -1.731525   -0.901630   -1.369031
     13          1           0       -2.985311   -1.476416   -0.261150
     14          8           0        1.414517   -0.814588    1.352506
     15          1           0        2.370105   -0.665846    1.323462
 ---------------------------------------------------------------------
 Rotational constants (GHZ):           2.4550749           1.7052789           1.4120046
 Standard basis: 6-311++G(d,p) (5D, 7F)
 There are   233 symmetry adapted cartesian basis functions of A   symmetry.
 There are   225 symmetry adapted basis functions of A   symmetry.
   225 basis functions,   351 primitive gaussians,   233 cartesian basis functions
    31 alpha electrons       30 beta electrons
       nuclear repulsion energy       367.8630101853 Hartrees.
 NAtoms=   15 NActive=   15 NUniq=   15 SFac= 1.00D+00 NAtFMM=   60 NAOKFM=F Big=F
 Integral buffers will be    131072 words long.
 Raffenetti 2 integral format.
 Two-electron integral symmetry is turned on.
 One-electron integrals computed using PRISM.
 NBasis=   225 RedAO= T EigKep=  5.73D-06  NBF=   225
 NBsUse=   225 1.00D-06 EigRej= -1.00D+00 NBFU=   225
 ExpMin= 3.60D-02 ExpMax= 8.59D+03 ExpMxC= 1.30D+03 IAcc=3 IRadAn=         5 AccDes= 0.00D+00
 Harris functional with IExCor= 1009 and IRadAn=       5 diagonalized for initial guess.
 HarFok:  IExCor= 1009 AccDes= 0.00D+00 IRadAn=         5 IDoV= 1 UseB2=F ITyADJ=14
 ICtDFT=  3500011 ScaDFX=  1.000000  1.000000  1.000000  1.000000
 FoFCou: FMM=F IPFlag=           0 FMFlag=      100000 FMFlg1=           0
         NFxFlg=           0 DoJE=T BraDBF=F KetDBF=T FulRan=T
         wScrn=  0.000000 ICntrl=       500 IOpCl=  0 I1Cent=   200000004 NGrid=           0
         NMat0=    1 NMatS0=      1 NMatT0=    0 NMatD0=    1 NMtDS0=    0 NMtDT0=    0
 Petite list used in FoFCou.
 Initial guess <Sx>= 0.0000 <Sy>= 0.0000 <Sz>= 0.5000 <S**2>= 0.7500 S= 0.5000
 Keep R1 and R2 ints in memory in canonical form, NReq=652863693.
 Requested convergence on RMS density matrix=1.00D-08 within 128 cycles.
 Requested convergence on MAX density matrix=1.00D-06.
 Requested convergence on             energy=1.00D-06.
 No special actions if energy rises.
 SCF Done:  E(UM062X) =  -420.202582658     A.U. after   21 cycles
            NFock= 21  Conv=0.44D-08     -V/T= 2.0036
 <Sx>= 0.0000 <Sy>= 0.0000 <Sz>= 0.5000 <S**2>= 0.7852 S= 0.5175
 <L.S>=  0.00000000000    
 Annihilation of the first spin contaminant:
 S**2 before annihilation     0.7852,   after     0.7506
 DoSCS=F DFT=T ScalE2(SS,OS)=  1.000000  1.000000
 Range of M.O.s used for correlation:     1   225
 NBasis=   225 NAE=    31 NBE=    30 NFC=     0 NFV=     0
 NROrb=    225 NOA=    31 NOB=    30 NVA=   194 NVB=   195

 **** Warning!!: The largest alpha MO coefficient is  0.12471536D+03


 **** Warning!!: The largest beta MO coefficient is  0.12410392D+03

 Symmetrizing basis deriv contribution to polar:
 IMax=3 JMax=2 DiffMx= 0.00D+00
 G2DrvN: will do    16 centers at a time, making    1 passes.
 Calling FoFCou, ICntrl=  3107 FMM=F I1Cent=   0 AccDes= 0.00D+00.
 End of G2Drv F.D. properties file   721 does not exist.
 End of G2Drv F.D. properties file   722 does not exist.
 End of G2Drv F.D. properties file   788 does not exist.
          IDoAtm=111111111111111
          Differentiating once with respect to electric field.
                with respect to dipole field.
          Differentiating once with respect to nuclear coordinates.
 Keep R1 and R2 ints in memory in canonical form, NReq=652870569.
          There are    48 degrees of freedom in the 1st order CPHF.  IDoFFX=6 NUNeed=     3.
     45 vectors produced by pass  0 Test12= 2.47D-14 2.08D-09 XBig12= 8.98D+01 4.37D+00.
 AX will form    45 AO Fock derivatives at one time.
     45 vectors produced by pass  1 Test12= 2.47D-14 2.08D-09 XBig12= 1.42D+01 6.00D-01.
     45 vectors produced by pass  2 Test12= 2.47D-14 2.08D-09 XBig12= 9.39D-01 1.72D-01.
     45 vectors produced by pass  3 Test12= 2.47D-14 2.08D-09 XBig12= 1.61D-02 1.52D-02.
     45 vectors produced by pass  4 Test12= 2.47D-14 2.08D-09 XBig12= 1.91D-04 1.61D-03.
     45 vectors produced by pass  5 Test12= 2.47D-14 2.08D-09 XBig12= 2.81D-06 1.75D-04.
     42 vectors produced by pass  6 Test12= 2.47D-14 2.08D-09 XBig12= 2.64D-08 1.48D-05.
     23 vectors produced by pass  7 Test12= 2.47D-14 2.08D-09 XBig12= 1.90D-10 1.13D-06.
      4 vectors produced by pass  8 Test12= 2.47D-14 2.08D-09 XBig12= 1.23D-12 9.29D-08.
      3 vectors produced by pass  9 Test12= 2.47D-14 2.08D-09 XBig12= 9.81D-15 9.03D-09.
      1 vectors produced by pass 10 Test12= 2.47D-14 2.08D-09 XBig12= 2.40D-16 2.77D-09.
 InvSVY:  IOpt=1 It=  1 EMax= 5.33D-15
 Solved reduced A of dimension   343 with    48 vectors.
 Isotropic polarizability for W=    0.000000       72.54 Bohr**3.
 End of Minotr F.D. properties file   721 does not exist.
 End of Minotr F.D. properties file   722 does not exist.
 End of Minotr F.D. properties file   788 does not exist.

 **********************************************************************

            Population analysis using the SCF density.

 **********************************************************************

 Orbital symmetries:
 Alpha Orbitals:
       Occupied  (A) (A) (A) (A) (A) (A) (A) (A) (A) (A) (A) (A)
                 (A) (A) (A) (A) (A) (A) (A) (A) (A) (A) (A) (A)
                 (A) (A) (A) (A) (A) (A) (A)
       Virtual   (A) (A) (A) (A) (A) (A) (A) (A) (A) (A) (A) (A)
                 (A) (A) (A) (A) (A) (A) (A) (A) (A) (A) (A) (A)
                 (A) (A) (A) (A) (A) (A) (A) (A) (A) (A) (A) (A)
                 (A) (A) (A) (A) (A) (A) (A) (A) (A) (A) (A) (A)
                 (A) (A) (A) (A) (A) (A) (A) (A) (A) (A) (A) (A)
                 (A) (A) (A) (A) (A) (A) (A) (A) (A) (A) (A) (A)
                 (A) (A) (A) (A) (A) (A) (A) (A) (A) (A) (A) (A)
                 (A) (A) (A) (A) (A) (A) (A) (A) (A) (A) (A) (A)
                 (A) (A) (A) (A) (A) (A) (A) (A) (A) (A) (A) (A)
                 (A) (A) (A) (A) (A) (A) (A) (A) (A) (A) (A) (A)
                 (A) (A) (A) (A) (A) (A) (A) (A) (A) (A) (A) (A)
                 (A) (A) (A) (A) (A) (A) (A) (A) (A) (A) (A) (A)
                 (A) (A) (A) (A) (A) (A) (A) (A) (A) (A) (A) (A)
                 (A) (A) (A) (A) (A) (A) (A) (A) (A) (A) (A) (A)
                 (A) (A) (A) (A) (A) (A) (A) (A) (A) (A) (A) (A)
                 (A) (A) (A) (A) (A) (A) (A) (A) (A) (A) (A) (A)
                 (A) (A)
 Beta  Orbitals:
       Occupied  (A) (A) (A) (A) (A) (A) (A) (A) (A) (A) (A) (A)
                 (A) (A) (A) (A) (A) (A) (A) (A) (A) (A) (A) (A)
                 (A) (A) (A) (A) (A) (A)
       Virtual   (A) (A) (A) (A) (A) (A) (A) (A) (A) (A) (A) (A)
                 (A) (A) (A) (A) (A) (A) (A) (A) (A) (A) (A) (A)
                 (A) (A) (A) (A) (A) (A) (A) (A) (A) (A) (A) (A)
                 (A) (A) (A) (A) (A) (A) (A) (A) (A) (A) (A) (A)
                 (A) (A) (A) (A) (A) (A) (A) (A) (A) (A) (A) (A)
                 (A) (A) (A) (A) (A) (A) (A) (A) (A) (A) (A) (A)
                 (A) (A) (A) (A) (A) (A) (A) (A) (A) (A) (A) (A)
                 (A) (A) (A) (A) (A) (A) (A) (A) (A) (A) (A) (A)
                 (A) (A) (A) (A) (A) (A) (A) (A) (A) (A) (A) (A)
                 (A) (A) (A) (A) (A) (A) (A) (A) (A) (A) (A) (A)
                 (A) (A) (A) (A) (A) (A) (A) (A) (A) (A) (A) (A)
                 (A) (A) (A) (A) (A) (A) (A) (A) (A) (A) (A) (A)
                 (A) (A) (A) (A) (A) (A) (A) (A) (A) (A) (A) (A)
                 (A) (A) (A) (A) (A) (A) (A) (A) (A) (A) (A) (A)
                 (A) (A) (A) (A) (A) (A) (A) (A) (A) (A) (A) (A)
                 (A) (A) (A) (A) (A) (A) (A) (A) (A) (A) (A) (A)
                 (A) (A) (A)
 The electronic state is 2-A.
 Alpha  occ. eigenvalues --  -19.68076 -19.65240 -19.62890 -10.70768 -10.63088
 Alpha  occ. eigenvalues --  -10.60804 -10.60553 -10.54454  -1.25302  -1.16709
 Alpha  occ. eigenvalues --   -1.11747  -0.91605  -0.88424  -0.77469  -0.74329
 Alpha  occ. eigenvalues --   -0.65031  -0.62531  -0.58497  -0.58058  -0.54362
 Alpha  occ. eigenvalues --   -0.52944  -0.50602  -0.48608  -0.46733  -0.45947
 Alpha  occ. eigenvalues --   -0.42153  -0.40866  -0.40351  -0.37971  -0.36890
 Alpha  occ. eigenvalues --   -0.32712
 Alpha virt. eigenvalues --   -0.01104  -0.00594   0.00511   0.00848   0.01767
 Alpha virt. eigenvalues --    0.02425   0.03194   0.04441   0.05335   0.05961
 Alpha virt. eigenvalues --    0.06962   0.07814   0.08307   0.09004   0.10431
 Alpha virt. eigenvalues --    0.10998   0.11333   0.11678   0.12150   0.13119
 Alpha virt. eigenvalues --    0.13611   0.13917   0.14401   0.14699   0.16091
 Alpha virt. eigenvalues --    0.16252   0.17456   0.18200   0.18782   0.19763
 Alpha virt. eigenvalues --    0.20577   0.21410   0.23025   0.23515   0.24344
 Alpha virt. eigenvalues --    0.25837   0.25934   0.28619   0.29315   0.30628
 Alpha virt. eigenvalues --    0.32317   0.32745   0.33261   0.33952   0.34732
 Alpha virt. eigenvalues --    0.35468   0.35937   0.37714   0.38156   0.39509
 Alpha virt. eigenvalues --    0.40783   0.43807   0.45773   0.46315   0.47954
 Alpha virt. eigenvalues --    0.50337   0.50935   0.53229   0.56932   0.58028
 Alpha virt. eigenvalues --    0.60180   0.61128   0.62719   0.65128   0.65648
 Alpha virt. eigenvalues --    0.68244   0.69235   0.69427   0.71000   0.72216
 Alpha virt. eigenvalues --    0.72390   0.76494   0.77527   0.78375   0.80194
 Alpha virt. eigenvalues --    0.82119   0.84415   0.89579   0.91537   0.98371
 Alpha virt. eigenvalues --    1.00550   1.03593   1.04676   1.10134   1.15205
 Alpha virt. eigenvalues --    1.16302   1.16829   1.20758   1.24219   1.25805
 Alpha virt. eigenvalues --    1.27734   1.28472   1.29911   1.30870   1.32678
 Alpha virt. eigenvalues --    1.35701   1.37640   1.38967   1.42662   1.45717
 Alpha virt. eigenvalues --    1.47572   1.48528   1.50016   1.53985   1.58277
 Alpha virt. eigenvalues --    1.58733   1.59728   1.62279   1.62496   1.64864
 Alpha virt. eigenvalues --    1.66009   1.69469   1.69868   1.71556   1.74934
 Alpha virt. eigenvalues --    1.77888   1.79298   1.83185   1.84840   1.89066
 Alpha virt. eigenvalues --    1.91261   1.92747   2.00006   2.01963   2.04588
 Alpha virt. eigenvalues --    2.10511   2.12489   2.14592   2.21287   2.26722
 Alpha virt. eigenvalues --    2.30629   2.34982   2.40124   2.50197   2.50795
 Alpha virt. eigenvalues --    2.54562   2.55113   2.60016   2.61571   2.63145
 Alpha virt. eigenvalues --    2.65038   2.65729   2.68880   2.72488   2.74673
 Alpha virt. eigenvalues --    2.77506   2.80610   2.81114   2.85869   2.89912
 Alpha virt. eigenvalues --    2.92840   2.96079   2.98084   3.03164   3.07300
 Alpha virt. eigenvalues --    3.11523   3.14557   3.16881   3.19230   3.19986
 Alpha virt. eigenvalues --    3.27180   3.32422   3.36729   3.39694   3.44288
 Alpha virt. eigenvalues --    3.46333   3.53552   3.61427   3.76521   3.84567
 Alpha virt. eigenvalues --    3.85318   3.87648   3.93796   4.04079   4.10743
 Alpha virt. eigenvalues --    4.13926   4.31144   5.13811   5.17754   5.17876
 Alpha virt. eigenvalues --    5.21347   5.29050   5.43914   5.61985   5.69231
 Alpha virt. eigenvalues --    5.98416  23.57893  23.91743  23.94892  24.04700
 Alpha virt. eigenvalues --   24.81465  49.99098  50.01565  50.12170
  Beta  occ. eigenvalues --  -19.68067 -19.64338 -19.62911 -10.70724 -10.63228
  Beta  occ. eigenvalues --  -10.60807 -10.60065 -10.54453  -1.25274  -1.16734
  Beta  occ. eigenvalues --   -1.08538  -0.89711  -0.88388  -0.77022  -0.73652
  Beta  occ. eigenvalues --   -0.64465  -0.61999  -0.58393  -0.57506  -0.53158
  Beta  occ. eigenvalues --   -0.52671  -0.49392  -0.47671  -0.45905  -0.42653
  Beta  occ. eigenvalues --   -0.42055  -0.39602  -0.38853  -0.37972  -0.35804
  Beta virt. eigenvalues --   -0.10448  -0.00945  -0.00073   0.00699   0.01423
  Beta virt. eigenvalues --    0.01951   0.02756   0.03300   0.04323   0.05483
  Beta virt. eigenvalues --    0.06019   0.07035   0.07765   0.08172   0.08926
  Beta virt. eigenvalues --    0.10385   0.11112   0.11344   0.11920   0.12217
  Beta virt. eigenvalues --    0.13314   0.13786   0.14238   0.14460   0.14932
  Beta virt. eigenvalues --    0.15971   0.16217   0.17318   0.18333   0.18763
  Beta virt. eigenvalues --    0.19887   0.20493   0.21570   0.23139   0.23620
  Beta virt. eigenvalues --    0.24190   0.25663   0.25847   0.28555   0.29198
  Beta virt. eigenvalues --    0.30745   0.32350   0.32745   0.33159   0.33979
  Beta virt. eigenvalues --    0.34743   0.35393   0.35742   0.37479   0.38078
  Beta virt. eigenvalues --    0.39547   0.40992   0.43776   0.45718   0.46324
  Beta virt. eigenvalues --    0.48083   0.50336   0.50927   0.53215   0.57235
  Beta virt. eigenvalues --    0.58485   0.60381   0.61187   0.62939   0.65168
  Beta virt. eigenvalues --    0.65996   0.68109   0.69241   0.69324   0.70899
  Beta virt. eigenvalues --    0.72145   0.72232   0.76321   0.77526   0.78023
  Beta virt. eigenvalues --    0.80027   0.82031   0.84657   0.89634   0.92146
  Beta virt. eigenvalues --    0.98570   1.00646   1.03749   1.04691   1.10361
  Beta virt. eigenvalues --    1.15740   1.16456   1.18017   1.21615   1.24678
  Beta virt. eigenvalues --    1.26231   1.28355   1.29199   1.30163   1.31612
  Beta virt. eigenvalues --    1.33587   1.36437   1.38303   1.39218   1.42967
  Beta virt. eigenvalues --    1.46568   1.48043   1.48974   1.50014   1.54987
  Beta virt. eigenvalues --    1.58341   1.59094   1.59878   1.62368   1.62614
  Beta virt. eigenvalues --    1.64971   1.66268   1.69525   1.70032   1.71573
  Beta virt. eigenvalues --    1.75212   1.77893   1.79311   1.83266   1.85203
  Beta virt. eigenvalues --    1.89195   1.91607   1.92944   2.00140   2.02325
  Beta virt. eigenvalues --    2.04839   2.10662   2.12912   2.14742   2.21315
  Beta virt. eigenvalues --    2.26879   2.30783   2.34988   2.40328   2.50242
  Beta virt. eigenvalues --    2.51342   2.54647   2.55195   2.60589   2.61579
  Beta virt. eigenvalues --    2.63126   2.65222   2.66787   2.68943   2.72704
  Beta virt. eigenvalues --    2.74694   2.78882   2.80758   2.82013   2.88813
  Beta virt. eigenvalues --    2.89991   2.93033   2.96211   2.98245   3.02901
  Beta virt. eigenvalues --    3.10084   3.11744   3.14649   3.19751   3.20767
  Beta virt. eigenvalues --    3.22401   3.27860   3.32443   3.36823   3.40030
  Beta virt. eigenvalues --    3.44355   3.47632   3.53120   3.61413   3.76531
  Beta virt. eigenvalues --    3.84585   3.85324   3.87641   3.95486   4.04152
  Beta virt. eigenvalues --    4.10453   4.13927   4.31147   5.14203   5.17870
  Beta virt. eigenvalues --    5.22007   5.22380   5.29377   5.43923   5.63729
  Beta virt. eigenvalues --    5.69211   5.98401  23.58004  23.91751  23.94895
  Beta virt. eigenvalues --   24.04700  24.82213  49.98951  50.01015  50.12191
          Condensed to atoms (all electrons):
               1          2          3          4          5          6
     1  C   14.475057   0.493583  -4.251801  -3.766292  -0.202072  -0.133927
     2  H    0.493583   0.428545  -0.151708   0.008021  -0.002970  -0.001304
     3  C   -4.251801  -0.151708  10.511677  -0.451209   0.014171  -0.218497
     4  C   -3.766292   0.008021  -0.451209   9.543208   0.543693   0.246167
     5  O   -0.202072  -0.002970   0.014171   0.543693   7.988230  -0.079889
     6  O   -0.133927  -0.001304  -0.218497   0.246167  -0.079889   8.159493
     7  C    0.159623  -0.015646  -0.006868  -0.180701  -0.029045   0.207439
     8  C   -0.200350   0.011196  -0.076590   0.219508   0.025685  -0.117517
     9  H   -0.076445   0.001447   0.059538  -0.023928   0.001450   0.009942
    10  H    0.058422  -0.000860   0.052188  -0.082167  -0.003457  -0.083552
    11  H   -0.024743   0.000592  -0.019093   0.037528   0.000866  -0.005993
    12  H    0.000313  -0.008353   0.097155  -0.080880  -0.001048  -0.013652
    13  H    0.007477   0.000034   0.007701  -0.015239   0.000362   0.016230
    14  O   -0.562074  -0.008160   0.557416  -0.035993  -0.009785   0.031324
    15  H   -0.003500  -0.000881  -0.007954   0.049474  -0.004682  -0.004921
               7          8          9         10         11         12
     1  C    0.159623  -0.200350  -0.076445   0.058422  -0.024743   0.000313
     2  H   -0.015646   0.011196   0.001447  -0.000860   0.000592  -0.008353
     3  C   -0.006868  -0.076590   0.059538   0.052188  -0.019093   0.097155
     4  C   -0.180701   0.219508  -0.023928  -0.082167   0.037528  -0.080880
     5  O   -0.029045   0.025685   0.001450  -0.003457   0.000866  -0.001048
     6  O    0.207439  -0.117517   0.009942  -0.083552  -0.005993  -0.013652
     7  C    5.732059  -0.192477   0.334620   0.492454  -0.060082   0.038567
     8  C   -0.192477   5.651854  -0.000244  -0.112703   0.453968   0.293087
     9  H    0.334620  -0.000244   0.537816  -0.041979   0.001242  -0.013051
    10  H    0.492454  -0.112703  -0.041979   0.514627  -0.009601   0.016384
    11  H   -0.060082   0.453968   0.001242  -0.009601   0.517213  -0.048134
    12  H    0.038567   0.293087  -0.013051   0.016384  -0.048134   0.631809
    13  H   -0.066096   0.418907   0.000569  -0.003039  -0.031495  -0.038143
    14  O   -0.064854   0.021993   0.019641  -0.011090   0.000346  -0.001873
    15  H    0.009748  -0.001335  -0.007304   0.000840   0.000289   0.000132
              13         14         15
     1  C    0.007477  -0.562074  -0.003500
     2  H    0.000034  -0.008160  -0.000881
     3  C    0.007701   0.557416  -0.007954
     4  C   -0.015239  -0.035993   0.049474
     5  O    0.000362  -0.009785  -0.004682
     6  O    0.016230   0.031324  -0.004921
     7  C   -0.066096  -0.064854   0.009748
     8  C    0.418907   0.021993  -0.001335
     9  H    0.000569   0.019641  -0.007304
    10  H   -0.003039  -0.011090   0.000840
    11  H   -0.031495   0.000346   0.000289
    12  H   -0.038143  -0.001873   0.000132
    13  H    0.542178   0.000347  -0.000417
    14  O    0.000347   8.106978   0.233180
    15  H   -0.000417   0.233180   0.484857
          Atomic-Atomic Spin Densities.
               1          2          3          4          5          6
     1  C    2.286494   0.104757  -0.963730  -0.254296   0.006357   0.006075
     2  H    0.104757  -0.010398  -0.093440  -0.019376  -0.000094  -0.000024
     3  C   -0.963730  -0.093440   0.427843   0.252091   0.009240   0.017208
     4  C   -0.254296  -0.019376   0.252091  -0.030678  -0.012267  -0.025461
     5  O    0.006357  -0.000094   0.009240  -0.012267  -0.015011  -0.000064
     6  O    0.006075  -0.000024   0.017208  -0.025461  -0.000064   0.007319
     7  C   -0.128031  -0.004502   0.037915   0.062799   0.000994  -0.001953
     8  C    0.065437   0.002701  -0.027997  -0.035136  -0.000334   0.000499
     9  H    0.048637   0.001824  -0.008881  -0.019779   0.000188   0.000034
    10  H   -0.014265  -0.000322  -0.004246   0.015591   0.000137  -0.000657
    11  H    0.000006  -0.000096   0.002996  -0.002455  -0.000133   0.000145
    12  H   -0.041930  -0.002060   0.023160   0.018122   0.000015  -0.000562
    13  H    0.006347   0.000339  -0.003173  -0.002591   0.000008   0.000102
    14  O   -0.385414  -0.010645   0.107607   0.116943   0.002458  -0.000420
    15  H    0.040660   0.001337  -0.020101  -0.013670  -0.000066   0.000485
               7          8          9         10         11         12
     1  C   -0.128031   0.065437   0.048637  -0.014265   0.000006  -0.041930
     2  H   -0.004502   0.002701   0.001824  -0.000322  -0.000096  -0.002060
     3  C    0.037915  -0.027997  -0.008881  -0.004246   0.002996   0.023160
     4  C    0.062799  -0.035136  -0.019779   0.015591  -0.002455   0.018122
     5  O    0.000994  -0.000334   0.000188   0.000137  -0.000133   0.000015
     6  O   -0.001953   0.000499   0.000034  -0.000657   0.000145  -0.000562
     7  C    0.014178  -0.004817  -0.010302   0.004000  -0.000340   0.006023
     8  C   -0.004817   0.006236   0.003356  -0.001768  -0.001026  -0.002638
     9  H   -0.010302   0.003356   0.005604  -0.001465  -0.000042  -0.001529
    10  H    0.004000  -0.001768  -0.001465   0.000503   0.000153   0.001123
    11  H   -0.000340  -0.001026  -0.000042   0.000153   0.000320  -0.000177
    12  H    0.006023  -0.002638  -0.001529   0.001123  -0.000177   0.002544
    13  H   -0.001826   0.001382   0.000618  -0.000877   0.000383  -0.001710
    14  O    0.025972  -0.007588  -0.013439   0.001343   0.000183   0.004082
    15  H   -0.002800   0.000646   0.001377  -0.000204  -0.000011  -0.000353
              13         14         15
     1  C    0.006347  -0.385414   0.040660
     2  H    0.000339  -0.010645   0.001337
     3  C   -0.003173   0.107607  -0.020101
     4  C   -0.002591   0.116943  -0.013670
     5  O    0.000008   0.002458  -0.000066
     6  O    0.000102  -0.000420   0.000485
     7  C   -0.001826   0.025972  -0.002800
     8  C    0.001382  -0.007588   0.000646
     9  H    0.000618  -0.013439   0.001377
    10  H   -0.000877   0.001343  -0.000204
    11  H    0.000383   0.000183  -0.000011
    12  H   -0.001710   0.004082  -0.000353
    13  H    0.000689  -0.000633   0.000061
    14  O   -0.000633   0.611704   0.001985
    15  H    0.000061   0.001985  -0.015706
 Mulliken charges and spin densities:
               1          2
     1  C    0.026728   0.777103
     2  H    0.246464  -0.030002
     3  C   -0.116126  -0.243508
     4  C   -0.011189   0.049837
     5  O   -0.241511  -0.008574
     6  O   -0.011343   0.002726
     7  C   -0.358741  -0.002691
     8  C   -0.394982  -0.001048
     9  H    0.196684   0.006201
    10  H    0.213533  -0.000954
    11  H    0.187097  -0.000093
    12  H    0.127688   0.004111
    13  H    0.160623  -0.000881
    14  O   -0.277396   0.454137
    15  H    0.252472  -0.006362
 Sum of Mulliken charges =  -0.00000   1.00000
 Mulliken charges and spin densities with hydrogens summed into heavy atoms:
               1          2
     1  C    0.273192   0.747102
     3  C   -0.116126  -0.243508
     4  C   -0.011189   0.049837
     5  O   -0.241511  -0.008574
     6  O   -0.011343   0.002726
     7  C    0.051476   0.002556
     8  C    0.080426   0.002088
    14  O   -0.024924   0.447775
 APT charges:
               1
     1  C   -0.153488
     2  H    0.240621
     3  C   -0.130850
     4  C    1.455873
     5  O   -0.833930
     6  O   -0.912576
     7  C    0.496659
     8  C   -0.025534
     9  H    0.002610
    10  H   -0.008280
    11  H    0.014542
    12  H    0.005781
    13  H    0.009679
    14  O   -0.403132
    15  H    0.242023
 Sum of APT charges =   0.00000
 APT charges with hydrogens summed into heavy atoms:
               1
     1  C    0.087133
     3  C   -0.130850
     4  C    1.455873
     5  O   -0.833930
     6  O   -0.912576
     7  C    0.490989
     8  C    0.004468
    14  O   -0.161109
 Electronic spatial extent (au):  <R**2>=            969.7618
 Charge=             -0.0000 electrons
 Dipole moment (field-independent basis, Debye):
    X=             -0.6979    Y=             -4.1343    Z=             -1.1799  Tot=              4.3556
 Quadrupole moment (field-independent basis, Debye-Ang):
   XX=            -39.8031   YY=            -51.9834   ZZ=            -47.4866
   XY=             -4.2218   XZ=             -1.2522   YZ=              5.3401
 Traceless Quadrupole moment (field-independent basis, Debye-Ang):
   XX=              6.6213   YY=             -5.5590   ZZ=             -1.0622
   XY=             -4.2218   XZ=             -1.2522   YZ=              5.3401
 Octapole moment (field-independent basis, Debye-Ang**2):
  XXX=              9.8128  YYY=            -15.9363  ZZZ=              1.7947  XYY=              1.5321
  XXY=            -10.6296  XXZ=              9.0477  XZZ=              1.9439  YZZ=             -1.4088
  YYZ=             -5.5584  XYZ=              9.8956
 Hexadecapole moment (field-independent basis, Debye-Ang**3):
 XXXX=           -592.7776 YYYY=           -376.8835 ZZZZ=           -236.7531 XXXY=            -21.0534
 XXXZ=             20.0880 YYYX=            -26.4511 YYYZ=             23.9789 ZZZX=             -3.4874
 ZZZY=              7.0601 XXYY=           -162.0392 XXZZ=           -132.8980 YYZZ=            -92.3364
 XXYZ=              7.5076 YYXZ=            -12.1337 ZZXY=            -11.3080
 N-N= 3.678630101853D+02 E-N=-1.720053630141D+03  KE= 4.186834203985D+02
  Exact polarizability:  72.081  -0.065  71.415  -2.465   4.185  74.134
 Approx polarizability:  76.323   0.732  87.566  -5.993   6.471  91.642
                          Isotropic Fermi Contact Couplings
        Atom                 a.u.       MegaHertz       Gauss      10(-4) cm-1
     1  C(13)              0.10992     123.57465      44.09451      41.22007
     2  H(1)              -0.01217     -54.41070     -19.41509     -18.14946
     3  C(13)             -0.01150     -12.92953      -4.61358      -4.31283
     4  C(13)              0.02779      31.24415      11.14869      10.42193
     5  O(17)             -0.00402       2.43849       0.87011       0.81339
     6  O(17)              0.00197      -1.19529      -0.42651      -0.39870
     7  C(13)             -0.00158      -1.77616      -0.63378      -0.59246
     8  C(13)              0.00033       0.37593       0.13414       0.12540
     9  H(1)              -0.00002      -0.09263      -0.03305      -0.03090
    10  H(1)              -0.00014      -0.62689      -0.22369      -0.20911
    11  H(1)              -0.00001      -0.03003      -0.01071      -0.01002
    12  H(1)              -0.00000      -0.02123      -0.00758      -0.00708
    13  H(1)              -0.00001      -0.03692      -0.01318      -0.01232
    14  O(17)              0.10927     -66.23821     -23.63544     -22.09469
    15  H(1)              -0.00776     -34.68681     -12.37712     -11.57028
 --------------------------------------------------------
       Center         ----  Spin Dipole Couplings  ----
                      3XX-RR        3YY-RR        3ZZ-RR
 --------------------------------------------------------
     1   Atom       -0.202575     -0.246731      0.449306
     2   Atom       -0.034534      0.029427      0.005107
     3   Atom       -0.047644      0.084405     -0.036761
     4   Atom       -0.013878      0.021266     -0.007389
     5   Atom        0.037308      0.027690     -0.064998
     6   Atom        0.023800      0.000838     -0.024638
     7   Atom        0.003538     -0.002861     -0.000677
     8   Atom        0.003466     -0.002359     -0.001107
     9   Atom        0.008853     -0.006206     -0.002647
    10   Atom        0.002507     -0.001357     -0.001150
    11   Atom        0.001805     -0.000852     -0.000954
    12   Atom        0.006057     -0.003513     -0.002544
    13   Atom        0.002511     -0.001425     -0.001087
    14   Atom       -0.966885     -0.956155      1.923040
    15   Atom        0.085360     -0.063022     -0.022338
 --------------------------------------------------------
                        XY            XZ            YZ
 --------------------------------------------------------
     1   Atom       -0.094881      0.326623     -0.414361
     2   Atom       -0.035568     -0.005923      0.030227
     3   Atom       -0.077161     -0.021860      0.067227
     4   Atom       -0.020690      0.006190     -0.004041
     5   Atom       -0.027822     -0.001210     -0.051437
     6   Atom       -0.022980      0.001526     -0.004617
     7   Atom       -0.000540     -0.000626      0.000827
     8   Atom       -0.001471     -0.001105      0.000578
     9   Atom       -0.000024     -0.000232      0.001526
    10   Atom       -0.001259     -0.000890      0.000367
    11   Atom       -0.001089      0.000172     -0.000031
    12   Atom       -0.001688      0.000181     -0.000036
    13   Atom        0.000176     -0.000261      0.000025
    14   Atom        0.005060      0.186272      0.075989
    15   Atom        0.027144      0.003395      0.004070
 --------------------------------------------------------


 ---------------------------------------------------------------------------------
              Anisotropic Spin Dipole Couplings in Principal Axis System
 ---------------------------------------------------------------------------------

       Atom             a.u.   MegaHertz   Gauss  10(-4) cm-1        Axes

              Baa    -0.4576   -61.401   -21.909   -20.481 -0.3214  0.8122  0.4869
     1 C(13)  Bbb    -0.3025   -40.591   -14.484   -13.540  0.8875  0.4377 -0.1443
              Bcc     0.7601   101.992    36.393    34.021  0.3303 -0.3857  0.8615
 
              Baa    -0.0514   -27.420    -9.784    -9.146  0.8846  0.4433 -0.1444
     2 H(1)   Bbb    -0.0100    -5.343    -1.907    -1.782  0.3276 -0.3706  0.8691
              Bcc     0.0614    32.764    11.691    10.929 -0.3318  0.8162  0.4731
 
              Baa    -0.0859   -11.525    -4.112    -3.844  0.8140  0.4912 -0.3101
     3 C(13)  Bbb    -0.0609    -8.178    -2.918    -2.728  0.4403 -0.1737  0.8809
              Bcc     0.1468    19.703     7.030     6.572 -0.3789  0.8535  0.3577
 
              Baa    -0.0244    -3.274    -1.168    -1.092  0.8932  0.3840 -0.2339
     4 C(13)  Bbb    -0.0075    -1.000    -0.357    -0.334  0.1475  0.2412  0.9592
              Bcc     0.0318     4.274     1.525     1.426 -0.4248  0.8913 -0.1588
 
              Baa    -0.0892     6.451     2.302     2.152  0.1012  0.4209  0.9014
     5 O(17)  Bbb     0.0190    -1.378    -0.492    -0.460  0.7813  0.5273 -0.3340
              Bcc     0.0701    -5.073    -1.810    -1.692 -0.6159  0.7381 -0.2755
 
              Baa    -0.0257     1.856     0.662     0.619  0.0813  0.2392  0.9676
     6 O(17)  Bbb    -0.0126     0.910     0.325     0.304  0.5251  0.8149 -0.2455
              Bcc     0.0382    -2.766    -0.987    -0.923  0.8472 -0.5280  0.0593
 
              Baa    -0.0032    -0.423    -0.151    -0.141  0.0483  0.9510 -0.3052
     7 C(13)  Bbb    -0.0005    -0.073    -0.026    -0.024  0.1827  0.2920  0.9388
              Bcc     0.0037     0.496     0.177     0.165  0.9820 -0.1011 -0.1597
 
              Baa    -0.0028    -0.372    -0.133    -0.124  0.1895  0.9597 -0.2073
     8 C(13)  Bbb    -0.0013    -0.178    -0.063    -0.059  0.2664  0.1529  0.9516
              Bcc     0.0041     0.550     0.196     0.183  0.9450 -0.2356 -0.2267
 
              Baa    -0.0068    -3.613    -1.289    -1.205 -0.0037  0.9378 -0.3472
     9 H(1)   Bbb    -0.0021    -1.113    -0.397    -0.371  0.0206  0.3472  0.9376
              Bcc     0.0089     4.726     1.686     1.576  0.9998 -0.0037 -0.0206
 
              Baa    -0.0018    -0.936    -0.334    -0.312  0.2302  0.9446 -0.2339
    10 H(1)   Bbb    -0.0013    -0.716    -0.256    -0.239  0.2738  0.1677  0.9470
              Bcc     0.0031     1.653     0.590     0.551  0.9338 -0.2820 -0.2201
 
              Baa    -0.0012    -0.664    -0.237    -0.221  0.3398  0.9351 -0.1008
    11 H(1)   Bbb    -0.0010    -0.512    -0.183    -0.171 -0.0173  0.1134  0.9934
              Bcc     0.0022     1.176     0.420     0.392  0.9404 -0.3358  0.0547
 
              Baa    -0.0038    -2.029    -0.724    -0.677  0.1687  0.9857  0.0038
    12 H(1)   Bbb    -0.0025    -1.359    -0.485    -0.453 -0.0211 -0.0002  0.9998
              Bcc     0.0063     3.388     1.209     1.130  0.9854 -0.1687  0.0208
 
              Baa    -0.0014    -0.767    -0.274    -0.256 -0.0515  0.9927 -0.1088
    13 H(1)   Bbb    -0.0011    -0.587    -0.210    -0.196  0.0660  0.1121  0.9915
              Bcc     0.0025     1.354     0.483     0.452  0.9965  0.0439 -0.0713
 
              Baa    -0.9788    70.828    25.273    23.626  0.9979 -0.0088 -0.0638
    14 O(17)  Bbb    -0.9582    69.332    24.739    23.127  0.0071  0.9996 -0.0268
              Bcc     1.9370  -140.160   -50.013   -46.752  0.0640  0.0263  0.9976
 
              Baa    -0.0681   -36.328   -12.963   -12.118 -0.1721  0.9822 -0.0746
    15 H(1)   Bbb    -0.0222   -11.860    -4.232    -3.956 -0.0484  0.0672  0.9966
              Bcc     0.0903    48.188    17.195    16.074  0.9839  0.1751  0.0360
 

 ---------------------------------------------------------------------------------

 Calling FoFJK, ICntrl=    100127 FMM=F ISym2X=0 I1Cent= 0 IOpClX= 1 NMat=1 NMatS=1 NMatT=0.
 Full mass-weighted force constant matrix:
 Low frequencies --- -655.8636   -0.0009   -0.0008    0.0003   17.8077   33.1160
 Low frequencies ---   54.0641   88.4881  100.7257
 ******    1 imaginary frequencies (negative Signs) ****** 
 Diagonal vibrational polarizability:
       28.1585553      77.8612618      16.8874682
 Harmonic frequencies (cm**-1), IR intensities (KM/Mole), Raman scattering
 activities (A**4/AMU), depolarization ratios for plane and unpolarized
 incident light, reduced masses (AMU), force constants (mDyne/A),
 and normal coordinates:
                      1                      2                      3
                      A                      A                      A
 Frequencies --   -655.8635                86.8922               100.6708
 Red. masses --     11.9996                 3.5706                 3.9690
 Frc consts  --      3.0412                 0.0159                 0.0237
 IR Inten    --      1.6872                 1.7184                 0.8528
  Atom  AN      X      Y      Z        X      Y      Z        X      Y      Z
     1   6    -0.06   0.09  -0.10     0.21   0.03   0.04    -0.13  -0.03   0.01
     2   1     0.05  -0.05   0.23     0.32   0.06   0.06    -0.19  -0.04  -0.01
     3   6     0.24  -0.17   0.75     0.07  -0.01   0.03    -0.07  -0.00   0.01
     4   6     0.02  -0.03   0.01    -0.02  -0.04  -0.02    -0.04   0.01   0.01
     5   8    -0.01  -0.03  -0.03    -0.13  -0.02  -0.17    -0.11  -0.00  -0.16
     6   8    -0.01   0.00  -0.01     0.05  -0.08   0.12     0.06   0.02   0.24
     7   6    -0.01   0.01   0.00     0.01  -0.09  -0.02     0.01   0.01   0.05
     8   6     0.00  -0.00  -0.00    -0.14   0.23  -0.02     0.29   0.01  -0.15
     9   1    -0.04  -0.00   0.03    -0.01  -0.20  -0.25    -0.05   0.03   0.20
    10   1    -0.02   0.02  -0.01     0.13  -0.22   0.11    -0.19   0.01  -0.10
    11   1     0.01  -0.00  -0.01    -0.10   0.34   0.21     0.34   0.00  -0.28
    12   1     0.01  -0.00   0.01    -0.23   0.36  -0.14     0.48   0.04  -0.01
    13   1    -0.00  -0.00  -0.01    -0.18   0.22  -0.15     0.25  -0.01  -0.31
    14   8    -0.12   0.10  -0.47    -0.02  -0.00   0.05    -0.04  -0.01   0.01
    15   1    -0.12   0.06  -0.10    -0.00  -0.14   0.07    -0.01  -0.21  -0.05
                      4                      5                      6
                      A                      A                      A
 Frequencies --    122.5993               177.9616               206.3739
 Red. masses --      3.9270                 1.2786                 1.9062
 Frc consts  --      0.0348                 0.0239                 0.0478
 IR Inten    --      3.9727                80.9149                 4.2041
  Atom  AN      X      Y      Z        X      Y      Z        X      Y      Z
     1   6    -0.22  -0.15   0.09     0.06   0.01  -0.00     0.05   0.05  -0.01
     2   1    -0.36  -0.24   0.16     0.15  -0.01   0.09     0.08   0.13  -0.12
     3   6     0.02  -0.00   0.02    -0.03  -0.02  -0.01     0.01  -0.02   0.05
     4   6     0.00  -0.02   0.04    -0.03  -0.02  -0.00    -0.03  -0.03   0.03
     5   8    -0.02   0.01   0.09    -0.01  -0.03  -0.00    -0.03  -0.04  -0.01
     6   8    -0.01  -0.07   0.03    -0.01   0.02   0.03    -0.05   0.02  -0.02
     7   6    -0.01  -0.09  -0.10    -0.04   0.04   0.02    -0.11   0.07   0.01
     8   6    -0.06   0.10  -0.13     0.01   0.02  -0.01    -0.03   0.01  -0.03
     9   1    -0.01  -0.15  -0.23    -0.06   0.04   0.08    -0.16   0.07   0.13
    10   1     0.02  -0.20  -0.03    -0.08   0.08  -0.02    -0.18   0.16  -0.08
    11   1    -0.05   0.16   0.02     0.08   0.04  -0.09     0.25   0.12  -0.33
    12   1    -0.09   0.23  -0.20     0.05  -0.06   0.05     0.02  -0.37   0.13
    13   1    -0.07   0.07  -0.25    -0.05   0.07  -0.01    -0.32   0.25   0.07
    14   8     0.25   0.16  -0.01     0.04  -0.07  -0.04     0.17  -0.04   0.03
    15   1     0.20   0.43  -0.09    -0.11   0.93   0.14     0.23  -0.44  -0.16
                      7                      8                      9
                      A                      A                      A
 Frequencies --    219.7384               243.1587               287.1691
 Red. masses --      3.7603                 1.7101                 2.3403
 Frc consts  --      0.1070                 0.0596                 0.1137
 IR Inten    --      4.8441                 2.2072                10.7162
  Atom  AN      X      Y      Z        X      Y      Z        X      Y      Z
     1   6     0.10  -0.06  -0.07     0.08   0.02  -0.03     0.09  -0.13   0.16
     2   1     0.21  -0.03  -0.04     0.19   0.10  -0.10     0.25  -0.36   0.71
     3   6    -0.05  -0.06  -0.14    -0.07  -0.06  -0.01    -0.01   0.03  -0.08
     4   6    -0.01  -0.07  -0.00    -0.04  -0.05   0.02    -0.03   0.05  -0.03
     5   8     0.06  -0.07   0.12     0.04  -0.11   0.02    -0.05   0.09   0.06
     6   8     0.05  -0.06   0.10    -0.04   0.04   0.02    -0.01   0.02   0.01
     7   6    -0.03  -0.03   0.05    -0.07   0.06   0.02    -0.02   0.04   0.02
     8   6     0.01   0.02   0.00     0.01   0.01  -0.02     0.01   0.01   0.01
     9   1    -0.09  -0.06   0.09    -0.08   0.08   0.08    -0.03   0.05   0.05
    10   1    -0.06   0.02   0.00    -0.11   0.08  -0.02    -0.05   0.06  -0.01
    11   1     0.37   0.20  -0.27    -0.37  -0.20   0.22    -0.03  -0.03   0.01
    12   1     0.02  -0.42   0.16     0.08   0.50  -0.12     0.03   0.05   0.01
    13   1    -0.37   0.32   0.10     0.41  -0.33  -0.19     0.05  -0.03  -0.01
    14   8    -0.13   0.29  -0.09     0.05   0.07  -0.01     0.02  -0.07  -0.16
    15   1    -0.08  -0.02  -0.13     0.08  -0.13  -0.14     0.06  -0.35  -0.23
                     10                     11                     12
                      A                      A                      A
 Frequencies --    383.9771               413.7899               443.7143
 Red. masses --      2.9259                 2.9873                 1.7785
 Frc consts  --      0.2542                 0.3014                 0.2063
 IR Inten    --      2.3053                 3.0312                34.3061
  Atom  AN      X      Y      Z        X      Y      Z        X      Y      Z
     1   6     0.00  -0.06  -0.04    -0.03   0.09  -0.01    -0.06   0.08  -0.19
     2   1    -0.25  -0.06  -0.23     0.17  -0.10   0.49     0.21  -0.36   0.83
     3   6     0.19   0.02  -0.05    -0.09   0.05   0.02     0.04   0.00  -0.01
     4   6     0.11  -0.01  -0.01     0.02   0.05   0.04     0.01  -0.03  -0.01
     5   8    -0.05   0.10  -0.00     0.12  -0.04  -0.08    -0.01  -0.01   0.01
     6   8     0.13  -0.10   0.06     0.07   0.07   0.19    -0.00  -0.05  -0.05
     7   6    -0.18   0.09   0.02    -0.01  -0.00  -0.15    -0.02  -0.01   0.05
     8   6    -0.10  -0.06  -0.02    -0.14  -0.14  -0.06     0.02   0.03   0.01
     9   1    -0.38   0.02   0.27    -0.01  -0.04  -0.22    -0.05  -0.01   0.10
    10   1    -0.29   0.37  -0.16    -0.02  -0.13  -0.11    -0.03   0.07   0.02
    11   1    -0.31  -0.24  -0.05    -0.26  -0.26  -0.11     0.05   0.06   0.03
    12   1    -0.04   0.04  -0.01    -0.31  -0.35  -0.11     0.08   0.10   0.03
    13   1     0.12  -0.21   0.03    -0.04  -0.11   0.30     0.01   0.01  -0.10
    14   8    -0.03   0.01   0.01     0.02  -0.00   0.00     0.00   0.01   0.09
    15   1    -0.03   0.06   0.17     0.01  -0.01  -0.08     0.02  -0.05   0.10
                     13                     14                     15
                      A                      A                      A
 Frequencies --    562.9944               632.8850               713.3016
 Red. masses --      5.3746                 4.3794                 1.3545
 Frc consts  --      1.0037                 1.0335                 0.4061
 IR Inten    --     18.8864                 6.7568                37.1507
  Atom  AN      X      Y      Z        X      Y      Z        X      Y      Z
     1   6    -0.04   0.16   0.19     0.02  -0.06  -0.04    -0.13  -0.07   0.01
     2   1    -0.26   0.14   0.08    -0.46  -0.31   0.05     0.88   0.40  -0.10
     3   6     0.00   0.28  -0.03     0.35   0.13  -0.12     0.08   0.03  -0.02
     4   6     0.02   0.07   0.00    -0.09  -0.05   0.11    -0.01   0.01  -0.01
     5   8     0.24  -0.09  -0.12    -0.00  -0.17  -0.02     0.02   0.00  -0.01
     6   8    -0.05  -0.15  -0.04    -0.17   0.16   0.07    -0.01   0.01   0.01
     7   6    -0.16  -0.18   0.17    -0.00   0.03  -0.01    -0.01  -0.01   0.01
     8   6    -0.02  -0.00   0.00     0.00  -0.00   0.00    -0.00  -0.00  -0.00
     9   1    -0.22  -0.18   0.30     0.20   0.10  -0.26     0.01  -0.00  -0.02
    10   1    -0.19   0.06   0.07     0.05  -0.28   0.14    -0.00  -0.02   0.03
    11   1     0.14   0.14   0.06     0.00  -0.04  -0.08     0.00  -0.00  -0.01
    12   1     0.19   0.22   0.09     0.03  -0.07   0.04     0.02   0.00   0.02
    13   1    -0.14  -0.04  -0.41     0.01   0.01   0.05    -0.01  -0.01  -0.03
    14   8    -0.01  -0.02  -0.10    -0.03   0.01  -0.03    -0.00  -0.00  -0.00
    15   1    -0.02  -0.01  -0.08    -0.00  -0.09   0.41     0.01  -0.03   0.13
                     16                     17                     18
                      A                      A                      A
 Frequencies --    748.8213               753.6129               807.2205
 Red. masses --      5.3674                10.1994                 1.1281
 Frc consts  --      1.7732                 3.4129                 0.4331
 IR Inten    --      2.4490                21.9677                 2.8796
  Atom  AN      X      Y      Z        X      Y      Z        X      Y      Z
     1   6     0.10  -0.17  -0.16    -0.00  -0.03  -0.01     0.01  -0.02  -0.01
     2   1    -0.05  -0.26  -0.14     0.31   0.03   0.12     0.01  -0.02  -0.02
     3   6    -0.00  -0.23   0.03    -0.12  -0.04  -0.11     0.02  -0.01  -0.00
     4   6     0.05   0.23   0.01     0.36  -0.01   0.74    -0.02   0.02   0.01
     5   8     0.15   0.19  -0.09    -0.13  -0.00  -0.19     0.01  -0.00  -0.00
     6   8    -0.12   0.14   0.05    -0.04  -0.02  -0.17    -0.02   0.03   0.01
     7   6    -0.14  -0.17   0.14     0.01   0.01  -0.01     0.05  -0.05  -0.01
     8   6    -0.08  -0.07  -0.03     0.00  -0.00  -0.01     0.02  -0.03  -0.02
     9   1     0.04  -0.09  -0.06     0.01   0.03   0.02     0.01   0.13   0.48
    10   1    -0.02  -0.28   0.26    -0.00   0.04  -0.03    -0.31   0.15  -0.35
    11   1     0.12   0.07  -0.08     0.01   0.02   0.03     0.09   0.19   0.43
    12   1     0.20   0.13   0.12    -0.02   0.02  -0.03    -0.36   0.04  -0.32
    13   1    -0.23  -0.09  -0.48    -0.01   0.01   0.00    -0.15   0.12   0.04
    14   8     0.02   0.00   0.06    -0.04   0.05  -0.09     0.00   0.00   0.00
    15   1     0.01   0.03   0.06    -0.06   0.14  -0.24     0.01  -0.01   0.06
                     19                     20                     21
                      A                      A                      A
 Frequencies --    949.3125               963.4624              1100.0347
 Red. masses --      2.2512                 1.1632                 3.6694
 Frc consts  --      1.1953                 0.6362                 2.6161
 IR Inten    --     14.0604                64.1675                49.6845
  Atom  AN      X      Y      Z        X      Y      Z        X      Y      Z
     1   6     0.02  -0.04  -0.03     0.01   0.01   0.01     0.02  -0.04  -0.03
     2   1     0.00  -0.05  -0.03    -0.03   0.00   0.01     0.00  -0.06  -0.03
     3   6     0.00  -0.03   0.00    -0.08  -0.02  -0.01     0.02  -0.01   0.01
     4   6    -0.04   0.09   0.02     0.00   0.00   0.01    -0.13   0.13   0.06
     5   8     0.07   0.03  -0.04    -0.00   0.00   0.00     0.06   0.00  -0.03
     6   8    -0.09  -0.11   0.01     0.02  -0.01  -0.01    -0.09  -0.18   0.02
     7   6    -0.07  -0.02  -0.10     0.01   0.00   0.00     0.23   0.14   0.16
     8   6     0.14   0.14   0.08    -0.01  -0.00  -0.01    -0.10   0.04  -0.18
     9   1    -0.21  -0.16  -0.13     0.00  -0.00   0.01     0.16   0.14   0.32
    10   1    -0.22  -0.11  -0.18     0.03   0.03   0.01     0.27   0.31   0.14
    11   1    -0.15  -0.11   0.05    -0.00  -0.00  -0.03    -0.32  -0.22  -0.41
    12   1    -0.04  -0.18   0.07     0.02   0.01   0.01    -0.18  -0.20  -0.18
    13   1     0.39   0.12   0.67    -0.01  -0.02  -0.04     0.08  -0.03   0.03
    14   8     0.01   0.00   0.00     0.03   0.02  -0.06    -0.00  -0.00   0.01
    15   1     0.01  -0.02   0.11     0.10  -0.19   0.97    -0.01   0.01  -0.05
                     22                     23                     24
                      A                      A                      A
 Frequencies --   1128.3069              1181.4337              1266.0325
 Red. masses --      2.3706                 1.9225                 2.7057
 Frc consts  --      1.7781                 1.5810                 2.5552
 IR Inten    --     40.7117                53.0805               328.1734
  Atom  AN      X      Y      Z        X      Y      Z        X      Y      Z
     1   6    -0.01   0.02   0.02    -0.01   0.02   0.01    -0.01   0.04   0.03
     2   1    -0.00   0.03   0.02     0.01   0.02   0.01     0.01   0.05   0.03
     3   6    -0.01   0.01  -0.00    -0.01  -0.00  -0.00    -0.02  -0.00  -0.01
     4   6     0.07  -0.08  -0.04     0.08  -0.04  -0.04     0.21  -0.13  -0.10
     5   8    -0.03   0.00   0.02     0.02   0.03  -0.01     0.01   0.05  -0.01
     6   8     0.04   0.11  -0.06    -0.06  -0.09   0.03    -0.17  -0.01   0.07
     7   6    -0.04  -0.13   0.20    -0.08   0.17   0.06     0.13   0.02  -0.02
     8   6     0.03   0.09  -0.14     0.08  -0.08  -0.05    -0.09   0.06   0.05
     9   1    -0.02  -0.17   0.08     0.17   0.22  -0.34     0.10   0.14   0.34
    10   1    -0.11  -0.23   0.18    -0.03  -0.45   0.32    -0.44  -0.39  -0.30
    11   1    -0.37  -0.23  -0.12     0.10   0.09   0.35    -0.06  -0.07  -0.38
    12   1    -0.31  -0.35  -0.24    -0.29   0.05  -0.36     0.15  -0.00   0.23
    13   1     0.23   0.10   0.45    -0.20   0.16   0.05     0.12  -0.14  -0.12
    14   8     0.00   0.00  -0.00    -0.00   0.00  -0.00    -0.00   0.00  -0.01
    15   1     0.00  -0.00   0.01     0.00  -0.00   0.02     0.00  -0.00   0.01
                     25                     26                     27
                      A                      A                      A
 Frequencies --   1354.6824              1404.9064              1432.3349
 Red. masses --      1.3075                 1.2723                 1.3722
 Frc consts  --      1.4137                 1.4796                 1.6586
 IR Inten    --    113.0018                28.0679                16.6778
  Atom  AN      X      Y      Z        X      Y      Z        X      Y      Z
     1   6     0.00  -0.01  -0.01    -0.00   0.01   0.01    -0.00   0.01   0.01
     2   1    -0.00  -0.01  -0.01    -0.00   0.01   0.01    -0.00   0.01   0.01
     3   6    -0.00   0.00   0.01    -0.00  -0.00  -0.00    -0.00  -0.00  -0.00
     4   6    -0.07   0.04   0.03     0.04  -0.03  -0.02     0.04  -0.03  -0.01
     5   8    -0.00  -0.01   0.00     0.00   0.01  -0.00     0.00   0.01  -0.00
     6   8     0.09  -0.03  -0.04    -0.04  -0.00   0.03    -0.03  -0.01   0.03
     7   6    -0.05  -0.02  -0.00    -0.03  -0.03  -0.03    -0.08  -0.06  -0.08
     8   6    -0.04   0.03   0.00    -0.06  -0.02  -0.11     0.07   0.06   0.05
     9   1     0.54   0.56   0.14     0.14   0.20   0.18     0.29   0.39   0.25
    10   1    -0.32  -0.45  -0.06     0.34   0.22   0.17     0.45   0.29   0.20
    11   1    -0.04   0.00  -0.05     0.16   0.30   0.34    -0.24  -0.25  -0.10
    12   1     0.13  -0.01   0.15     0.37   0.04   0.20    -0.24  -0.21  -0.09
    13   1     0.06  -0.02   0.05     0.23  -0.03   0.48    -0.10   0.07  -0.30
    14   8    -0.00  -0.00   0.00    -0.00   0.00  -0.00    -0.00   0.00  -0.00
    15   1    -0.00  -0.00  -0.01     0.00  -0.00  -0.00    -0.00  -0.00  -0.00
                     28                     29                     30
                      A                      A                      A
 Frequencies --   1492.3241              1501.7676              1539.3306
 Red. masses --      1.0401                 1.0473                 1.0941
 Frc consts  --      1.3647                 1.3916                 1.5275
 IR Inten    --      4.7651                 1.6508                 9.5934
  Atom  AN      X      Y      Z        X      Y      Z        X      Y      Z
     1   6     0.00  -0.00  -0.00    -0.00   0.00   0.00     0.00  -0.01  -0.00
     2   1    -0.00  -0.00  -0.00    -0.00  -0.00   0.00     0.00  -0.01  -0.01
     3   6     0.00   0.00   0.00    -0.00  -0.00   0.00     0.00   0.01   0.00
     4   6    -0.00   0.00   0.00     0.00  -0.00  -0.00    -0.02   0.02   0.01
     5   8     0.00   0.00  -0.00    -0.00  -0.00  -0.00    -0.00  -0.01   0.00
     6   8     0.01  -0.00  -0.00    -0.00  -0.00   0.00     0.02   0.01  -0.02
     7   6    -0.02   0.01   0.01     0.02   0.02   0.02     0.01   0.04  -0.06
     8   6    -0.03   0.03   0.02     0.01   0.03  -0.04     0.00   0.00  -0.00
     9   1    -0.00   0.01  -0.04     0.02  -0.05  -0.18    -0.44  -0.10   0.56
    10   1     0.02  -0.01   0.05    -0.13   0.06  -0.12     0.22  -0.54   0.31
    11   1     0.38   0.32  -0.02    -0.31  -0.01   0.55    -0.06   0.00   0.12
    12   1    -0.34  -0.36  -0.10     0.19  -0.54   0.31     0.04  -0.11   0.06
    13   1     0.50  -0.43  -0.21    -0.07  -0.02  -0.32    -0.03  -0.00  -0.09
    14   8     0.00  -0.00   0.00    -0.00   0.00  -0.00     0.00  -0.00   0.00
    15   1    -0.00  -0.00   0.00     0.00   0.00   0.00     0.00   0.00  -0.00
                     31                     32                     33
                      A                      A                      A
 Frequencies --   1869.5173              1922.3978              3069.4069
 Red. masses --     12.1376                 7.1261                 1.0355
 Frc consts  --     24.9944                15.5162                 5.7482
 IR Inten    --    490.9390                48.4321                 8.1357
  Atom  AN      X      Y      Z        X      Y      Z        X      Y      Z
     1   6     0.05  -0.13  -0.09     0.13  -0.32  -0.23     0.00  -0.00  -0.00
     2   1     0.10  -0.18  -0.15     0.20  -0.51  -0.38    -0.00   0.00   0.00
     3   6    -0.09   0.16   0.09    -0.21   0.48   0.23     0.00   0.00   0.00
     4   6     0.43   0.59  -0.21    -0.02  -0.20   0.03     0.00  -0.00  -0.00
     5   8    -0.26  -0.43   0.13     0.05   0.08  -0.02    -0.00  -0.00   0.00
     6   8    -0.03  -0.03   0.02     0.00   0.00  -0.00    -0.00   0.00   0.00
     7   6    -0.03  -0.01   0.01     0.01   0.00  -0.00     0.00  -0.00   0.00
     8   6     0.00   0.01  -0.00    -0.00  -0.00   0.00    -0.02  -0.02  -0.04
     9   1     0.09   0.07  -0.03     0.01   0.00  -0.01    -0.01   0.01  -0.01
    10   1    -0.02   0.05   0.02     0.01   0.01  -0.01     0.01  -0.01  -0.02
    11   1    -0.00  -0.00  -0.01    -0.00  -0.00  -0.00     0.31  -0.40   0.14
    12   1    -0.01   0.00  -0.01     0.01   0.00   0.00    -0.37   0.16   0.47
    13   1     0.02   0.00   0.03    -0.00   0.00  -0.00     0.33   0.45  -0.15
    14   8     0.01  -0.01   0.02     0.01  -0.01   0.04    -0.00   0.00  -0.00
    15   1    -0.00   0.02   0.01     0.01  -0.02   0.02     0.00  -0.00   0.00
                     34                     35                     36
                      A                      A                      A
 Frequencies --   3115.3550              3141.9982              3151.7516
 Red. masses --      1.0611                 1.1024                 1.1022
 Frc consts  --      6.0674                 6.4122                 6.4507
 IR Inten    --      8.4251                10.6938                11.3915
  Atom  AN      X      Y      Z        X      Y      Z        X      Y      Z
     1   6     0.00   0.00  -0.00     0.00  -0.00   0.00    -0.00  -0.00  -0.00
     2   1     0.00   0.00  -0.00     0.00  -0.00  -0.00    -0.00   0.00   0.00
     3   6     0.00   0.00  -0.00     0.00   0.00   0.00     0.00  -0.00  -0.00
     4   6     0.00   0.00  -0.00    -0.00  -0.00  -0.00     0.00   0.00  -0.00
     5   8    -0.00  -0.00   0.00     0.00   0.00  -0.00    -0.00  -0.00   0.00
     6   8    -0.00  -0.00   0.00    -0.00  -0.00   0.00    -0.00   0.00  -0.00
     7   6     0.01  -0.03   0.06    -0.02   0.02   0.00    -0.02   0.01   0.02
     8   6     0.01   0.01  -0.01     0.07  -0.01  -0.05     0.00  -0.08   0.03
     9   1    -0.46   0.52  -0.20     0.21  -0.25   0.10     0.06  -0.08   0.03
    10   1     0.39  -0.18  -0.50     0.09  -0.04  -0.12     0.20  -0.09  -0.26
    11   1     0.02  -0.02   0.00    -0.19   0.27  -0.11    -0.41   0.50  -0.18
    12   1    -0.05   0.03   0.07    -0.42   0.19   0.56     0.02  -0.03  -0.03
    13   1    -0.10  -0.14   0.05    -0.25  -0.37   0.10     0.37   0.50  -0.15
    14   8     0.00   0.00  -0.00    -0.00  -0.00  -0.00    -0.00   0.00   0.00
    15   1    -0.00  -0.00   0.00     0.00   0.00  -0.00     0.00   0.00  -0.00
                     37                     38                     39
                      A                      A                      A
 Frequencies --   3171.0199              3453.1890              3841.8012
 Red. masses --      1.1082                 1.1305                 1.0678
 Frc consts  --      6.5658                 7.9424                 9.2852
 IR Inten    --     13.7488                77.1658                68.9868
  Atom  AN      X      Y      Z        X      Y      Z        X      Y      Z
     1   6     0.00   0.00   0.00     0.03  -0.08  -0.05     0.00  -0.00  -0.00
     2   1     0.00  -0.00  -0.00    -0.34   0.82   0.45    -0.00   0.00   0.00
     3   6    -0.00   0.00   0.00    -0.01   0.02   0.01     0.00   0.00   0.00
     4   6    -0.00  -0.00  -0.00     0.00  -0.00   0.00    -0.00   0.00   0.00
     5   8    -0.00   0.00  -0.00    -0.00  -0.00   0.00    -0.00  -0.00  -0.00
     6   8     0.00   0.00   0.00    -0.00  -0.00  -0.00     0.00  -0.00  -0.00
     7   6     0.06  -0.05  -0.03     0.00   0.00  -0.00     0.00  -0.00   0.00
     8   6     0.03  -0.03  -0.01     0.00  -0.00  -0.00    -0.00   0.00   0.00
     9   1    -0.37   0.42  -0.18    -0.00   0.00  -0.00    -0.00   0.00  -0.00
    10   1    -0.37   0.17   0.50    -0.00   0.00   0.00     0.00   0.00  -0.00
    11   1    -0.23   0.29  -0.11    -0.00   0.00  -0.00     0.00  -0.00  -0.00
    12   1    -0.16   0.07   0.22    -0.00   0.00   0.00     0.00  -0.00  -0.00
    13   1     0.04   0.04  -0.02    -0.00  -0.00   0.00     0.00   0.00  -0.00
    14   8     0.00   0.00  -0.00     0.00  -0.00   0.00    -0.06  -0.01   0.00
    15   1    -0.00  -0.00   0.00    -0.00  -0.00  -0.00     0.99   0.15  -0.03

 -------------------
 - Thermochemistry -
 -------------------
 Temperature   298.150 Kelvin.  Pressure   1.00000 Atm.
 Atom     1 has atomic number  6 and mass  12.00000
 Atom     2 has atomic number  1 and mass   1.00783
 Atom     3 has atomic number  6 and mass  12.00000
 Atom     4 has atomic number  6 and mass  12.00000
 Atom     5 has atomic number  8 and mass  15.99491
 Atom     6 has atomic number  8 and mass  15.99491
 Atom     7 has atomic number  6 and mass  12.00000
 Atom     8 has atomic number  6 and mass  12.00000
 Atom     9 has atomic number  1 and mass   1.00783
 Atom    10 has atomic number  1 and mass   1.00783
 Atom    11 has atomic number  1 and mass   1.00783
 Atom    12 has atomic number  1 and mass   1.00783
 Atom    13 has atomic number  1 and mass   1.00783
 Atom    14 has atomic number  8 and mass  15.99491
 Atom    15 has atomic number  1 and mass   1.00783
 Molecular mass:   115.03952 amu.
 Principal axes and moments of inertia in atomic units:
                           1         2         3
     Eigenvalues --   735.106371058.326091278.14116
           X            0.99987   0.00894   0.01311
           Y           -0.00963   0.99850   0.05385
           Z           -0.01261  -0.05397   0.99846
 This molecule is an asymmetric top.
 Rotational symmetry number  1.
 Warning -- assumption of classical behavior for rotation
           may cause significant error
 Rotational temperatures (Kelvin)      0.11783     0.08184     0.06777
 Rotational constants (GHZ):           2.45507     1.70528     1.41200
    1 imaginary frequencies ignored.
 Zero-point vibrational energy     292817.4 (Joules/Mol)
                                   69.98504 (Kcal/Mol)
 Warning -- explicit consideration of  12 degrees of freedom as
           vibrations may cause significant error
 Vibrational temperatures:    125.02   144.84   176.39   256.05   296.93
          (Kelvin)            316.15   349.85   413.17   552.46   595.35
                              638.41   810.02   910.58  1026.28  1077.39
                             1084.28  1161.41  1365.85  1386.21  1582.70
                             1623.38  1699.82  1821.54  1949.09  2021.35
                             2060.81  2147.12  2160.71  2214.75  2689.82
                             2765.90  4416.19  4482.30  4520.63  4534.67
                             4562.39  4968.37  5527.50
 
 Zero-point correction=                           0.111528 (Hartree/Particle)
 Thermal correction to Energy=                    0.120946
 Thermal correction to Enthalpy=                  0.121891
 Thermal correction to Gibbs Free Energy=         0.076774
 Sum of electronic and zero-point Energies=           -419.3518821
 Sum of electronic and thermal Energies=              -420.081636
 Sum of electronic and thermal Enthalpies=            -420.080692
 Sum of electronic and thermal Free Energies=         -420.125809
 
                     E (Thermal)             CV                S
                      KCal/Mol        Cal/Mol-Kelvin    Cal/Mol-Kelvin
 Total                   75.895             32.437             94.957
 Electronic               0.000              0.000              1.377
 Translational            0.889              2.981             40.136
 Rotational               0.889              2.981             28.388
 Vibrational             74.118             26.475             25.056
 Vibration     1          0.601              1.958              3.729
 Vibration     2          0.604              1.949              3.441
 Vibration     3          0.610              1.930              3.059
 Vibration     4          0.628              1.869              2.350
 Vibration     5          0.641              1.831              2.076
 Vibration     6          0.647              1.811              1.961
 Vibration     7          0.659              1.774              1.780
 Vibration     8          0.684              1.698              1.491
 Vibration     9          0.753              1.504              1.023
 Vibration    10          0.777              1.440              0.913
 Vibration    11          0.803              1.375              0.815
 Vibration    12          0.919              1.111              0.518
                       Q            Log10(Q)             Ln(Q)
 Total Bot       0.486038D-35        -35.313329        -81.311946
 Total V=0       0.968418D+16         15.986063         36.809270
 Vib (Bot)       0.140377D-48        -48.852704       -112.487507
 Vib (Bot)    1  0.236747D+01          0.374284          0.861820
 Vib (Bot)    2  0.203834D+01          0.309276          0.712133
 Vib (Bot)    3  0.166586D+01          0.221638          0.510340
 Vib (Bot)    4  0.112941D+01          0.052850          0.121692
 Vib (Bot)    5  0.963796D+00         -0.016015         -0.036875
 Vib (Bot)    6  0.900276D+00         -0.045624         -0.105054
 Vib (Bot)    7  0.805222D+00         -0.094084         -0.216637
 Vib (Bot)    8  0.666949D+00         -0.175908         -0.405042
 Vib (Bot)    9  0.469562D+00         -0.328307         -0.755956
 Vib (Bot)   10  0.426349D+00         -0.370235         -0.852497
 Vib (Bot)   11  0.388445D+00         -0.410670         -0.945603
 Vib (Bot)   12  0.275258D+00         -0.560260         -1.290047
 Vib (V=0)       0.279697D+03          2.446689          5.633709
 Vib (V=0)    1  0.291969D+01          0.465337          1.071477
 Vib (V=0)    2  0.259876D+01          0.414767          0.955036
 Vib (V=0)    3  0.223928D+01          0.350108          0.806153
 Vib (V=0)    4  0.173514D+01          0.239333          0.551085
 Vib (V=0)    5  0.158577D+01          0.200241          0.461072
 Vib (V=0)    6  0.152980D+01          0.184636          0.425140
 Vib (V=0)    7  0.144783D+01          0.160718          0.370066
 Vib (V=0)    8  0.133356D+01          0.125012          0.287851
 Vib (V=0)    9  0.118592D+01          0.074056          0.170520
 Vib (V=0)   10  0.115709D+01          0.063369          0.145912
 Vib (V=0)   11  0.113316D+01          0.054291          0.125009
 Vib (V=0)   12  0.107076D+01          0.029692          0.068369
 Electronic      0.200000D+01          0.301030          0.693147
 Translational   0.484981D+08          7.685724         17.697035
 Rotational      0.356960D+06          5.552620         12.785380
 ***** Axes restored to original set *****
 -------------------------------------------------------------------
 Center     Atomic                   Forces (Hartrees/Bohr)
 Number     Number              X              Y              Z
 -------------------------------------------------------------------
      1        6          -0.002347994    0.003885599   -0.003827688
      2        1          -0.000035771    0.000012684    0.000092797
      3        6           0.011982321   -0.009086779    0.036084450
      4        6           0.000738023   -0.001115333    0.000839130
      5        8          -0.000438232   -0.001536709   -0.001883402
      6        8          -0.000680127    0.000278023   -0.001001999
      7        6          -0.000343789    0.000172901    0.000414272
      8        6           0.000130369   -0.000147722    0.000047218
      9        1          -0.000134260    0.000114241    0.000095320
     10        1          -0.000054511    0.000037915   -0.000114364
     11        1           0.000008154   -0.000059942   -0.000037063
     12        1           0.000032228    0.000042998    0.000065647
     13        1           0.000024773    0.000052128   -0.000084916
     14        8          -0.008382354    0.007204474   -0.030211989
     15        1          -0.000498831    0.000145523   -0.000477413
 -------------------------------------------------------------------
 Cartesian Forces:  Max     0.036084450 RMS     0.007615065

 GradGradGradGradGradGradGradGradGradGradGradGradGradGradGradGradGradGrad
 Berny optimization.
 Search for a local minimum.
 Step number   1 out of a maximum of    2
 All quantities printed in internal units (Hartrees-Bohrs-Radians)
 Second derivative matrix not updated -- analytic derivatives used.
 ITU=  0
     Eigenvalues ---   -0.21102   0.00095   0.00145   0.00197   0.00258
     Eigenvalues ---    0.00352   0.00691   0.00846   0.02063   0.02519
     Eigenvalues ---    0.02894   0.03258   0.04417   0.05854   0.06152
     Eigenvalues ---    0.06581   0.07934   0.08791   0.09542   0.11478
     Eigenvalues ---    0.11749   0.14105   0.16946   0.17835   0.23506
     Eigenvalues ---    0.24507   0.27323   0.35075   0.51384   0.61556
     Eigenvalues ---    0.69441   0.77227   0.78235   0.86654   0.87809
     Eigenvalues ---    0.94849   1.02224   1.79039   2.02694
 Eigenvalue     1 is  -2.11D-01 should be greater than     0.000000 Eigenvector:
                          Z3        Z14       X3        Y3        Y14
   1                    0.74313  -0.54088   0.24796  -0.17788   0.13572
                          X14       Z1        Y1        X15       X1
   1                   -0.11872  -0.09684   0.07509  -0.07461  -0.05556
 Quadratic step=3.560D-01 exceeds max=3.000D-01 adjusted using Lamda=-1.123D-03.
 Angle between NR and scaled steps=  14.46 degrees.
 Angle between quadratic step and forces=  35.50 degrees.
 Linear search not attempted -- first point.
 B after Tr=    -0.000192    0.002362   -0.001556
         Rot=    0.999998    0.001810    0.000370   -0.000164 Ang=   0.21 deg.
 Variable       Old X    -DE/DX   Delta X   Delta X   Delta X     New X
                                 (Linear)    (Quad)   (Total)
    X1        2.43909  -0.00235   0.00000   0.00559   0.00788   2.44697
    Y1       -2.67797   0.00389   0.00000   0.00660   0.00188  -2.67609
    Z1       -2.18577  -0.00383   0.00000   0.00246   0.01240  -2.17337
    X2        3.12533  -0.00004   0.00000  -0.02443  -0.02084   3.10449
    Y2       -4.33146   0.00001   0.00000   0.05750   0.04921  -4.28225
    Z2       -3.11097   0.00009   0.00000  -0.12083  -0.10460  -3.21557
    X3        1.76461   0.01198   0.00000   0.05973   0.06028   1.82489
    Y3       -0.93882  -0.00909   0.00000  -0.04721  -0.04632  -0.98515
    Z3       -0.75735   0.03608   0.00000   0.18376   0.18713  -0.57022
    X4        0.67336   0.00074   0.00000   0.00440   0.00396   0.67732
    Y4        1.64681  -0.00112   0.00000  -0.00797  -0.00675   1.64005
    Z4       -0.37754   0.00084   0.00000   0.00150  -0.00549  -0.38303
    X5        1.82988  -0.00044   0.00000   0.00254   0.00193   1.83181
    Y5        3.49693  -0.00154   0.00000  -0.01309  -0.01364   3.48329
    Z5       -0.94694  -0.00188   0.00000  -0.01666  -0.02947  -0.97641
    X6       -1.56982  -0.00068   0.00000  -0.00477  -0.00608  -1.57590
    Y6        1.74868   0.00028   0.00000   0.00722   0.01169   1.76037
    Z6        0.73833  -0.00100   0.00000  -0.01137  -0.02045   0.71788
    X7       -2.97933  -0.00034   0.00000   0.00106   0.00008  -2.97924
    Y7       -0.51951   0.00017   0.00000   0.00699   0.01301  -0.50650
    Z7        1.27492   0.00041   0.00000   0.00469   0.00278   1.27770
    X8       -4.57665   0.00013   0.00000   0.00644   0.00739  -4.56926
    Y8       -1.26744  -0.00015   0.00000  -0.00850  -0.01116  -1.27861
    Z8       -0.98160   0.00005   0.00000   0.00659   0.00628  -0.97532
    X9       -1.69370  -0.00013   0.00000   0.00641   0.00548  -1.68822
    Y9       -2.01605   0.00011   0.00000   0.01357   0.02220  -1.99385
    Z9        1.86876   0.00010   0.00000   0.01092   0.01535   1.88411
   X10       -4.15261  -0.00005   0.00000  -0.00031  -0.00264  -4.15526
   Y10       -0.00400   0.00004   0.00000   0.01085   0.02230   0.01830
   Z10        2.88456  -0.00011   0.00000   0.00139  -0.00328   2.88128
   X11       -5.81159   0.00001   0.00000  -0.00028   0.00058  -5.81101
   Y11        0.28724  -0.00006   0.00000  -0.01600  -0.02111   0.26614
   Z11       -1.53522  -0.00004   0.00000   0.00059  -0.00623  -1.54145
   X12       -3.39177   0.00003   0.00000   0.00997   0.01228  -3.37949
   Y12       -1.77752   0.00004   0.00000  -0.00722  -0.01531  -1.79283
   Z12       -2.59254   0.00007   0.00000   0.00849   0.01092  -2.58162
   X13       -5.74413   0.00002   0.00000   0.01348   0.01460  -5.72953
   Y13       -2.89872   0.00005   0.00000  -0.01209  -0.01336  -2.91208
   Z13       -0.49828  -0.00008   0.00000   0.00953   0.01428  -0.48400
   X14        2.58637  -0.00838   0.00000  -0.05784  -0.05929   2.52708
   Y14       -1.66354   0.00720   0.00000   0.06014   0.07199  -1.59155
   Z14        2.51343  -0.03021   0.00000  -0.12340  -0.11730   2.39613
   X15        4.39093  -0.00050   0.00000  -0.02405  -0.02560   4.36533
   Y15       -1.37627   0.00015   0.00000  -0.07742  -0.06463  -1.44090
   Z15        2.45057  -0.00048   0.00000   0.03076   0.03768   2.48825
         Item               Value     Threshold  Converged?
 Maximum Force            0.036084     0.000450     NO 
 RMS     Force            0.007615     0.000300     NO 
 Maximum Displacement     0.187129     0.001800     NO 
 RMS     Displacement     0.044351     0.001200     NO 
 Predicted change in Energy=-1.837210D-02
 GradGradGradGradGradGradGradGradGradGradGradGradGradGradGradGradGradGrad


 ----------------------------------------------------------------------

 Electric dipole moment (input orientation):
 (Debye = 10**-18 statcoulomb cm , SI units = C m)
                  (au)            (Debye)         (10**-30 SI)
   Tot        0.171362D+01      0.435560D+01      0.145287D+02
   x         -0.272801D+00     -0.693390D+00     -0.231290D+01
   y         -0.162104D+01     -0.412027D+01     -0.137437D+02
   z         -0.484067D+00     -0.123038D+01     -0.410409D+01

 Dipole polarizability, Alpha (input orientation).
 (esu units = cm**3 , SI units = C**2 m**2 J**-1)
 Alpha(0;0):
               (au)            (10**-24 esu)      (10**-40 SI)
   iso        0.725434D+02      0.107498D+02      0.119608D+02
   aniso      0.876372D+01      0.129865D+01      0.144494D+01
   xx         0.720494D+02      0.106766D+02      0.118793D+02
   yx        -0.311793D-02     -0.462029D-03     -0.514077D-03
   yy         0.713037D+02      0.105661D+02      0.117564D+02
   zx        -0.246380D+01     -0.365097D+00     -0.406225D+00
   zy         0.413971D+01      0.613441D+00      0.682545D+00
   zz         0.742772D+02      0.110067D+02      0.122467D+02

 ----------------------------------------------------------------------

 Dipole orientation:
     6          3.05331365         -0.97187594          2.76242832
     1          4.06744225         -1.26675245          4.47868697
     6          1.96054192         -0.22547347          0.82111901
     6          0.52678654         -0.77581248         -1.55837903
     8          1.53384637         -1.73782571         -3.33181255
     8         -1.86167839         -0.01441851         -1.61285645
     6         -3.06241362          1.01321457          0.60559205
     6         -4.18111431         -1.08290029          2.20483139
     1         -1.72099783          2.17824433          1.64886734
     1         -4.52928938          2.24230481         -0.14997344
     1         -5.48607577         -2.22150612          1.08712249
     1         -2.70330162         -2.31349598          2.95378100
     1         -5.21091648         -0.26974255          3.79729331
     8          2.33047281          3.18412521          0.45192871
     1          4.07565222          3.24973610         -0.08934638

 Electric dipole moment (dipole orientation):
 (Debye = 10**-18 statcoulomb cm , SI units = C m)
                  (au)            (Debye)         (10**-30 SI)
   Tot        0.171362D+01      0.435560D+01      0.145287D+02
   x          0.000000D+00      0.000000D+00      0.000000D+00
   y          0.000000D+00      0.000000D+00      0.000000D+00
   z          0.171362D+01      0.435560D+01      0.145287D+02

 Dipole polarizability, Alpha (dipole orientation).
 (esu units = cm**3 , SI units = C**2 m**2 J**-1)
 Alpha(0;0):
               (au)            (10**-24 esu)      (10**-40 SI)
   iso        0.725434D+02      0.107498D+02      0.119608D+02
   aniso      0.876372D+01      0.129865D+01      0.144494D+01
   xx         0.730200D+02      0.108204D+02      0.120394D+02
   yx        -0.286021D+01     -0.423839D+00     -0.471585D+00
   yy         0.710605D+02      0.105301D+02      0.117163D+02
   zx         0.140070D+01      0.207562D+00      0.230944D+00
   zy        -0.370658D+01     -0.549258D+00     -0.611132D+00
   zz         0.735498D+02      0.108990D+02      0.121267D+02

 ----------------------------------------------------------------------
 1\1\GINC-BOSON\Freq\UM062X\6-311++G(d,p)\C5H7O3(2)\LOKI\28-Mar-2025\0\
 \# freq 6-311++g(d,p) m062x\\Title Card Required\\0,2\C,1.290711,-1.41
 7119,-1.156662\H,1.653855,-2.292108,-1.646257\C,0.933789,-0.496803,-0.
 400773\C,0.356329,0.871453,-0.199788\O,0.968332,1.850497,-0.501098\O,-
 0.830715,0.925361,0.390709\C,-1.576593,-0.274912,0.674661\C,-2.421858,
 -0.670703,-0.519442\H,-0.896269,-1.066849,0.988903\H,-2.197467,-0.0021
 18,1.526444\H,-3.07536,0.152003,-0.812401\H,-1.794847,-0.940624,-1.371
 911\H,-3.039662,-1.533934,-0.263679\O,1.368647,-0.880309,1.330049\H,2.
 323582,-0.72829,1.296786\\Version=ES64L-G16RevA.03\State=2-A\HF=-420.2
 025827\S2=0.785219\S2-1=0.\S2A=0.750585\RMSD=4.351e-09\RMSF=7.615e-03\
 ZeroPoint=0.1115283\Thermal=0.1209465\Dipole=-0.2728007,-1.6210383,-0.
 4840671\DipoleDeriv=-0.1927103,0.0684013,-0.0469542,0.1055753,-0.26504
 25,0.1368633,0.0644053,-0.090418,-0.0027114,0.22891,0.0016635,-0.01980
 27,-0.0111151,0.2422495,0.0238615,-0.0305035,0.0524574,0.2507042,-0.08
 46474,0.0313409,0.1136104,0.0640188,-0.1239213,-0.1577549,-0.0394973,0
 .0753001,-0.1839813,2.0747747,0.3246966,-0.5707387,-0.0485224,1.681287
 3,-0.1597442,-0.7803871,-0.257547,0.6115585,-0.8548376,-0.2930525,0.18
 38755,-0.3299022,-1.2304569,0.2008924,0.2279949,0.1691908,-0.4164957,-
 1.5777452,-0.4227619,0.3393683,-0.1623356,-0.6699516,0.0176083,0.56608
 79,0.1875176,-0.4900314,0.6459969,0.2481456,-0.0260221,0.4434991,0.512
 8839,-0.0269355,-0.0369836,-0.0290188,0.3310962,-0.0325807,-0.0420085,
 -0.034208,-0.0774679,0.0253427,-0.0112323,-0.0738541,-0.0579713,-0.069
 3628,-0.0004886,0.0298123,-0.0485732,-0.0297049,-0.0291631,0.0106094,-
 0.0205596,0.0079659,0.0374828,-0.0248839,-0.0181433,0.0627253,0.003178
 6,0.0372133,-0.0643188,0.0609954,-0.0199165,-0.0371689,0.0124625,0.051
 7398,-0.0417931,0.0988074,-0.0210269,0.040115,-0.035663,0.0035266,0.05
 21894,-0.0003304,0.0263383,0.0953136,0.0215062,0.0577431,-0.0284307,0.
 0530526,-0.0368279,-0.0400688,0.002468,-0.0773714,0.0075425,-0.10409,-
 0.0321777,0.0308593,0.0125447,0.0440202,0.0587471,-0.40455,0.0932201,-
 0.175465,0.0593187,-0.4632273,-0.0262639,-0.0300184,-0.0659077,-0.3416
 187,0.2081621,-0.0220209,0.1611215,-0.0327659,0.2782474,0.0138712,0.06
 2386,0.0176285,0.2396609\Polar=72.049388,-0.0031179,71.3037052,-2.4637
 966,4.1397068,74.2771795\Quadrupole=4.9286286,-4.2571523,-0.6714763,-3
 .0726641,-1.0211227,3.9413196\PG=C01 [X(C5H7O3)]\NImag=1\\0.16937250,-
 0.29259854,0.78090648,-0.20398746,0.50338620,0.38224491,-0.06911971,0.
 10991313,0.06963299,0.06001419,0.10785707,-0.28867190,-0.16085502,-0.1
 0860685,0.27902272,0.06203028,-0.14607358,-0.09144754,-0.06450950,0.15
 362992,0.09298255,-0.11123293,0.19937109,0.16028755,0.00427153,-0.0016
 1670,0.00207941,0.24940925,0.18796796,-0.50925086,-0.35966112,-0.00228
 738,0.00876521,-0.00686201,-0.26522011,0.76479549,0.12138570,-0.283021
 79,-0.18777418,-0.00503937,0.00830714,-0.00672976,-0.20705790,0.358046
 38,0.07851388,0.00489728,-0.00966315,-0.00999646,0.00569210,0.00309841
 ,0.00037080,-0.09674859,0.06534157,0.02270471,0.62368653,-0.00206099,0
 .00441969,0.00690386,0.00147231,0.00056812,-0.00028620,0.04969652,-0.1
 5807224,-0.02768637,0.21770517,0.86885024,0.00778058,-0.02089262,-0.01
 284505,0.00012417,-0.00208204,0.00234583,0.01423815,-0.02093213,-0.037
 93004,-0.20367043,-0.11484289,0.31230586,-0.00033281,0.00339872,0.0018
 0720,-0.00080757,-0.00059602,-0.00025074,0.01667419,-0.00768023,0.0000
 4458,-0.25479004,-0.28362766,0.08775478,0.30710808,0.00134735,-0.00127
 451,0.00071161,0.00115853,0.00112187,-0.00009939,-0.01691191,-0.069306
 30,0.00171889,-0.29049947,-0.59391172,0.14427967,0.34770680,0.65435845
 ,-0.00037017,0.00147131,0.00156436,-0.00040397,0.00019403,-0.00033099,
 0.00129542,0.00716365,0.01580389,0.08793880,0.13775786,-0.12052594,-0.
 13550453,-0.17338657,0.09933201,-0.00252100,0.00685933,0.00327849,0.00
 007416,-0.00009304,-0.00061722,-0.02377220,0.01272089,0.01910949,-0.25
 611662,0.04604944,0.09851294,-0.06874733,-0.04904296,0.04278183,0.4766
 6899,0.00080258,-0.00171711,0.00049181,-0.00105667,-0.00057725,0.00008
 480,0.03239122,-0.01006302,-0.01716234,0.01698764,-0.11791961,-0.00808
 479,-0.06369922,0.00526822,0.03132674,0.09032312,0.35865305,-0.0003631
 0,-0.00025315,0.00132939,-0.00026802,0.00020922,-0.00018551,0.01763603
 ,-0.00508028,0.00208049,0.10456951,-0.02439316,-0.09994797,0.04083970,
 0.02387076,-0.00416669,-0.18958943,-0.03256427,0.15579687,-0.00003796,
 -0.00234493,-0.00075671,0.00003370,0.00007380,0.00026107,-0.00225562,0
 .00018327,0.00173015,-0.03448323,-0.02665172,0.01366168,0.00367198,0.0
 0361876,0.00038964,-0.09756500,-0.03095103,0.01656877,0.56247935,0.000
 20866,-0.00291906,-0.00111255,-0.00004532,-0.00001006,0.00011427,0.005
 68071,0.00186699,-0.00288008,-0.02696268,0.00819741,0.01442518,0.01229
 922,0.00712821,-0.00615791,-0.04831590,-0.18165831,0.01978832,-0.10551
 263,0.51141549,0.00067176,0.00130645,-0.00027389,0.00006266,0.00005408
 ,-0.00000253,0.00090470,-0.00157448,-0.00003091,0.01398955,0.01563199,
 -0.01874208,0.00233285,-0.00242119,0.00600886,0.01537751,0.01493006,-0
 .06466719,-0.03324990,0.00757381,0.56955231,-0.00003631,0.00003864,-0.
 00012316,-0.00006204,0.00002728,-0.00007900,-0.00081873,0.00022651,0.0
 0008008,0.00238382,-0.00128243,-0.00477435,-0.00088651,-0.00043387,0.0
 0158692,-0.02003389,-0.01833932,-0.01306275,-0.11791871,-0.00747172,-0
 .05535839,0.55267623,-0.00010983,0.00068265,0.00029010,-0.00005129,-0.
 00004533,0.00002180,-0.00044779,-0.00023524,0.00016994,0.00588133,-0.0
 0172046,-0.00546596,-0.00208754,-0.00120941,0.00232002,-0.03337837,-0.
 02058688,-0.01981502,-0.00442358,-0.08185529,-0.01830945,-0.01483000,0
 .58122535,-0.00003498,-0.00002396,-0.00002288,0.00014050,-0.00003827,0
 .00001580,-0.00029156,-0.00007412,-0.00115853,-0.00298087,0.00175908,0
 .00433553,0.00137788,0.00101447,-0.00161266,0.00955421,0.00174603,0.00
 968163,-0.06287672,-0.02742961,-0.17827243,-0.04041960,-0.02233143,0.5
 3162440,-0.00076290,-0.00011605,0.00009182,-0.00005835,-0.00004758,0.0
 0011266,-0.00258163,-0.00020332,0.00317372,0.00552625,-0.00266260,-0.0
 0140759,-0.00161239,0.00003477,0.00048195,0.00825612,-0.02310967,0.008
 88484,-0.16542218,0.13320861,-0.04853719,-0.00975821,0.01164016,-0.004
 13214,0.18060102,0.00034751,0.00044638,-0.00013698,0.00002347,0.000058
 27,-0.00000604,-0.00084414,0.00057435,0.00100325,0.00746799,-0.0007829
 7,-0.00278958,-0.00197331,-0.00032137,0.00047999,0.00468496,-0.0326774
 6,0.01167918,0.11906119,-0.18752418,0.05412323,-0.00692159,0.01120004,
 -0.00322560,-0.12872582,0.21234977,-0.00014931,0.00023677,0.00031733,0
 .00013205,-0.00000882,-0.00008501,0.00233540,0.00049756,-0.00232001,-0
 .00234499,0.00183001,0.00128630,0.00068361,-0.00019499,-0.00026627,-0.
 00079422,0.00700248,-0.00233754,-0.04548766,0.05298709,-0.07389247,-0.
 01762113,0.01835963,-0.00628363,0.04978509,-0.06042305,0.07599320,-0.0
 0027090,0.00010542,0.00017902,-0.00001381,-0.00004460,-0.00004631,0.00
 021735,0.00028200,-0.00027286,0.00213723,-0.00288595,0.00085829,-0.001
 59342,-0.00054874,0.00035426,-0.01861849,-0.00295183,0.01599872,-0.137
 47373,0.04414715,0.11927015,0.01310136,-0.00526831,-0.01751471,-0.0099
 5619,0.00569100,0.01583207,0.15341333,0.00015384,0.00032640,-0.0000812
 5,-0.00004060,0.00003058,0.00002161,-0.00034792,-0.00001333,0.00030494
 ,0.00258167,-0.00441863,0.00155273,-0.00291801,-0.00102182,0.00046923,
 -0.03135476,-0.00171840,0.02816568,0.05422705,-0.06915514,-0.06493649,
 0.00518395,-0.00134586,-0.00576388,0.01223165,-0.00361826,-0.01877688,
 -0.03801248,0.07949061,-0.00011045,-0.00014369,0.00003783,-0.00002584,
 0.00000081,-0.00000838,0.00011940,0.00029812,-0.00011313,-0.00276218,0
 .00068172,0.00065377,0.00073908,0.00033879,-0.00024374,0.00844772,0.00
 254150,-0.00363792,0.12137108,-0.05577455,-0.21623442,0.01360227,-0.00
 837901,-0.02040409,-0.00564751,0.00138422,0.00908390,-0.13234340,0.059
 97784,0.23216106,-0.00005253,-0.00019071,-0.00006729,0.00004701,-0.000
 01359,-0.00002137,0.00014016,0.00007135,-0.00029946,-0.00113795,0.0007
 4764,0.00038927,0.00023720,-0.00018922,-0.00003362,0.00201674,0.000323
 81,0.00129953,-0.01285818,0.01449786,-0.00614858,-0.14474073,0.1240158
 9,-0.04123022,-0.00060711,-0.00165288,-0.00291836,0.00077318,-0.000566
 71,0.00048063,0.15450419,0.00004872,-0.00000320,0.00002022,-0.00004570
 ,-0.00000234,0.00001389,0.00008868,-0.00002434,-0.00007660,-0.00064718
 ,-0.00012283,0.00044857,0.00021779,0.00021702,-0.00016041,0.00134746,0
 .00173107,-0.00002059,-0.00784571,0.00735409,-0.00325729,0.12578742,-0
 .20588970,0.05490874,-0.00169351,-0.00002695,-0.00176892,0.00036050,0.
 00045897,0.00076320,-0.13580643,0.21909638,0.00007463,-0.00001082,0.00
 005432,-0.00006337,-0.00000374,-0.00001875,0.00027891,-0.00000630,-0.0
 0000615,-0.00005330,-0.00029631,0.00009245,-0.00009934,0.00008747,-0.0
 0005231,0.00215734,0.00001245,0.00144139,-0.01790961,0.02372985,-0.009
 07353,-0.04109421,0.05237736,-0.06605398,-0.00247636,-0.00288080,-0.00
 348470,0.00067435,0.00046138,0.00084800,0.04883974,-0.05819004,0.07154
 452,-0.00035631,0.00005952,-0.00002316,-0.00001270,0.00007579,0.000040
 38,-0.00087732,0.00004334,-0.00078437,0.00024632,-0.00043381,0.0004043
 5,-0.00012221,0.00026722,-0.00012212,0.00193232,0.00160291,0.00110471,
 0.01240448,-0.00604750,-0.01743979,-0.13995982,0.03924900,0.12340793,0
 .00079473,0.00041829,0.00101096,-0.00203512,-0.00144966,-0.00367635,-0
 .01091859,0.00263739,0.01439709,0.14956304,0.00012592,-0.00028032,-0.0
 0008156,0.00011279,0.00004910,0.00000260,-0.00000573,0.00024282,0.0001
 6657,-0.00069759,0.00010997,-0.00043798,0.00005982,-0.00023346,0.00013
 334,0.00128784,0.00066093,0.00056995,0.00408305,-0.00370583,-0.0073949
 2,0.03975176,-0.06429372,-0.05099094,-0.00035225,0.00008215,0.00075862
 ,-0.00107439,0.00067567,-0.00133265,0.01340030,-0.00532080,-0.01999574
 ,-0.04217481,0.06440112,0.00022203,0.00000126,-0.00001922,-0.00010488,
 0.00000953,0.00005661,0.00006220,0.00019110,0.00053822,0.00072998,-0.0
 0154026,-0.00077074,-0.00054163,0.00006642,0.00019005,-0.00101641,0.00
 127340,0.00291306,0.01778069,-0.00577565,-0.02335426,0.12081069,-0.051
 47417,-0.20840007,0.00031881,0.00025686,0.00093437,-0.00411814,-0.0012
 1024,-0.00274012,-0.00571028,0.00181409,0.00781371,-0.13134471,0.05775
 536,0.22818020,-0.00011557,0.00018018,0.00004248,-0.00003273,-0.000055
 40,0.00000104,-0.00006997,-0.00007341,-0.00002858,0.00226643,-0.000085
 60,-0.00131418,-0.00064779,-0.00039092,0.00054243,-0.00369047,-0.00207
 739,-0.00298115,-0.00944880,-0.01261349,0.00817413,-0.13322511,-0.1214
 1423,0.03529304,0.00001996,0.00070657,0.00013236,0.00060898,0.00002309
 ,-0.00005731,0.01292298,0.01571396,-0.00436303,-0.01050001,-0.01448869
 ,0.00296528,0.14187910,-0.00001234,0.00007727,0.00004160,0.00000226,-0
 .00000811,-0.00001327,-0.00003956,0.00003003,0.00005474,0.00157204,-0.
 00018329,-0.00117086,-0.00043506,-0.00030857,0.00031559,-0.00266551,0.
 00056760,-0.00112454,-0.00241560,-0.00703526,0.00380803,-0.12177992,-0
 .21628996,0.05064582,-0.00018662,0.00016860,-0.00026593,0.00026233,0.0
 0006847,-0.00026532,-0.01451118,-0.01746259,0.00472775,0.00578239,0.00
 764435,-0.00152926,0.13447187,0.23265558,0.00002337,0.00005815,0.00004
 253,-0.00000154,0.00003145,0.00000087,0.00002176,0.00011302,0.00012996
 ,0.00187666,-0.00093230,-0.00236982,-0.00090938,-0.00056997,0.00093749
 ,-0.00720888,-0.00364391,-0.00264424,-0.01157218,-0.01955264,0.0094812
 7,0.03651550,0.05227352,-0.06365833,0.00014607,0.00090006,0.00074555,0
 .00121168,0.00004543,0.00062014,0.00537358,0.00547571,-0.00312532,0.01
 288939,0.02091341,-0.00518828,-0.03839502,-0.05520411,0.06509455,0.008
 43729,-0.01196958,-0.01764802,-0.00006789,0.00017126,0.00058013,-0.031
 58594,0.00730501,0.03440093,-0.00097949,0.00145463,-0.01231598,0.00158
 330,0.00467488,0.00114118,0.00056388,0.00007462,-0.00000578,-0.0010568
 8,-0.00172649,-0.00047218,-0.00059909,0.00081699,-0.00034394,-0.004161
 63,0.00106954,-0.00064887,-0.00029346,0.00022492,-0.00006275,-0.000292
 99,-0.00009151,-0.00023185,-0.00009953,0.00001872,0.00008574,-0.000021
 25,-0.00006438,0.00002805,0.54472967,-0.00386959,0.01713671,0.01047103
 ,-0.00039747,-0.00038228,-0.00020988,-0.00658830,-0.02759776,-0.039430
 17,0.00542563,-0.00838732,0.01451341,0.00083242,0.00159850,-0.00141751
 ,0.00156057,0.00036930,-0.00105761,-0.00105621,-0.00193584,0.00032629,
 0.00009130,0.00036562,-0.00023857,-0.00008519,0.00033321,-0.00025692,-
 0.00006040,0.00024527,-0.00008289,-0.00014082,-0.00001772,-0.00000151,
 -0.00004455,-0.00003201,0.00017605,0.00012201,0.00008706,0.00010103,0.
 08390023,0.03270474,0.01254242,-0.05612345,-0.09192219,0.00031686,0.00
 063333,0.00362276,0.02708153,0.02985810,0.14076834,-0.01032914,0.00478
 216,-0.02599058,0.00124942,0.00415178,0.00318333,-0.00048517,0.0025973
 2,0.00422940,0.00030136,-0.00023273,-0.00060593,-0.00009435,0.00013894
 ,0.00036960,-0.00043680,-0.00031515,0.00053789,-0.00007259,-0.00027975
 ,0.00002182,0.00005319,0.00003941,-0.00007592,0.00021622,-0.00008906,-
 0.00022597,-0.00000668,-0.00003172,-0.00006279,-0.03949636,0.00662032,
 -0.00810901,0.00213187,-0.00304306,-0.00271729,0.00004213,-0.00022983,
 0.00004836,-0.00076954,0.00132257,0.01085317,-0.00258004,0.00256504,-0
 .00024168,0.00026531,-0.00079120,-0.00007803,0.00155279,-0.00032077,-0
 .00063156,-0.00006922,-0.00134647,0.00042271,-0.00012225,0.00040757,0.
 00005117,-0.00027748,0.00064723,0.00005300,0.00000370,0.00006394,-0.00
 007437,-0.00003338,-0.00007187,-0.00013099,-0.00005928,-0.00004673,-0.
 00013937,0.00005424,0.00001929,0.00000094,-0.51615599,-0.07968963,0.00
 916010,0.51601715,-0.00020832,0.00012139,-0.00038795,-0.00015121,0.000
 08141,-0.00033853,0.00479395,-0.00171179,0.00048552,0.00240864,0.00337
 365,0.00147930,-0.00149772,-0.00210512,-0.00050935,0.00001693,-0.00033
 213,0.00002550,-0.00004570,-0.00016323,0.00013988,-0.00004801,-0.00000
 181,0.00004224,0.00006743,-0.00026159,0.00002335,-0.00000168,-0.000004
 54,-0.00000808,0.00001470,0.00001294,-0.00001102,0.00001449,0.00000002
 ,-0.00001448,-0.00001857,-0.00001118,-0.00000886,-0.08585885,-0.014487
 47,0.00825051,0.08051393,0.01548945,0.00028468,0.00008291,-0.00128573,
 0.00000726,-0.00008163,-0.00021596,-0.01899100,-0.00197749,-0.00177208
 ,-0.00004263,0.00063080,-0.00189751,0.00047653,0.00043227,0.00017861,0
 .00049179,-0.00055128,0.00011484,-0.00021166,0.00029721,0.00010719,0.0
 0003148,-0.00017626,-0.00016036,-0.00035736,-0.00004958,-0.00022892,-0
 .00001052,0.00004965,-0.00004473,-0.00000676,-0.00000997,0.00009627,-0
 .00008055,0.00002299,0.00007242,-0.00000479,0.00001150,-0.00000359,0.0
 3498969,0.01048692,-0.02574075,-0.01657616,-0.00916804,0.03078029\\0.0
 0234799,-0.00388560,0.00382769,0.00003577,-0.00001268,-0.00009280,-0.0
 1198232,0.00908678,-0.03608445,-0.00073802,0.00111533,-0.00083913,0.00
 043823,0.00153671,0.00188340,0.00068013,-0.00027802,0.00100200,0.00034
 379,-0.00017290,-0.00041427,-0.00013037,0.00014772,-0.00004722,0.00013
 426,-0.00011424,-0.00009532,0.00005451,-0.00003791,0.00011436,-0.00000
 815,0.00005994,0.00003706,-0.00003223,-0.00004300,-0.00006565,-0.00002
 477,-0.00005213,0.00008492,0.00838235,-0.00720447,0.03021199,0.0004988
 3,-0.00014552,0.00047741\\\@


 ERROR IS A HARDY PLANT... IT FLOURISHETH IN EVERY SOIL.
            MARTIN FARQUHAR TUPPER
 Job cpu time:       0 days  1 hours 14 minutes 55.8 seconds.
 Elapsed time:       0 days  0 hours 12 minutes 39.3 seconds.
 File lengths (MBytes):  RWF=    146 Int=      0 D2E=      0 Chk=      5 Scr=      1
 Normal termination of Gaussian 16 at Fri Mar 28 14:57:08 2025.
