 Entering Gaussian System, Link 0=g16
 Initial command:
 /opt/g16/l1.exe "/home/aayush/scratches/g16/Gau-10993.inp" -scrdir="/home/aayush/scratches/g16/"
 Entering Link 1 = /opt/g16/l1.exe PID=     10996.
  
 Copyright (c) 1988,1990,1992,1993,1995,1998,2003,2009,2016,
            Gaussian, Inc.  All Rights Reserved.
  
 This is part of the Gaussian(R) 16 program.  It is based on
 the Gaussian(R) 09 system (copyright 2009, Gaussian, Inc.),
 the Gaussian(R) 03 system (copyright 2003, Gaussian, Inc.),
 the Gaussian(R) 98 system (copyright 1998, Gaussian, Inc.),
 the Gaussian(R) 94 system (copyright 1995, Gaussian, Inc.),
 the Gaussian 92(TM) system (copyright 1992, Gaussian, Inc.),
 the Gaussian 90(TM) system (copyright 1990, Gaussian, Inc.),
 the Gaussian 88(TM) system (copyright 1988, Gaussian, Inc.),
 the Gaussian 86(TM) system (copyright 1986, Carnegie Mellon
 University), and the Gaussian 82(TM) system (copyright 1983,
 Carnegie Mellon University). Gaussian is a federally registered
 trademark of Gaussian, Inc.
  
 This software contains proprietary and confidential information,
 including trade secrets, belonging to Gaussian, Inc.
  
 This software is provided under written license and may be
 used, copied, transmitted, or stored only in accord with that
 written license.
  
 The following legend is applicable only to US Government
 contracts under FAR:
  
                    RESTRICTED RIGHTS LEGEND
  
 Use, reproduction and disclosure by the US Government is
 subject to restrictions as set forth in subparagraphs (a)
 and (c) of the Commercial Computer Software - Restricted
 Rights clause in FAR 52.227-19.
  
 Gaussian, Inc.
 340 Quinnipiac St., Bldg. 40, Wallingford CT 06492
  
  
 ---------------------------------------------------------------
 Warning -- This program may not be used in any manner that
 competes with the business of Gaussian, Inc. or will provide
 assistance to any competitor of Gaussian, Inc.  The licensee
 of this program is prohibited from giving any competitor of
 Gaussian, Inc. access to this program.  By using this program,
 the user acknowledges that Gaussian, Inc. is engaged in the
 business of creating and licensing software in the field of
 computational chemistry and represents and warrants to the
 licensee that it is not a competitor of Gaussian, Inc. and that
 it will not use this program in any manner prohibited above.
 ---------------------------------------------------------------
  

 Cite this work as:
 Gaussian 16, Revision A.03,
 M. J. Frisch, G. W. Trucks, H. B. Schlegel, G. E. Scuseria, 
 M. A. Robb, J. R. Cheeseman, G. Scalmani, V. Barone, 
 G. A. Petersson, H. Nakatsuji, X. Li, M. Caricato, A. V. Marenich, 
 J. Bloino, B. G. Janesko, R. Gomperts, B. Mennucci, H. P. Hratchian, 
 J. V. Ortiz, A. F. Izmaylov, J. L. Sonnenberg, D. Williams-Young, 
 F. Ding, F. Lipparini, F. Egidi, J. Goings, B. Peng, A. Petrone, 
 T. Henderson, D. Ranasinghe, V. G. Zakrzewski, J. Gao, N. Rega, 
 G. Zheng, W. Liang, M. Hada, M. Ehara, K. Toyota, R. Fukuda, 
 J. Hasegawa, M. Ishida, T. Nakajima, Y. Honda, O. Kitao, H. Nakai, 
 T. Vreven, K. Throssell, J. A. Montgomery, Jr., J. E. Peralta, 
 F. Ogliaro, M. J. Bearpark, J. J. Heyd, E. N. Brothers, K. N. Kudin, 
 V. N. Staroverov, T. A. Keith, R. Kobayashi, J. Normand, 
 K. Raghavachari, A. P. Rendell, J. C. Burant, S. S. Iyengar, 
 J. Tomasi, M. Cossi, J. M. Millam, M. Klene, C. Adamo, R. Cammi, 
 J. W. Ochterski, R. L. Martin, K. Morokuma, O. Farkas, 
 J. B. Foresman, and D. J. Fox, Gaussian, Inc., Wallingford CT, 2016.
 
 ******************************************
 Gaussian 16:  ES64L-G16RevA.03 25-Dec-2016
                12-May-2025 
 ******************************************
 %chk=ethyl_propiolate.chk
 %nprocshared=24
 Will use up to   24 processors via shared memory.
 %mem=12GB
 --------------------------
 # ccsd(t)/6-311++g(d,p) sp
 --------------------------
 1/38=1,172=1/1;
 2/12=2,17=6,18=5,40=1/2;
 3/5=4,6=6,7=1111,11=9,25=1,30=1/1,2,3;
 4//1;
 5/5=2,38=5/2;
 8/6=4,9=120000,10=2/1,4;
 9/5=7,14=2/13;
 6/7=2,8=2,9=2,10=2/1;
 99/5=1,9=1/99;
 -------------------
 Title Card Required
 -------------------
 Symbolic Z-matrix:
 Charge =  0 Multiplicity = 2
 C                     1.29811  -1.43774  -1.14868 
 H                     1.69089  -2.33074  -1.57686 
 C                     0.84884  -0.44168  -0.64528 
 C                     0.34571   0.87805  -0.23029 
 O                     0.97138   1.86449  -0.48364 
 O                    -0.8244    0.92346   0.3983 
 C                    -1.5714   -0.27743   0.67096 
 C                    -2.42379  -0.6689   -0.51995 
 H                    -0.88708  -1.07202   0.97078 
 H                    -2.18792  -0.0117    1.52829 
 H                    -3.07894   0.15494  -0.80629 
 H                    -1.80329  -0.9386   -1.37627 
 H                    -3.04125  -1.53165  -0.26134 
 O                     1.41827  -0.91979   1.50241 
 H                     2.35642  -0.72835   1.3361 
 
                          Input orientation:                          
 ---------------------------------------------------------------------
 Center     Atomic      Atomic             Coordinates (Angstroms)
 Number     Number       Type             X           Y           Z
 ---------------------------------------------------------------------
      1          6           0        1.298112   -1.437743   -1.148681
      2          1           0        1.690886   -2.330742   -1.576864
      3          6           0        0.848841   -0.441683   -0.645276
      4          6           0        0.345714    0.878052   -0.230286
      5          8           0        0.971379    1.864488   -0.483644
      6          8           0       -0.824398    0.923457    0.398299
      7          6           0       -1.571398   -0.277433    0.670964
      8          6           0       -2.423793   -0.668898   -0.519946
      9          1           0       -0.887082   -1.072022    0.970779
     10          1           0       -2.187919   -0.011697    1.528287
     11          1           0       -3.078943    0.154935   -0.806285
     12          1           0       -1.803288   -0.938601   -1.376265
     13          1           0       -3.041252   -1.531647   -0.261337
     14          8           0        1.418268   -0.919790    1.502410
     15          1           0        2.356419   -0.728347    1.336101
 ---------------------------------------------------------------------
                    Distance matrix (angstroms):
                    1          2          3          4          5
     1  C    0.000000
     2  H    1.065392   0.000000
     3  C    1.203078   2.268356   0.000000
     4  C    2.667099   3.730834   1.472092   0.000000
     5  O    3.384340   4.394630   2.315073   1.195284   0.000000
     6  O    3.531779   4.562645   2.398413   1.329038   2.210922
     7  C    3.590476   4.462209   2.759895   2.413030   3.519469
     8  C    3.852143   4.561730   3.282905   3.185455   4.236337
     9  H    3.066094   3.836767   2.454056   2.600987   3.767269
    10  H    4.620842   5.483162   3.759146   3.209911   4.189165
    11  H    4.670382   5.433567   3.976099   3.547245   4.408149
    12  H    3.149543   3.766636   2.795543   3.038372   4.043867
    13  H    4.430155   4.976173   4.058110   4.156820   5.261593
    14  O    2.703885   3.398093   2.272749   2.717507   3.449105
    15  H    2.792382   3.390571   2.506157   3.012809   3.457253
                    6          7          8          9         10
     6  O    0.000000
     7  C    1.440310   0.000000
     8  C    2.436562   1.515945   0.000000
     9  H    2.076921   1.090665   2.178589   0.000000
    10  H    2.002642   1.088906   2.163980   1.768412   0.000000
    11  H    2.669199   2.154507   1.090831   3.076952   2.504379
    12  H    2.752192   2.163807   1.091352   2.523064   3.073030
    13  H    3.372995   2.145392   1.092003   2.523849   2.498235
    14  O    3.105829   3.168916   4.349058   2.370748   3.718856
    15  H    3.704798   4.009174   5.128243   3.282053   4.604512
                   11         12         13         14         15
    11  H    0.000000
    12  H    1.774259   0.000000
    13  H    1.772836   1.768424   0.000000
    14  O    5.168173   4.320364   4.834510   0.000000
    15  H    5.908736   4.970342   5.686119   0.971821   0.000000
 Stoichiometry    C5H7O3(2)
 Framework group  C1[X(C5H7O3)]
 Deg. of freedom    39
 Full point group                 C1      NOp   1
 Largest Abelian subgroup         C1      NOp   1
 Largest concise Abelian subgroup C1      NOp   1
                         Standard orientation:                         
 ---------------------------------------------------------------------
 Center     Atomic      Atomic             Coordinates (Angstroms)
 Number     Number       Type             X           Y           Z
 ---------------------------------------------------------------------
      1          6           0        1.345399   -1.344762   -1.204818
      2          1           0        1.736859   -2.223155   -1.663341
      3          6           0        0.897971   -0.365778   -0.667422
      4          6           0        0.393596    0.938885   -0.208602
      5          8           0        1.009981    1.935705   -0.443381
      6          8           0       -0.767452    0.959806    0.437828
      7          6           0       -1.503679   -0.252644    0.687680
      8          6           0       -2.371166   -0.615970   -0.501247
      9          1           0       -0.810636   -1.051145    0.955330
     10          1           0       -2.109095   -0.014521    1.560884
     11          1           0       -3.035014    0.211564   -0.755034
     12          1           0       -1.761730   -0.858062   -1.373616
     13          1           0       -2.979960   -1.489250   -0.257892
     14          8           0        1.501342   -0.899945    1.457665
     15          1           0        2.435883   -0.698344    1.283231
 ---------------------------------------------------------------------
 Rotational constants (GHZ):           2.3116438           1.6452598           1.3994351
 Standard basis: 6-311++G(d,p) (5D, 7F)
 There are   233 symmetry adapted cartesian basis functions of A   symmetry.
 There are   225 symmetry adapted basis functions of A   symmetry.
   225 basis functions,   351 primitive gaussians,   233 cartesian basis functions
    31 alpha electrons       30 beta electrons
       nuclear repulsion energy       362.9496707567 Hartrees.
 NAtoms=   15 NActive=   15 NUniq=   15 SFac= 1.00D+00 NAtFMM=   60 NAOKFM=F Big=F
 Integral buffers will be    131072 words long.
 Raffenetti 2 integral format.
 Two-electron integral symmetry is turned on.
 One-electron integrals computed using PRISM.
 NBasis=   225 RedAO= T EigKep=  1.28D-06  NBF=   225
 NBsUse=   225 1.00D-06 EigRej= -1.00D+00 NBFU=   225
 ExpMin= 3.60D-02 ExpMax= 8.59D+03 ExpMxC= 1.30D+03 IAcc=3 IRadAn=         5 AccDes= 0.00D+00
 Harris functional with IExCor=  205 and IRadAn=       5 diagonalized for initial guess.
 HarFok:  IExCor=  205 AccDes= 0.00D+00 IRadAn=         5 IDoV= 1 UseB2=F ITyADJ=14
 ICtDFT=  3500011 ScaDFX=  1.000000  1.000000  1.000000  1.000000
 FoFCou: FMM=F IPFlag=           0 FMFlag=      100000 FMFlg1=           0
         NFxFlg=           0 DoJE=T BraDBF=F KetDBF=T FulRan=T
         wScrn=  0.000000 ICntrl=       500 IOpCl=  0 I1Cent=   200000004 NGrid=           0
         NMat0=    1 NMatS0=      1 NMatT0=    0 NMatD0=    1 NMtDS0=    0 NMtDT0=    0
 Petite list used in FoFCou.
 Initial guess <Sx>= 0.0000 <Sy>= 0.0000 <Sz>= 0.5000 <S**2>= 0.7500 S= 0.5000
 Requested convergence on RMS density matrix=1.00D-08 within 128 cycles.
 Requested convergence on MAX density matrix=1.00D-06.
 Requested convergence on             energy=1.00D-06.
 No special actions if energy rises.
 Initial convergence to 1.0D-05 achieved.  Increase integral accuracy.
 Restarting incremental Fock formation.
 SCF Done:  E(UHF) =  -417.980428614     A.U. after   41 cycles
            NFock= 41  Conv=0.16D-08     -V/T= 2.0007
 <Sx>= 0.0000 <Sy>= 0.0000 <Sz>= 0.5000 <S**2>= 0.8488 S= 0.5482
 <L.S>=  0.00000000000    
 Annihilation of the first spin contaminant:
 S**2 before annihilation     0.8488,   after     0.7560
 ExpMin= 3.60D-02 ExpMax= 8.59D+03 ExpMxC= 1.30D+03 IAcc=3 IRadAn=         5 AccDes= 0.00D+00
 HarFok:  IExCor=  205 AccDes= 0.00D+00 IRadAn=         5 IDoV=-2 UseB2=F ITyADJ=14
 ICtDFT= 12500011 ScaDFX=  1.000000  1.000000  1.000000  1.000000
 Range of M.O.s used for correlation:     9   225
 NBasis=   225 NAE=    31 NBE=    30 NFC=     8 NFV=     0
 NROrb=    217 NOA=    23 NOB=    22 NVA=   194 NVB=   195

 **** Warning!!: The largest alpha MO coefficient is  0.25447885D+03


 **** Warning!!: The largest beta MO coefficient is  0.26411878D+03

 Semi-Direct transformation.
 ModeAB=           4 MOrb=            23 LenV=    1609169857
 LASXX=    109339976 LTotXX=   109339976 LenRXX=   221407890
 LTotAB=   112067914 MaxLAS=   132211590 LenRXY=           0
 NonZer=   330747866 LenScr=   498067456 LnRSAI=   132211590
 LnScr1=   199095296 LExtra=           0 Total=   1050782232
 MaxDsk=          -1 SrtSym=           T ITran=            4
 JobTyp=1 Pass  1:  I=   1 to  23.
 (rs|ai) integrals will be sorted in core.
 ModeAB=           4 MOrb=            22 LenV=    1609169857
 LASXX=    104936601 LTotXX=   104936601 LenRXX=   190867446
 LTotAB=    85930845 MaxLAS=   126463260 LenRXY=           0
 NonZer=   295804047 LenScr=   445446144 LnRSAI=   126463260
 LnScr1=   190454784 LExtra=           0 Total=    953231634
 MaxDsk=          -1 SrtSym=           T ITran=            4
 JobTyp=2 Pass  1:  I=   1 to  22.
 (rs|ai) integrals will be sorted in core.
 SymMOI:  orbitals are not symmetric.
 Spin components of T(2) and E(2):
     alpha-alpha T2 =       0.5284679173D-01 E2=     -0.1704472784D+00
     alpha-beta  T2 =       0.2870078000D+00 E2=     -0.9367900196D+00
     beta-beta   T2 =       0.4988289890D-01 E2=     -0.1560444903D+00
 ANorm=    0.1178871278D+01
 E2 =    -0.1263281788D+01 EUMP2 =    -0.41924371040254D+03
 (S**2,0)=  0.84882D+00           (S**2,1)=  0.82000D+00
 E(PUHF)=      -0.41798934967D+03        E(PMP2)=      -0.41925137551D+03
 Keep R2 and R3 ints in memory in canonical form, NReq=652884060.
 CIDS: In Core Option IDoMem=           1.
 Iterations=  50 Convergence= 0.100D-06
 Produce multiple copies of IABC intergrals
 Iteration Nr.   1
 **********************
 DD1Dir will call FoFMem   1 times, MxPair=      1496
 NAB=   506 NAA=   253 NBB=   231.
 E(PMP3)=      -0.41927649359D+03
 MP4(R+Q)=  0.25284063D-01
 E3=       -0.27280622D-01        EUMP3=      -0.41927099102D+03
 E4(DQ)=   -0.55863734D-02        UMP4(DQ)=   -0.41927657740D+03
 E4(SDQ)=  -0.24830007D-01        UMP4(SDQ)=  -0.41929582103D+03
 DE(Corr)=  -1.2646826     E(Corr)=     -419.24511118    
 NORM(A)=   0.11856325D+01
 Iteration Nr.   2
 **********************
 DD1Dir will call FoFMem   1 times, MxPair=      1496
 NAB=   506 NAA=   253 NBB=   231.
 DE(Corr)=  -1.3071234     E(CORR)=     -419.28755205     Delta=-4.24D-02
 NORM(A)=   0.12042976D+01
 Iteration Nr.   3
 **********************
 DD1Dir will call FoFMem   1 times, MxPair=      1496
 NAB=   506 NAA=   253 NBB=   231.
 DE(Corr)=  -1.3088932     E(CORR)=     -419.28932180     Delta=-1.77D-03
 NORM(A)=   0.12122317D+01
 Iteration Nr.   4
 **********************
 DD1Dir will call FoFMem   1 times, MxPair=      1496
 NAB=   506 NAA=   253 NBB=   231.
 DE(Corr)=  -1.3144840     E(CORR)=     -419.29491262     Delta=-5.59D-03
 NORM(A)=   0.12165388D+01
 Iteration Nr.   5
 **********************
 DD1Dir will call FoFMem   1 times, MxPair=      1496
 NAB=   506 NAA=   253 NBB=   231.
 DE(Corr)=  -1.3157424     E(CORR)=     -419.29617100     Delta=-1.26D-03
 NORM(A)=   0.12190457D+01
 Iteration Nr.   6
 **********************
 DD1Dir will call FoFMem   1 times, MxPair=      1496
 NAB=   506 NAA=   253 NBB=   231.
 DE(Corr)=  -1.3161492     E(CORR)=     -419.29657783     Delta=-4.07D-04
 NORM(A)=   0.12196174D+01
 Iteration Nr.   7
 **********************
 DD1Dir will call FoFMem   1 times, MxPair=      1496
 NAB=   506 NAA=   253 NBB=   231.
 DE(Corr)=  -1.3162277     E(CORR)=     -419.29665631     Delta=-7.85D-05
 NORM(A)=   0.12197107D+01
 Iteration Nr.   8
 **********************
 DD1Dir will call FoFMem   1 times, MxPair=      1496
 NAB=   506 NAA=   253 NBB=   231.
 DE(Corr)=  -1.3162168     E(CORR)=     -419.29664546     Delta= 1.09D-05
 NORM(A)=   0.12197524D+01
 Iteration Nr.   9
 **********************
 DD1Dir will call FoFMem   1 times, MxPair=      1496
 NAB=   506 NAA=   253 NBB=   231.
 DE(Corr)=  -1.3162248     E(CORR)=     -419.29665345     Delta=-7.99D-06
 NORM(A)=   0.12197510D+01
 Iteration Nr.  10
 **********************
 DD1Dir will call FoFMem   1 times, MxPair=      1496
 NAB=   506 NAA=   253 NBB=   231.
 DE(Corr)=  -1.3162255     E(CORR)=     -419.29665412     Delta=-6.62D-07
 NORM(A)=   0.12197524D+01
 Iteration Nr.  11
 **********************
 DD1Dir will call FoFMem   1 times, MxPair=      1496
 NAB=   506 NAA=   253 NBB=   231.
 DE(Corr)=  -1.3162326     E(CORR)=     -419.29666123     Delta=-7.12D-06
 NORM(A)=   0.12197581D+01
 Iteration Nr.  12
 **********************
 DD1Dir will call FoFMem   1 times, MxPair=      1496
 NAB=   506 NAA=   253 NBB=   231.
 DE(Corr)=  -1.3162338     E(CORR)=     -419.29666239     Delta=-1.16D-06
 NORM(A)=   0.12197672D+01
 Iteration Nr.  13
 **********************
 DD1Dir will call FoFMem   1 times, MxPair=      1496
 NAB=   506 NAA=   253 NBB=   231.
 DE(Corr)=  -1.3162378     E(CORR)=     -419.29666643     Delta=-4.03D-06
 NORM(A)=   0.12197833D+01
 Iteration Nr.  14
 **********************
 DD1Dir will call FoFMem   1 times, MxPair=      1496
 NAB=   506 NAA=   253 NBB=   231.
 DE(Corr)=  -1.3162406     E(CORR)=     -419.29666924     Delta=-2.82D-06
 NORM(A)=   0.12198034D+01
 Iteration Nr.  15
 **********************
 DD1Dir will call FoFMem   1 times, MxPair=      1496
 NAB=   506 NAA=   253 NBB=   231.
 DE(Corr)=  -1.3162433     E(CORR)=     -419.29667187     Delta=-2.62D-06
 NORM(A)=   0.12198214D+01
 Iteration Nr.  16
 **********************
 DD1Dir will call FoFMem   1 times, MxPair=      1496
 NAB=   506 NAA=   253 NBB=   231.
 DE(Corr)=  -1.3162469     E(CORR)=     -419.29667553     Delta=-3.66D-06
 NORM(A)=   0.12198273D+01
 Iteration Nr.  17
 **********************
 DD1Dir will call FoFMem   1 times, MxPair=      1496
 NAB=   506 NAA=   253 NBB=   231.
 DE(Corr)=  -1.3162461     E(CORR)=     -419.29667470     Delta= 8.23D-07
 NORM(A)=   0.12198251D+01
 Iteration Nr.  18
 **********************
 DD1Dir will call FoFMem   1 times, MxPair=      1496
 NAB=   506 NAA=   253 NBB=   231.
 DE(Corr)=  -1.3162460     E(CORR)=     -419.29667463     Delta= 7.81D-08
 NORM(A)=   0.12198202D+01
 Iteration Nr.  19
 **********************
 DD1Dir will call FoFMem   1 times, MxPair=      1496
 NAB=   506 NAA=   253 NBB=   231.
 DE(Corr)=  -1.3162443     E(CORR)=     -419.29667290     Delta= 1.72D-06
 NORM(A)=   0.12198161D+01
 Iteration Nr.  20
 **********************
 DD1Dir will call FoFMem   1 times, MxPair=      1496
 NAB=   506 NAA=   253 NBB=   231.
 DE(Corr)=  -1.3162435     E(CORR)=     -419.29667216     Delta= 7.44D-07
 NORM(A)=   0.12198137D+01
 Iteration Nr.  21
 **********************
 DD1Dir will call FoFMem   1 times, MxPair=      1496
 NAB=   506 NAA=   253 NBB=   231.
 DE(Corr)=  -1.3162429     E(CORR)=     -419.29667153     Delta= 6.28D-07
 NORM(A)=   0.12198127D+01
 Iteration Nr.  22
 **********************
 DD1Dir will call FoFMem   1 times, MxPair=      1496
 NAB=   506 NAA=   253 NBB=   231.
 DE(Corr)=  -1.3162427     E(CORR)=     -419.29667130     Delta= 2.32D-07
 NORM(A)=   0.12198127D+01
 Iteration Nr.  23
 **********************
 DD1Dir will call FoFMem   1 times, MxPair=      1496
 NAB=   506 NAA=   253 NBB=   231.
 DE(Corr)=  -1.3162428     E(CORR)=     -419.29667138     Delta=-8.47D-08
 NORM(A)=   0.12198132D+01
 Wavefunction amplitudes converged. E(Corr)=     -419.29667138    
 Largest amplitude= 5.53D-02
 Time for triples=    36453.02 seconds.
 T4(CCSD)= -0.56810977D-01
 T5(CCSD)=  0.36142683D-02
 CCSD(T)= -0.41934986809D+03

 S**2, projected HF & approx projected MPn energies after annihilation of
 unwanted spin states (see manual for definitions):

 spins       (S**2,0) (S**2,1)    PUHF        PMP2        PMP3        PMP4
 annihilated
 s+1         0.74646  0.74887 -417.989350 -419.251376 -419.276494
 s+1,s+2     0.75004  0.74999 -417.989043 -419.251090 -419.276236
 s+1 to s+3  0.75000  0.75000 -417.989046 -419.251093 -419.276236
 s+1 to s+4  0.75000  0.75000 -417.989046 -419.251093 -419.276236
 s+1 to s+5  0.75000  0.75000 -417.989046
 s+1 to s+6  0.75000  0.75000 -417.989046

 Discarding MO integrals.

 **********************************************************************

            Population analysis using the SCF density.

 **********************************************************************

 Orbital symmetries:
 Alpha Orbitals:
       Occupied  (A) (A) (A) (A) (A) (A) (A) (A) (A) (A) (A) (A)
                 (A) (A) (A) (A) (A) (A) (A) (A) (A) (A) (A) (A)
                 (A) (A) (A) (A) (A) (A) (A)
       Virtual   (A) (A) (A) (A) (A) (A) (A) (A) (A) (A) (A) (A)
                 (A) (A) (A) (A) (A) (A) (A) (A) (A) (A) (A) (A)
                 (A) (A) (A) (A) (A) (A) (A) (A) (A) (A) (A) (A)
                 (A) (A) (A) (A) (A) (A) (A) (A) (A) (A) (A) (A)
                 (A) (A) (A) (A) (A) (A) (A) (A) (A) (A) (A) (A)
                 (A) (A) (A) (A) (A) (A) (A) (A) (A) (A) (A) (A)
                 (A) (A) (A) (A) (A) (A) (A) (A) (A) (A) (A) (A)
                 (A) (A) (A) (A) (A) (A) (A) (A) (A) (A) (A) (A)
                 (A) (A) (A) (A) (A) (A) (A) (A) (A) (A) (A) (A)
                 (A) (A) (A) (A) (A) (A) (A) (A) (A) (A) (A) (A)
                 (A) (A) (A) (A) (A) (A) (A) (A) (A) (A) (A) (A)
                 (A) (A) (A) (A) (A) (A) (A) (A) (A) (A) (A) (A)
                 (A) (A) (A) (A) (A) (A) (A) (A) (A) (A) (A) (A)
                 (A) (A) (A) (A) (A) (A) (A) (A) (A) (A) (A) (A)
                 (A) (A) (A) (A) (A) (A) (A) (A) (A) (A) (A) (A)
                 (A) (A) (A) (A) (A) (A) (A) (A) (A) (A) (A) (A)
                 (A) (A)
 Beta  Orbitals:
       Occupied  (A) (A) (A) (A) (A) (A) (A) (A) (A) (A) (A) (A)
                 (A) (A) (A) (A) (A) (A) (A) (A) (A) (A) (A) (A)
                 (A) (A) (A) (A) (A) (A)
       Virtual   (A) (A) (A) (A) (A) (A) (A) (A) (A) (A) (A) (A)
                 (A) (A) (A) (A) (A) (A) (A) (A) (A) (A) (A) (A)
                 (A) (A) (A) (A) (A) (A) (A) (A) (A) (A) (A) (A)
                 (A) (A) (A) (A) (A) (A) (A) (A) (A) (A) (A) (A)
                 (A) (A) (A) (A) (A) (A) (A) (A) (A) (A) (A) (A)
                 (A) (A) (A) (A) (A) (A) (A) (A) (A) (A) (A) (A)
                 (A) (A) (A) (A) (A) (A) (A) (A) (A) (A) (A) (A)
                 (A) (A) (A) (A) (A) (A) (A) (A) (A) (A) (A) (A)
                 (A) (A) (A) (A) (A) (A) (A) (A) (A) (A) (A) (A)
                 (A) (A) (A) (A) (A) (A) (A) (A) (A) (A) (A) (A)
                 (A) (A) (A) (A) (A) (A) (A) (A) (A) (A) (A) (A)
                 (A) (A) (A) (A) (A) (A) (A) (A) (A) (A) (A) (A)
                 (A) (A) (A) (A) (A) (A) (A) (A) (A) (A) (A) (A)
                 (A) (A) (A) (A) (A) (A) (A) (A) (A) (A) (A) (A)
                 (A) (A) (A) (A) (A) (A) (A) (A) (A) (A) (A) (A)
                 (A) (A) (A) (A) (A) (A) (A) (A) (A) (A) (A) (A)
                 (A) (A) (A)
 The electronic state is 2-A.
 Alpha  occ. eigenvalues --  -20.64157 -20.60770 -20.55117 -11.41484 -11.29907
 Alpha  occ. eigenvalues --  -11.27668 -11.26672 -11.23096  -1.47396  -1.39788
 Alpha  occ. eigenvalues --   -1.37695  -1.07865  -1.04727  -0.91557  -0.87432
 Alpha  occ. eigenvalues --   -0.75692  -0.73288  -0.69856  -0.68591  -0.67814
 Alpha  occ. eigenvalues --   -0.65481  -0.62841  -0.58238  -0.56813  -0.54652
 Alpha  occ. eigenvalues --   -0.54472  -0.50614  -0.47364  -0.45735  -0.43419
 Alpha  occ. eigenvalues --   -0.42642
 Alpha virt. eigenvalues --    0.03208   0.04553   0.05265   0.06556   0.07018
 Alpha virt. eigenvalues --    0.08364   0.09099   0.09892   0.11082   0.11743
 Alpha virt. eigenvalues --    0.13271   0.13871   0.14826   0.14956   0.16063
 Alpha virt. eigenvalues --    0.17076   0.17388   0.17581   0.18636   0.19401
 Alpha virt. eigenvalues --    0.19860   0.20305   0.21449   0.21935   0.23021
 Alpha virt. eigenvalues --    0.23665   0.25214   0.26339   0.29003   0.29547
 Alpha virt. eigenvalues --    0.29999   0.30625   0.31318   0.32438   0.34143
 Alpha virt. eigenvalues --    0.35346   0.36298   0.36858   0.38332   0.38714
 Alpha virt. eigenvalues --    0.41035   0.41490   0.42047   0.43006   0.43518
 Alpha virt. eigenvalues --    0.44503   0.45229   0.47123   0.47855   0.48923
 Alpha virt. eigenvalues --    0.52042   0.52963   0.57207   0.60321   0.62801
 Alpha virt. eigenvalues --    0.64945   0.65325   0.65594   0.70333   0.73999
 Alpha virt. eigenvalues --    0.75059   0.77196   0.79120   0.83298   0.83452
 Alpha virt. eigenvalues --    0.85930   0.86669   0.87098   0.88143   0.88808
 Alpha virt. eigenvalues --    0.90197   0.91827   0.94120   0.96663   0.97484
 Alpha virt. eigenvalues --    1.01202   1.03457   1.07769   1.14281   1.15786
 Alpha virt. eigenvalues --    1.21086   1.22444   1.26803   1.28418   1.30460
 Alpha virt. eigenvalues --    1.32058   1.36280   1.40274   1.41560   1.42426
 Alpha virt. eigenvalues --    1.43575   1.46189   1.48746   1.49908   1.52074
 Alpha virt. eigenvalues --    1.55461   1.56628   1.57844   1.60226   1.61780
 Alpha virt. eigenvalues --    1.64297   1.68787   1.72143   1.73248   1.78525
 Alpha virt. eigenvalues --    1.81003   1.82794   1.84591   1.85823   1.87922
 Alpha virt. eigenvalues --    1.89307   1.91836   1.95066   1.95335   2.02061
 Alpha virt. eigenvalues --    2.02939   2.04473   2.07142   2.10117   2.13350
 Alpha virt. eigenvalues --    2.15938   2.22209   2.26121   2.28639   2.31475
 Alpha virt. eigenvalues --    2.33580   2.38210   2.42257   2.48665   2.59820
 Alpha virt. eigenvalues --    2.63456   2.70850   2.77802   2.79793   2.82297
 Alpha virt. eigenvalues --    2.84566   2.85735   2.89881   2.93499   2.93668
 Alpha virt. eigenvalues --    2.95411   2.97338   3.00584   3.03898   3.06979
 Alpha virt. eigenvalues --    3.10200   3.12361   3.16231   3.17766   3.22762
 Alpha virt. eigenvalues --    3.24743   3.27053   3.31580   3.35331   3.35926
 Alpha virt. eigenvalues --    3.41634   3.43830   3.46274   3.47790   3.48790
 Alpha virt. eigenvalues --    3.60074   3.65123   3.68602   3.73470   3.75087
 Alpha virt. eigenvalues --    3.79008   3.93088   3.99912   4.14859   4.21029
 Alpha virt. eigenvalues --    4.22075   4.24179   4.24842   4.42839   4.52302
 Alpha virt. eigenvalues --    4.54479   4.70595   5.49821   5.54653   5.61158
 Alpha virt. eigenvalues --    5.65995   5.74233   5.89824   6.00664   6.18157
 Alpha virt. eigenvalues --    6.47746  24.69890  25.00381  25.02602  25.13761
 Alpha virt. eigenvalues --   26.24925  51.50815  51.60166  51.74493
  Beta  occ. eigenvalues --  -20.60728 -20.60074 -20.55513 -11.41226 -11.29917
  Beta  occ. eigenvalues --  -11.27725 -11.26407 -11.23096  -1.47498  -1.38279
  Beta  occ. eigenvalues --   -1.24545  -1.07500  -1.04728  -0.91112  -0.87034
  Beta  occ. eigenvalues --   -0.75413  -0.72828  -0.69480  -0.66740  -0.64590
  Beta  occ. eigenvalues --   -0.62915  -0.58467  -0.55712  -0.54599  -0.51563
  Beta  occ. eigenvalues --   -0.50706  -0.48264  -0.46495  -0.43687  -0.42843
  Beta virt. eigenvalues --    0.03268   0.04334   0.04551   0.06575   0.06851
  Beta virt. eigenvalues --    0.08112   0.08460   0.09721   0.10370   0.11329
  Beta virt. eigenvalues --    0.11672   0.13768   0.14248   0.14926   0.15314
  Beta virt. eigenvalues --    0.16580   0.17139   0.17440   0.17753   0.18750
  Beta virt. eigenvalues --    0.19473   0.20013   0.20500   0.21671   0.22210
  Beta virt. eigenvalues --    0.23062   0.23901   0.25303   0.26439   0.29067
  Beta virt. eigenvalues --    0.29982   0.30672   0.31086   0.32242   0.33009
  Beta virt. eigenvalues --    0.34316   0.36135   0.36351   0.37591   0.38352
  Beta virt. eigenvalues --    0.38846   0.41104   0.41528   0.42396   0.43147
  Beta virt. eigenvalues --    0.43563   0.44374   0.45273   0.47110   0.48170
  Beta virt. eigenvalues --    0.49923   0.52055   0.53051   0.57208   0.60484
  Beta virt. eigenvalues --    0.62778   0.64991   0.65542   0.65842   0.71052
  Beta virt. eigenvalues --    0.73906   0.77633   0.78279   0.79812   0.82797
  Beta virt. eigenvalues --    0.83743   0.85848   0.86693   0.87080   0.88043
  Beta virt. eigenvalues --    0.88933   0.90005   0.91800   0.94087   0.96586
  Beta virt. eigenvalues --    0.97667   1.02016   1.03358   1.07969   1.15479
  Beta virt. eigenvalues --    1.16403   1.21680   1.22640   1.28548   1.31632
  Beta virt. eigenvalues --    1.31920   1.33027   1.36334   1.40401   1.42590
  Beta virt. eigenvalues --    1.43466   1.44980   1.46250   1.48872   1.50224
  Beta virt. eigenvalues --    1.53143   1.55766   1.58316   1.58630   1.60470
  Beta virt. eigenvalues --    1.62973   1.64889   1.69458   1.72192   1.74732
  Beta virt. eigenvalues --    1.79482   1.81025   1.83059   1.84907   1.85774
  Beta virt. eigenvalues --    1.87892   1.89163   1.91993   1.95075   1.95311
  Beta virt. eigenvalues --    2.02200   2.02830   2.04457   2.07274   2.10261
  Beta virt. eigenvalues --    2.13587   2.16023   2.22581   2.26241   2.28843
  Beta virt. eigenvalues --    2.31949   2.34902   2.38299   2.42279   2.48679
  Beta virt. eigenvalues --    2.59850   2.63466   2.71145   2.77795   2.79682
  Beta virt. eigenvalues --    2.82292   2.84614   2.85792   2.89910   2.93667
  Beta virt. eigenvalues --    2.93802   2.95406   2.97837   3.00939   3.04477
  Beta virt. eigenvalues --    3.07627   3.10849   3.15804   3.17833   3.23173
  Beta virt. eigenvalues --    3.24650   3.27970   3.29702   3.31662   3.36711
  Beta virt. eigenvalues --    3.38747   3.41124   3.46375   3.47563   3.49070
  Beta virt. eigenvalues --    3.53331   3.60118   3.65733   3.68895   3.74044
  Beta virt. eigenvalues --    3.74978   3.78400   3.93502   3.99761   4.14726
  Beta virt. eigenvalues --    4.21154   4.22069   4.24541   4.27735   4.42818
  Beta virt. eigenvalues --    4.52323   4.54420   4.70620   5.53751   5.60861
  Beta virt. eigenvalues --    5.64062   5.67091   5.74170   5.89826   6.03264
  Beta virt. eigenvalues --    6.18046   6.47698  24.69874  25.00501  25.02664
  Beta virt. eigenvalues --   25.13761  26.25066  51.53139  51.60176  51.74302
          Condensed to atoms (all electrons):
               1          2          3          4          5          6
     1  C   47.882285   1.001953 -23.739189 -16.968900  -0.243148  -0.198777
     2  H    1.001953   0.411116  -0.512758  -0.127241  -0.005107  -0.004765
     3  C  -23.739189  -0.512758  24.903922   3.677017   0.109699  -0.126362
     4  C  -16.968900  -0.127241   3.677017  18.712937   0.474178   0.286485
     5  O   -0.243148  -0.005107   0.109699   0.474178   8.059917  -0.050791
     6  O   -0.198777  -0.004765  -0.126362   0.286485  -0.050791   8.181143
     7  C    0.029533  -0.007020  -0.081459  -0.068710  -0.011540   0.263454
     8  C    0.049099   0.005158  -0.017292  -0.017958   0.013601  -0.150072
     9  H   -0.155744  -0.002219   0.068630   0.063907   0.002424  -0.015772
    10  H    0.063344  -0.000123   0.017759  -0.072606  -0.002210  -0.070067
    11  H   -0.011261   0.000258  -0.004839   0.008515   0.000289  -0.007425
    12  H    0.031648  -0.002695   0.026570  -0.050974  -0.000543  -0.005634
    13  H    0.039315   0.000582  -0.006624  -0.031287   0.000263   0.014953
    14  O   -0.022246   0.000349   0.067493  -0.075504  -0.013700  -0.000358
    15  H    0.015739  -0.000260  -0.012346   0.030943  -0.004012  -0.000968
               7          8          9         10         11         12
     1  C    0.029533   0.049099  -0.155744   0.063344  -0.011261   0.031648
     2  H   -0.007020   0.005158  -0.002219  -0.000123   0.000258  -0.002695
     3  C   -0.081459  -0.017292   0.068630   0.017759  -0.004839   0.026570
     4  C   -0.068710  -0.017958   0.063907  -0.072606   0.008515  -0.050974
     5  O   -0.011540   0.013601   0.002424  -0.002210   0.000289  -0.000543
     6  O    0.263454  -0.150072  -0.015772  -0.070067  -0.007425  -0.005634
     7  C    5.495640  -0.105883   0.416971   0.457078  -0.043855  -0.031095
     8  C   -0.105883   5.520265  -0.044975  -0.064804   0.436427   0.377858
     9  H    0.416971  -0.044975   0.527775  -0.032609  -0.002070   0.000036
    10  H    0.457078  -0.064804  -0.032609   0.521295  -0.003300   0.007721
    11  H   -0.043855   0.436427  -0.002070  -0.003300   0.536644  -0.046146
    12  H   -0.031095   0.377858   0.000036   0.007721  -0.046146   0.605755
    13  H   -0.050281   0.411396  -0.002910   0.000326  -0.031114  -0.039006
    14  O   -0.021774   0.002884   0.005829  -0.003005   0.000054   0.000359
    15  H    0.000268  -0.000318  -0.003383  -0.000163   0.000137  -0.000390
              13         14         15
     1  C    0.039315  -0.022246   0.015739
     2  H    0.000582   0.000349  -0.000260
     3  C   -0.006624   0.067493  -0.012346
     4  C   -0.031287  -0.075504   0.030943
     5  O    0.000263  -0.013700  -0.004012
     6  O    0.014953  -0.000358  -0.000968
     7  C   -0.050281  -0.021774   0.000268
     8  C    0.411396   0.002884  -0.000318
     9  H   -0.002910   0.005829  -0.003383
    10  H    0.000326  -0.003005  -0.000163
    11  H   -0.031114   0.000054   0.000137
    12  H   -0.039006   0.000359  -0.000390
    13  H    0.565761  -0.000538  -0.000140
    14  O   -0.000538   7.976343   0.267807
    15  H   -0.000140   0.267807   0.459115
          Atomic-Atomic Spin Densities.
               1          2          3          4          5          6
     1  C   -1.000624  -0.080112   1.158938   0.597679   0.032246  -0.008692
     2  H   -0.080112  -0.039512   0.064464   0.015357   0.000203  -0.000277
     3  C    1.158938   0.064464  -1.467540  -0.328594   0.014015   0.019529
     4  C    0.597679   0.015357  -0.328594  -0.159170  -0.020276  -0.032317
     5  O    0.032246   0.000203   0.014015  -0.020276  -0.110932  -0.001072
     6  O   -0.008692  -0.000277   0.019529  -0.032317  -0.001072   0.026374
     7  C    0.014554   0.000256  -0.029602   0.004587   0.001564  -0.006822
     8  C    0.002824  -0.000000   0.006639  -0.007853  -0.000713   0.001930
     9  H   -0.038190  -0.000500   0.032029   0.015276   0.000439   0.002782
    10  H   -0.003494  -0.000054  -0.003231   0.006578   0.000193  -0.000831
    11  H    0.003577   0.000027  -0.000452  -0.002883  -0.000105   0.000049
    12  H   -0.012819  -0.000358   0.009007   0.005815   0.000172  -0.000353
    13  H    0.001065   0.000046  -0.000764  -0.000289  -0.000023  -0.000005
    14  O   -0.176859  -0.001985   0.026810   0.103913   0.001229  -0.000875
    15  H    0.035726   0.000574  -0.028032  -0.010891  -0.000134   0.000376
               7          8          9         10         11         12
     1  C    0.014554   0.002824  -0.038190  -0.003494   0.003577  -0.012819
     2  H    0.000256  -0.000000  -0.000500  -0.000054   0.000027  -0.000358
     3  C   -0.029602   0.006639   0.032029  -0.003231  -0.000452   0.009007
     4  C    0.004587  -0.007853   0.015276   0.006578  -0.002883   0.005815
     5  O    0.001564  -0.000713   0.000439   0.000193  -0.000105   0.000172
     6  O   -0.006822   0.001930   0.002782  -0.000831   0.000049  -0.000353
     7  C    0.040627  -0.022219  -0.020453   0.005824  -0.000471   0.001537
     8  C   -0.022219   0.015313   0.009762  -0.003185  -0.000192  -0.000923
     9  H   -0.020453   0.009762   0.013514  -0.003584   0.000089  -0.001536
    10  H    0.005824  -0.003185  -0.003584   0.001317   0.000347   0.000072
    11  H   -0.000471  -0.000192   0.000089   0.000347  -0.000330   0.000462
    12  H    0.001537  -0.000923  -0.001536   0.000072   0.000462  -0.000421
    13  H   -0.000005  -0.000332   0.000518  -0.000480   0.000184  -0.000131
    14  O    0.008260  -0.002997  -0.008424  -0.001199   0.000019   0.000342
    15  H   -0.001055   0.000023   0.000772   0.000114  -0.000011  -0.000027
              13         14         15
     1  C    0.001065  -0.176859   0.035726
     2  H    0.000046  -0.001985   0.000574
     3  C   -0.000764   0.026810  -0.028032
     4  C   -0.000289   0.103913  -0.010891
     5  O   -0.000023   0.001229  -0.000134
     6  O   -0.000005  -0.000875   0.000376
     7  C   -0.000005   0.008260  -0.001055
     8  C   -0.000332  -0.002997   0.000023
     9  H    0.000518  -0.008424   0.000772
    10  H   -0.000480  -0.001199   0.000114
    11  H    0.000184   0.000019  -0.000011
    12  H   -0.000131   0.000342  -0.000027
    13  H   -0.000071  -0.000066   0.000017
    14  O   -0.000066   1.022337   0.010926
    15  H    0.000017   0.010926  -0.046863
 Mulliken charges and spin densities:
               1          2
     1  C   -1.773652   0.525821
     2  H    0.242771  -0.041871
     3  C    1.629779  -0.526785
     4  C    0.159200   0.186933
     5  O   -0.329320  -0.083196
     6  O   -0.115044  -0.000205
     7  C   -0.241328  -0.003416
     8  C   -0.415385  -0.001923
     9  H    0.174111   0.002493
    10  H    0.181364  -0.001613
    11  H    0.167685   0.000310
    12  H    0.126536   0.000839
    13  H    0.129304  -0.000336
    14  O   -0.183993   0.981433
    15  H    0.247972  -0.038486
 Sum of Mulliken charges =  -0.00000   1.00000
 Mulliken charges and spin densities with hydrogens summed into heavy atoms:
               1          2
     1  C   -1.530881   0.483950
     3  C    1.629779  -0.526785
     4  C    0.159200   0.186933
     5  O   -0.329320  -0.083196
     6  O   -0.115044  -0.000205
     7  C    0.114148  -0.002535
     8  C    0.008140  -0.001110
    14  O    0.063979   0.942947
 Electronic spatial extent (au):  <R**2>=            993.6978
 Charge=             -0.0000 electrons
 Dipole moment (field-independent basis, Debye):
    X=             -0.2285    Y=             -4.6654    Z=             -0.1282  Tot=              4.6727
 Quadrupole moment (field-independent basis, Debye-Ang):
   XX=            -38.8193   YY=            -53.2472   ZZ=            -46.4593
   XY=             -5.0081   XZ=              0.5046   YZ=              4.1062
 Traceless Quadrupole moment (field-independent basis, Debye-Ang):
   XX=              7.3560   YY=             -7.0719   ZZ=             -0.2840
   XY=             -5.0081   XZ=              0.5046   YZ=              4.1062
 Octapole moment (field-independent basis, Debye-Ang**2):
  XXX=             16.0850  YYY=            -19.2676  ZZZ=              8.5610  XYY=              0.8344
  XXY=            -12.5041  XXZ=             12.5718  XZZ=              4.2966  YZZ=             -2.7041
  YYZ=             -4.7986  XYZ=              9.3718
 Hexadecapole moment (field-independent basis, Debye-Ang**3):
 XXXX=           -580.4818 YYYY=           -387.5628 ZZZZ=           -250.3627 XXXY=            -27.4724
 XXXZ=             27.9544 YYYX=            -30.7988 YYYZ=             21.7755 ZZZX=              5.0323
 ZZZY=              3.9778 XXYY=           -162.8402 XXZZ=           -132.3003 YYZZ=            -95.2545
 XXYZ=              5.8957 YYXZ=            -10.9585 ZZXY=            -13.0762
 N-N= 3.629496707567D+02 E-N=-1.708832396355D+03  KE= 4.176974694774D+02
 1\1\GINC-AJ\SP\UCCSD(T)-FC\6-311++G(d,p)\C5H7O3(2)\AAYUSH\12-May-2025\
 0\\# ccsd(t)/6-311++g(d,p) sp\\Title Card Required\\0,2\C,0,1.298112,-
 1.437743,-1.148681\H,0,1.690886,-2.330742,-1.576864\C,0,0.848841,-0.44
 1683,-0.645276\C,0,0.345714,0.878052,-0.230286\O,0,0.971379,1.864488,-
 0.483644\O,0,-0.824398,0.923457,0.398299\C,0,-1.571398,-0.277433,0.670
 964\C,0,-2.423793,-0.668898,-0.519946\H,0,-0.887082,-1.072022,0.970779
 \H,0,-2.187919,-0.011697,1.528287\H,0,-3.078943,0.154935,-0.806285\H,0
 ,-1.803288,-0.938601,-1.376265\H,0,-3.041252,-1.531647,-0.261337\O,0,1
 .418268,-0.91979,1.50241\H,0,2.356419,-0.728347,1.336101\\Version=ES64
 L-G16RevA.03\State=2-A\HF=-417.9804286\MP2=-419.2437104\MP3=-419.27099
 1\MP4D=-419.3018615\MP4DQ=-419.2765774\PUHF=-417.9893497\PMP2-0=-419.2
 513755\PMP3-0=-419.2764936\MP4SDQ=-419.295821\CCSD=-419.2966714\CCSD(T
 )=-419.3498681\S2=0.848818\S2-1=0.819998\S2A=0.755985\RMSD=1.569e-09\P
 G=C01 [X(C5H7O3)]\\@


 THE HURRIEDER I GO, THE BEHINDER I GET.
 Job cpu time:       0 days 18 hours 39 minutes 44.6 seconds.
 Elapsed time:       0 days  0 hours 46 minutes 55.0 seconds.
 File lengths (MBytes):  RWF=  44733 Int=      0 D2E=      0 Chk=      6 Scr=      1
 Normal termination of Gaussian 16 at Mon May 12 05:45:25 2025.
