 Entering Gaussian System, Link 0=g16
 Initial command:
 /opt/g16/l1.exe "/home/aayush/scratches/g16/Gau-9764.inp" -scrdir="/home/aayush/scratches/g16/"
 Entering Link 1 = /opt/g16/l1.exe PID=      9767.
  
 Copyright (c) 1988,1990,1992,1993,1995,1998,2003,2009,2016,
            Gaussian, Inc.  All Rights Reserved.
  
 This is part of the Gaussian(R) 16 program.  It is based on
 the Gaussian(R) 09 system (copyright 2009, Gaussian, Inc.),
 the Gaussian(R) 03 system (copyright 2003, Gaussian, Inc.),
 the Gaussian(R) 98 system (copyright 1998, Gaussian, Inc.),
 the Gaussian(R) 94 system (copyright 1995, Gaussian, Inc.),
 the Gaussian 92(TM) system (copyright 1992, Gaussian, Inc.),
 the Gaussian 90(TM) system (copyright 1990, Gaussian, Inc.),
 the Gaussian 88(TM) system (copyright 1988, Gaussian, Inc.),
 the Gaussian 86(TM) system (copyright 1986, Carnegie Mellon
 University), and the Gaussian 82(TM) system (copyright 1983,
 Carnegie Mellon University). Gaussian is a federally registered
 trademark of Gaussian, Inc.
  
 This software contains proprietary and confidential information,
 including trade secrets, belonging to Gaussian, Inc.
  
 This software is provided under written license and may be
 used, copied, transmitted, or stored only in accord with that
 written license.
  
 The following legend is applicable only to US Government
 contracts under FAR:
  
                    RESTRICTED RIGHTS LEGEND
  
 Use, reproduction and disclosure by the US Government is
 subject to restrictions as set forth in subparagraphs (a)
 and (c) of the Commercial Computer Software - Restricted
 Rights clause in FAR 52.227-19.
  
 Gaussian, Inc.
 340 Quinnipiac St., Bldg. 40, Wallingford CT 06492
  
  
 ---------------------------------------------------------------
 Warning -- This program may not be used in any manner that
 competes with the business of Gaussian, Inc. or will provide
 assistance to any competitor of Gaussian, Inc.  The licensee
 of this program is prohibited from giving any competitor of
 Gaussian, Inc. access to this program.  By using this program,
 the user acknowledges that Gaussian, Inc. is engaged in the
 business of creating and licensing software in the field of
 computational chemistry and represents and warrants to the
 licensee that it is not a competitor of Gaussian, Inc. and that
 it will not use this program in any manner prohibited above.
 ---------------------------------------------------------------
  

 Cite this work as:
 Gaussian 16, Revision A.03,
 M. J. Frisch, G. W. Trucks, H. B. Schlegel, G. E. Scuseria, 
 M. A. Robb, J. R. Cheeseman, G. Scalmani, V. Barone, 
 G. A. Petersson, H. Nakatsuji, X. Li, M. Caricato, A. V. Marenich, 
 J. Bloino, B. G. Janesko, R. Gomperts, B. Mennucci, H. P. Hratchian, 
 J. V. Ortiz, A. F. Izmaylov, J. L. Sonnenberg, D. Williams-Young, 
 F. Ding, F. Lipparini, F. Egidi, J. Goings, B. Peng, A. Petrone, 
 T. Henderson, D. Ranasinghe, V. G. Zakrzewski, J. Gao, N. Rega, 
 G. Zheng, W. Liang, M. Hada, M. Ehara, K. Toyota, R. Fukuda, 
 J. Hasegawa, M. Ishida, T. Nakajima, Y. Honda, O. Kitao, H. Nakai, 
 T. Vreven, K. Throssell, J. A. Montgomery, Jr., J. E. Peralta, 
 F. Ogliaro, M. J. Bearpark, J. J. Heyd, E. N. Brothers, K. N. Kudin, 
 V. N. Staroverov, T. A. Keith, R. Kobayashi, J. Normand, 
 K. Raghavachari, A. P. Rendell, J. C. Burant, S. S. Iyengar, 
 J. Tomasi, M. Cossi, J. M. Millam, M. Klene, C. Adamo, R. Cammi, 
 J. W. Ochterski, R. L. Martin, K. Morokuma, O. Farkas, 
 J. B. Foresman, and D. J. Fox, Gaussian, Inc., Wallingford CT, 2016.
 
 ******************************************
 Gaussian 16:  ES64L-G16RevA.03 25-Dec-2016
                21-Apr-2025 
 ******************************************
 %chk=ethyl_propiolate.chk
 %nprocshared=24
 Will use up to   24 processors via shared memory.
 %mem=12GB
 --------------------------
 # ccsd(t)/6-311++g(d,p) sp
 --------------------------
 1/38=1,172=1/1;
 2/12=2,17=6,18=5,40=1/2;
 3/5=4,6=6,7=1111,11=9,25=1,30=1/1,2,3;
 4//1;
 5/5=2,38=5/2;
 8/6=4,9=120000,10=2/1,4;
 9/5=7,14=2/13;
 6/7=2,8=2,9=2,10=2/1;
 99/5=1,9=1/99;
 -------------------
 Title Card Required
 -------------------
 Symbolic Z-matrix:
 Charge =  0 Multiplicity = 2
 C                     2.91447   1.31159   0.31916 
 H                     3.67767   2.0383    0.47376 
 C                     2.05816   0.49214   0.14456 
 C                     1.05042  -0.53045  -0.09332 
 O                     1.27974  -1.6107   -0.5555 
 O                    -0.16394  -0.09998   0.27059 
 C                    -1.24421  -1.03151   0.04942 
 C                    -2.49111  -0.39476   0.59778 
 H                    -1.31801  -1.22347  -1.02291 
 H                    -1.00182  -1.97035   0.55191 
 H                    -2.42302  -0.18992   1.6658 
 H                    -2.67202   0.58977   0.08286 
 H                    -3.37613  -0.99106   0.37387 
 O                    -2.29825   1.82041  -0.59153 
 H                    -1.36012   1.82504  -0.33086 
 
                          Input orientation:                          
 ---------------------------------------------------------------------
 Center     Atomic      Atomic             Coordinates (Angstroms)
 Number     Number       Type             X           Y           Z
 ---------------------------------------------------------------------
      1          6           0        2.914474    1.311589    0.319157
      2          1           0        3.677671    2.038300    0.473761
      3          6           0        2.058162    0.492137    0.144559
      4          6           0        1.050417   -0.530453   -0.093321
      5          8           0        1.279737   -1.610703   -0.555499
      6          8           0       -0.163940   -0.099976    0.270586
      7          6           0       -1.244212   -1.031511    0.049420
      8          6           0       -2.491111   -0.394755    0.597779
      9          1           0       -1.318005   -1.223469   -1.022908
     10          1           0       -1.001819   -1.970353    0.551911
     11          1           0       -2.423021   -0.189916    1.665804
     12          1           0       -2.672021    0.589771    0.082857
     13          1           0       -3.376133   -0.991063    0.373866
     14          8           0       -2.298254    1.820406   -0.591530
     15          1           0       -1.360121    1.825036   -0.330857
 ---------------------------------------------------------------------
                    Distance matrix (angstroms):
                    1          2          3          4          5
     1  C    0.000000
     2  H    1.065120   0.000000
     3  C    1.198022   2.263140   0.000000
     4  C    2.652916   3.717867   1.455276   0.000000
     5  O    3.460806   4.486055   2.349034   1.197137   0.000000
     6  O    3.386961   4.401304   2.303089   1.338806   2.246979
     7  C    4.780956   5.816248   3.638163   2.353031   2.659268
     8  C    5.675349   6.632421   4.657024   3.610880   4.126484
     9  H    5.112879   6.151092   3.962927   2.637011   2.667712
    10  H    5.114946   6.162226   3.948832   2.588689   2.561484
    11  H    5.705859   6.603359   4.781253   3.908357   4.545684
    12  H    5.637888   6.524541   4.731593   3.891335   4.567929
    13  H    6.699025   7.677446   5.637732   4.474904   4.787985
    14  O    5.316087   6.074043   4.613511   4.121692   4.957401
    15  H    4.354114   5.106098   3.699635   3.378675   4.338619
                    6          7          8          9         10
     6  O    0.000000
     7  C    1.443489   0.000000
     8  C    2.368475   1.503633   0.000000
     9  H    2.065727   1.091870   2.165542   0.000000
    10  H    2.068694   1.092097   2.168549   1.771402   0.000000
    11  H    2.656722   2.170385   1.089620   3.085201   2.535849
    12  H    2.607962   2.160628   1.125684   2.518713   3.092543
    13  H    3.335099   2.156847   1.090406   2.498176   2.574505
    14  O    2.997734   3.107290   2.521624   3.226786   4.166300
    15  H    2.344836   2.884078   2.658754   3.126354   3.913137
                   11         12         13         14         15
    11  H    0.000000
    12  H    1.782031   0.000000
    13  H    1.794258   1.754849   0.000000
    14  O    3.025313   1.452227   3.161988   0.000000
    15  H    3.029264   1.848816   3.534311   0.973686   0.000000
 Stoichiometry    C5H7O3(2)
 Framework group  C1[X(C5H7O3)]
 Deg. of freedom    39
 Full point group                 C1      NOp   1
 Largest Abelian subgroup         C1      NOp   1
 Largest concise Abelian subgroup C1      NOp   1
                         Standard orientation:                         
 ---------------------------------------------------------------------
 Center     Atomic      Atomic             Coordinates (Angstroms)
 Number     Number       Type             X           Y           Z
 ---------------------------------------------------------------------
      1          6           0        2.985684    1.304085    0.312012
      2          1           0        3.750139    2.028730    0.470055
      3          6           0        2.127953    0.486955    0.133538
      4          6           0        1.118453   -0.532774   -0.109132
      5          8           0        1.346077   -1.611629   -0.575390
      6          8           0       -0.095363   -0.101429    0.255551
      7          6           0       -1.177231   -1.030032    0.029899
      8          6           0       -2.423338   -0.393074    0.579820
      9          1           0       -1.250569   -1.217624   -1.043233
     10          1           0       -0.937002   -1.971305    0.528869
     11          1           0       -2.355675   -0.192574    1.648695
     12          1           0       -2.601988    0.593814    0.068646
     13          1           0       -3.309318   -0.986814    0.352890
     14          8           0       -2.225373    1.826385   -0.600604
     15          1           0       -1.287432    1.828206   -0.339205
 ---------------------------------------------------------------------
 Rotational constants (GHZ):           2.9313563           1.1600620           0.8967063
 Standard basis: 6-311++G(d,p) (5D, 7F)
 There are   233 symmetry adapted cartesian basis functions of A   symmetry.
 There are   225 symmetry adapted basis functions of A   symmetry.
   225 basis functions,   351 primitive gaussians,   233 cartesian basis functions
    31 alpha electrons       30 beta electrons
       nuclear repulsion energy       347.7345898355 Hartrees.
 NAtoms=   15 NActive=   15 NUniq=   15 SFac= 1.00D+00 NAtFMM=   60 NAOKFM=F Big=F
 Integral buffers will be    131072 words long.
 Raffenetti 2 integral format.
 Two-electron integral symmetry is turned on.
 One-electron integrals computed using PRISM.
 NBasis=   225 RedAO= T EigKep=  6.75D-06  NBF=   225
 NBsUse=   224 1.00D-06 EigRej=  7.97D-07 NBFU=   224
 ExpMin= 3.60D-02 ExpMax= 8.59D+03 ExpMxC= 1.30D+03 IAcc=3 IRadAn=         5 AccDes= 0.00D+00
 Harris functional with IExCor=  205 and IRadAn=       5 diagonalized for initial guess.
 HarFok:  IExCor=  205 AccDes= 0.00D+00 IRadAn=         5 IDoV= 1 UseB2=F ITyADJ=14
 ICtDFT=  3500011 ScaDFX=  1.000000  1.000000  1.000000  1.000000
 FoFCou: FMM=F IPFlag=           0 FMFlag=      100000 FMFlg1=           0
         NFxFlg=           0 DoJE=T BraDBF=F KetDBF=T FulRan=T
         wScrn=  0.000000 ICntrl=       500 IOpCl=  0 I1Cent=   200000004 NGrid=           0
         NMat0=    1 NMatS0=      1 NMatT0=    0 NMatD0=    1 NMtDS0=    0 NMtDT0=    0
 Petite list used in FoFCou.
 Initial guess <Sx>= 0.0000 <Sy>= 0.0000 <Sz>= 0.5000 <S**2>= 0.7500 S= 0.5000
 Requested convergence on RMS density matrix=1.00D-08 within 128 cycles.
 Requested convergence on MAX density matrix=1.00D-06.
 Requested convergence on             energy=1.00D-06.
 No special actions if energy rises.
 Initial convergence to 1.0D-05 achieved.  Increase integral accuracy.
 Restarting incremental Fock formation.
 SCF Done:  E(UHF) =  -417.978257917     A.U. after   33 cycles
            NFock= 33  Conv=0.68D-08     -V/T= 2.0006
 <Sx>= 0.0000 <Sy>= 0.0000 <Sz>= 0.5000 <S**2>= 0.7653 S= 0.5076
 <L.S>=  0.00000000000    
 Annihilation of the first spin contaminant:
 S**2 before annihilation     0.7653,   after     0.7502
 ExpMin= 3.60D-02 ExpMax= 8.59D+03 ExpMxC= 1.30D+03 IAcc=3 IRadAn=         5 AccDes= 0.00D+00
 HarFok:  IExCor=  205 AccDes= 0.00D+00 IRadAn=         5 IDoV=-2 UseB2=F ITyADJ=14
 ICtDFT= 12500011 ScaDFX=  1.000000  1.000000  1.000000  1.000000
 Range of M.O.s used for correlation:     9   224
 NBasis=   225 NAE=    31 NBE=    30 NFC=     8 NFV=     0
 NROrb=    216 NOA=    23 NOB=    22 NVA=   193 NVB=   194

 **** Warning!!: The largest alpha MO coefficient is  0.15487043D+03


 **** Warning!!: The largest beta MO coefficient is  0.17820781D+03

 Semi-Direct transformation.
 ModeAB=           4 MOrb=            23 LenV=    1609186555
 LASXX=    107793295 LTotXX=   107793295 LenRXX=   218294035
 LTotAB=   110500740 MaxLAS=   126023256 LenRXY=           0
 NonZer=   326087330 LenScr=   491049984 LnRSAI=   126023256
 LnScr1=   189790720 LExtra=           0 Total=   1025157995
 MaxDsk=          -1 SrtSym=           T ITran=            4
 JobTyp=1 Pass  1:  I=   1 to  23.
 (rs|ai) integrals will be sorted in core.
 ModeAB=           4 MOrb=            22 LenV=    1609186555
 LASXX=    103454307 LTotXX=   103454307 LenRXX=   188091948
 LTotAB=    84637641 MaxLAS=   120543984 LenRXY=           0
 NonZer=   291546255 LenScr=   439034880 LnRSAI=   120543984
 LnScr1=   181568512 LExtra=           0 Total=    929239324
 MaxDsk=          -1 SrtSym=           T ITran=            4
 JobTyp=2 Pass  1:  I=   1 to  22.
 (rs|ai) integrals will be sorted in core.
 SymMOI:  orbitals are not symmetric.
 Spin components of T(2) and E(2):
     alpha-alpha T2 =       0.5274757889D-01 E2=     -0.1707651991D+00
     alpha-beta  T2 =       0.2902642588D+00 E2=     -0.9426337240D+00
     beta-beta   T2 =       0.5085582923D-01 E2=     -0.1576680662D+00
 ANorm=    0.1180621729D+01
 E2 =    -0.1271066989D+01 EUMP2 =    -0.41924932490660D+03
 (S**2,0)=  0.76526D+00           (S**2,1)=  0.75446D+00
 E(PUHF)=      -0.41798294405D+03        E(PMP2)=      -0.41925236342D+03
 Keep R2 and R3 ints in memory in canonical form, NReq=652883968.
 CIDS: In Core Option IDoMem=           1.
 Iterations=  50 Convergence= 0.100D-06
 Produce multiple copies of IABC intergrals
 Iteration Nr.   1
 **********************
 DD1Dir will call FoFMem   1 times, MxPair=      1496
 NAB=   506 NAA=   253 NBB=   231.
 E(PMP3)=      -0.41927609696D+03
 MP4(R+Q)=  0.25455110D-01
 E3=       -0.24910842D-01        EUMP3=      -0.41927423575D+03
 E4(DQ)=   -0.56940734D-02        UMP4(DQ)=   -0.41927992982D+03
 E4(SDQ)=  -0.24581573D-01        UMP4(SDQ)=  -0.41929881732D+03
 DE(Corr)=  -1.2698123     E(Corr)=     -419.24807018    
 NORM(A)=   0.11859282D+01
 Iteration Nr.   2
 **********************
 DD1Dir will call FoFMem   1 times, MxPair=      1496
 NAB=   506 NAA=   253 NBB=   231.
 DE(Corr)=  -1.3121188     E(CORR)=     -419.29037674     Delta=-4.23D-02
 NORM(A)=   0.12035760D+01
 Iteration Nr.   3
 **********************
 DD1Dir will call FoFMem   1 times, MxPair=      1496
 NAB=   506 NAA=   253 NBB=   231.
 DE(Corr)=  -1.3135047     E(CORR)=     -419.29176266     Delta=-1.39D-03
 NORM(A)=   0.12096898D+01
 Iteration Nr.   4
 **********************
 DD1Dir will call FoFMem   1 times, MxPair=      1496
 NAB=   506 NAA=   253 NBB=   231.
 DE(Corr)=  -1.3183603     E(CORR)=     -419.29661826     Delta=-4.86D-03
 NORM(A)=   0.12122319D+01
 Iteration Nr.   5
 **********************
 DD1Dir will call FoFMem   1 times, MxPair=      1496
 NAB=   506 NAA=   253 NBB=   231.
 DE(Corr)=  -1.3191903     E(CORR)=     -419.29744817     Delta=-8.30D-04
 NORM(A)=   0.12135924D+01
 Iteration Nr.   6
 **********************
 DD1Dir will call FoFMem   1 times, MxPair=      1496
 NAB=   506 NAA=   253 NBB=   231.
 DE(Corr)=  -1.3194200     E(CORR)=     -419.29767797     Delta=-2.30D-04
 NORM(A)=   0.12139022D+01
 Iteration Nr.   7
 **********************
 DD1Dir will call FoFMem   1 times, MxPair=      1496
 NAB=   506 NAA=   253 NBB=   231.
 DE(Corr)=  -1.3194700     E(CORR)=     -419.29772788     Delta=-4.99D-05
 NORM(A)=   0.12139734D+01
 Iteration Nr.   8
 **********************
 DD1Dir will call FoFMem   1 times, MxPair=      1496
 NAB=   506 NAA=   253 NBB=   231.
 DE(Corr)=  -1.3194566     E(CORR)=     -419.29771455     Delta= 1.33D-05
 NORM(A)=   0.12140147D+01
 Iteration Nr.   9
 **********************
 DD1Dir will call FoFMem   1 times, MxPair=      1496
 NAB=   506 NAA=   253 NBB=   231.
 DE(Corr)=  -1.3194681     E(CORR)=     -419.29772601     Delta=-1.15D-05
 NORM(A)=   0.12140233D+01
 Iteration Nr.  10
 **********************
 DD1Dir will call FoFMem   1 times, MxPair=      1496
 NAB=   506 NAA=   253 NBB=   231.
 DE(Corr)=  -1.3194694     E(CORR)=     -419.29772731     Delta=-1.30D-06
 NORM(A)=   0.12140335D+01
 Iteration Nr.  11
 **********************
 DD1Dir will call FoFMem   1 times, MxPair=      1496
 NAB=   506 NAA=   253 NBB=   231.
 DE(Corr)=  -1.3194777     E(CORR)=     -419.29773561     Delta=-8.31D-06
 NORM(A)=   0.12140424D+01
 Iteration Nr.  12
 **********************
 DD1Dir will call FoFMem   1 times, MxPair=      1496
 NAB=   506 NAA=   253 NBB=   231.
 DE(Corr)=  -1.3194790     E(CORR)=     -419.29773692     Delta=-1.31D-06
 NORM(A)=   0.12140493D+01
 Iteration Nr.  13
 **********************
 DD1Dir will call FoFMem   1 times, MxPair=      1496
 NAB=   506 NAA=   253 NBB=   231.
 DE(Corr)=  -1.3194815     E(CORR)=     -419.29773943     Delta=-2.50D-06
 NORM(A)=   0.12140544D+01
 Iteration Nr.  14
 **********************
 DD1Dir will call FoFMem   1 times, MxPair=      1496
 NAB=   506 NAA=   253 NBB=   231.
 DE(Corr)=  -1.3194824     E(CORR)=     -419.29774036     Delta=-9.34D-07
 NORM(A)=   0.12140583D+01
 Iteration Nr.  15
 **********************
 DD1Dir will call FoFMem   1 times, MxPair=      1496
 NAB=   506 NAA=   253 NBB=   231.
 DE(Corr)=  -1.3194826     E(CORR)=     -419.29774049     Delta=-1.32D-07
 NORM(A)=   0.12140622D+01
 Iteration Nr.  16
 **********************
 DD1Dir will call FoFMem   1 times, MxPair=      1496
 NAB=   506 NAA=   253 NBB=   231.
 DE(Corr)=  -1.3194837     E(CORR)=     -419.29774165     Delta=-1.16D-06
 NORM(A)=   0.12140647D+01
 Iteration Nr.  17
 **********************
 DD1Dir will call FoFMem   1 times, MxPair=      1496
 NAB=   506 NAA=   253 NBB=   231.
 DE(Corr)=  -1.3194834     E(CORR)=     -419.29774135     Delta= 2.98D-07
 NORM(A)=   0.12140653D+01
 Iteration Nr.  18
 **********************
 DD1Dir will call FoFMem   1 times, MxPair=      1496
 NAB=   506 NAA=   253 NBB=   231.
 DE(Corr)=  -1.3194841     E(CORR)=     -419.29774197     Delta=-6.18D-07
 NORM(A)=   0.12140643D+01
 Iteration Nr.  19
 **********************
 DD1Dir will call FoFMem   1 times, MxPair=      1496
 NAB=   506 NAA=   253 NBB=   231.
 DE(Corr)=  -1.3194837     E(CORR)=     -419.29774159     Delta= 3.78D-07
 NORM(A)=   0.12140632D+01
 Iteration Nr.  20
 **********************
 DD1Dir will call FoFMem   1 times, MxPair=      1496
 NAB=   506 NAA=   253 NBB=   231.
 DE(Corr)=  -1.3194834     E(CORR)=     -419.29774136     Delta= 2.35D-07
 NORM(A)=   0.12140622D+01
 Iteration Nr.  21
 **********************
 DD1Dir will call FoFMem   1 times, MxPair=      1496
 NAB=   506 NAA=   253 NBB=   231.
 DE(Corr)=  -1.3194832     E(CORR)=     -419.29774116     Delta= 2.00D-07
 NORM(A)=   0.12140616D+01
 Iteration Nr.  22
 **********************
 DD1Dir will call FoFMem   1 times, MxPair=      1496
 NAB=   506 NAA=   253 NBB=   231.
 DE(Corr)=  -1.3194830     E(CORR)=     -419.29774094     Delta= 2.18D-07
 NORM(A)=   0.12140614D+01
 Iteration Nr.  23
 **********************
 DD1Dir will call FoFMem   1 times, MxPair=      1496
 NAB=   506 NAA=   253 NBB=   231.
 DE(Corr)=  -1.3194830     E(CORR)=     -419.29774093     Delta= 7.90D-09
 NORM(A)=   0.12140615D+01
 Wavefunction amplitudes converged. E(Corr)=     -419.29774093    
 Largest amplitude= 3.32D-02
 Time for triples=    36085.44 seconds.
 T4(CCSD)= -0.56629766D-01
 T5(CCSD)=  0.35467068D-02
 CCSD(T)= -0.41935082399D+03

 S**2, projected HF & approx projected MPn energies after annihilation of
 unwanted spin states (see manual for definitions):

 spins       (S**2,0) (S**2,1)    PUHF        PMP2        PMP3        PMP4
 annihilated
 s+1         0.74991  0.75004 -417.982944 -419.252363 -419.276097
 s+1,s+2     0.75000  0.75000 -417.982921 -419.252342 -419.276078
 s+1 to s+3  0.75000  0.75000 -417.982921 -419.252342 -419.276078
 s+1 to s+4  0.75000  0.75000 -417.982921 -419.252343 -419.276080
 s+1 to s+5  0.75000  0.75000 -417.982921
 s+1 to s+6  0.75000  0.75000 -417.982921

 Discarding MO integrals.

 **********************************************************************

            Population analysis using the SCF density.

 **********************************************************************

 Orbital symmetries:
 Alpha Orbitals:
       Occupied  (A) (A) (A) (A) (A) (A) (A) (A) (A) (A) (A) (A)
                 (A) (A) (A) (A) (A) (A) (A) (A) (A) (A) (A) (A)
                 (A) (A) (A) (A) (A) (A) (A)
       Virtual   (A) (A) (A) (A) (A) (A) (A) (A) (A) (A) (A) (A)
                 (A) (A) (A) (A) (A) (A) (A) (A) (A) (A) (A) (A)
                 (A) (A) (A) (A) (A) (A) (A) (A) (A) (A) (A) (A)
                 (A) (A) (A) (A) (A) (A) (A) (A) (A) (A) (A) (A)
                 (A) (A) (A) (A) (A) (A) (A) (A) (A) (A) (A) (A)
                 (A) (A) (A) (A) (A) (A) (A) (A) (A) (A) (A) (A)
                 (A) (A) (A) (A) (A) (A) (A) (A) (A) (A) (A) (A)
                 (A) (A) (A) (A) (A) (A) (A) (A) (A) (A) (A) (A)
                 (A) (A) (A) (A) (A) (A) (A) (A) (A) (A) (A) (A)
                 (A) (A) (A) (A) (A) (A) (A) (A) (A) (A) (A) (A)
                 (A) (A) (A) (A) (A) (A) (A) (A) (A) (A) (A) (A)
                 (A) (A) (A) (A) (A) (A) (A) (A) (A) (A) (A) (A)
                 (A) (A) (A) (A) (A) (A) (A) (A) (A) (A) (A) (A)
                 (A) (A) (A) (A) (A) (A) (A) (A) (A) (A) (A) (A)
                 (A) (A) (A) (A) (A) (A) (A) (A) (A) (A) (A) (A)
                 (A) (A) (A) (A) (A) (A) (A) (A) (A) (A) (A) (A)
                 (A)
 Beta  Orbitals:
       Occupied  (A) (A) (A) (A) (A) (A) (A) (A) (A) (A) (A) (A)
                 (A) (A) (A) (A) (A) (A) (A) (A) (A) (A) (A) (A)
                 (A) (A) (A) (A) (A) (A)
       Virtual   (A) (A) (A) (A) (A) (A) (A) (A) (A) (A) (A) (A)
                 (A) (A) (A) (A) (A) (A) (A) (A) (A) (A) (A) (A)
                 (A) (A) (A) (A) (A) (A) (A) (A) (A) (A) (A) (A)
                 (A) (A) (A) (A) (A) (A) (A) (A) (A) (A) (A) (A)
                 (A) (A) (A) (A) (A) (A) (A) (A) (A) (A) (A) (A)
                 (A) (A) (A) (A) (A) (A) (A) (A) (A) (A) (A) (A)
                 (A) (A) (A) (A) (A) (A) (A) (A) (A) (A) (A) (A)
                 (A) (A) (A) (A) (A) (A) (A) (A) (A) (A) (A) (A)
                 (A) (A) (A) (A) (A) (A) (A) (A) (A) (A) (A) (A)
                 (A) (A) (A) (A) (A) (A) (A) (A) (A) (A) (A) (A)
                 (A) (A) (A) (A) (A) (A) (A) (A) (A) (A) (A) (A)
                 (A) (A) (A) (A) (A) (A) (A) (A) (A) (A) (A) (A)
                 (A) (A) (A) (A) (A) (A) (A) (A) (A) (A) (A) (A)
                 (A) (A) (A) (A) (A) (A) (A) (A) (A) (A) (A) (A)
                 (A) (A) (A) (A) (A) (A) (A) (A) (A) (A) (A) (A)
                 (A) (A) (A) (A) (A) (A) (A) (A) (A) (A) (A) (A)
                 (A) (A)
 The electronic state is 2-A.
 Alpha  occ. eigenvalues --  -20.63124 -20.62732 -20.57309 -11.42633 -11.30336
 Alpha  occ. eigenvalues --  -11.27656 -11.26886 -11.23140  -1.49429  -1.39700
 Alpha  occ. eigenvalues --   -1.39116  -1.08931  -1.05256  -0.93032  -0.84585
 Alpha  occ. eigenvalues --   -0.78435  -0.73654  -0.72267  -0.70514  -0.69447
 Alpha  occ. eigenvalues --   -0.67092  -0.60822  -0.59020  -0.56048  -0.55942
 Alpha  occ. eigenvalues --   -0.53317  -0.49782  -0.49246  -0.46556  -0.43556
 Alpha  occ. eigenvalues --   -0.43515
 Alpha virt. eigenvalues --    0.03464   0.04547   0.06317   0.06589   0.07071
 Alpha virt. eigenvalues --    0.07630   0.09171   0.10013   0.10938   0.11543
 Alpha virt. eigenvalues --    0.12388   0.13809   0.14765   0.15551   0.16353
 Alpha virt. eigenvalues --    0.17284   0.17410   0.18530   0.19420   0.19710
 Alpha virt. eigenvalues --    0.20604   0.20696   0.21575   0.22516   0.23099
 Alpha virt. eigenvalues --    0.23776   0.25053   0.27968   0.28620   0.29291
 Alpha virt. eigenvalues --    0.29997   0.31029   0.31722   0.34412   0.34616
 Alpha virt. eigenvalues --    0.35222   0.35479   0.36663   0.37997   0.38915
 Alpha virt. eigenvalues --    0.40604   0.41147   0.41841   0.43364   0.44439
 Alpha virt. eigenvalues --    0.45041   0.46721   0.47849   0.49273   0.50040
 Alpha virt. eigenvalues --    0.54533   0.56765   0.57966   0.58870   0.62874
 Alpha virt. eigenvalues --    0.66064   0.68426   0.70000   0.71537   0.73417
 Alpha virt. eigenvalues --    0.75418   0.79908   0.81744   0.83505   0.84487
 Alpha virt. eigenvalues --    0.84959   0.85703   0.87006   0.88005   0.89772
 Alpha virt. eigenvalues --    0.90682   0.91443   0.96203   0.96950   1.00625
 Alpha virt. eigenvalues --    1.06558   1.08576   1.14651   1.19950   1.25273
 Alpha virt. eigenvalues --    1.25778   1.27016   1.28626   1.29143   1.30866
 Alpha virt. eigenvalues --    1.32471   1.35961   1.36604   1.38245   1.40515
 Alpha virt. eigenvalues --    1.41254   1.41683   1.47734   1.48960   1.50558
 Alpha virt. eigenvalues --    1.52115   1.55396   1.58457   1.62996   1.63934
 Alpha virt. eigenvalues --    1.66777   1.70251   1.76915   1.77230   1.80937
 Alpha virt. eigenvalues --    1.83374   1.83840   1.83962   1.86361   1.89002
 Alpha virt. eigenvalues --    1.90968   1.91893   1.94001   1.97499   2.00799
 Alpha virt. eigenvalues --    2.02802   2.08609   2.09480   2.13097   2.16794
 Alpha virt. eigenvalues --    2.19421   2.25986   2.28924   2.32914   2.35232
 Alpha virt. eigenvalues --    2.40690   2.43054   2.48466   2.57082   2.61459
 Alpha virt. eigenvalues --    2.69184   2.71637   2.79818   2.80416   2.83875
 Alpha virt. eigenvalues --    2.86119   2.90144   2.91542   2.93526   2.94873
 Alpha virt. eigenvalues --    2.95484   2.99450   3.00229   3.05118   3.12917
 Alpha virt. eigenvalues --    3.13577   3.16613   3.17809   3.21821   3.28050
 Alpha virt. eigenvalues --    3.30290   3.35806   3.36199   3.39244   3.43057
 Alpha virt. eigenvalues --    3.45449   3.46507   3.48327   3.54924   3.59692
 Alpha virt. eigenvalues --    3.63849   3.67684   3.70201   3.74873   3.77342
 Alpha virt. eigenvalues --    3.91912   4.02455   4.10970   4.14340   4.20658
 Alpha virt. eigenvalues --    4.23946   4.30535   4.43707   4.51412   4.53991
 Alpha virt. eigenvalues --    4.70635   5.50042   5.55282   5.61008   5.62580
 Alpha virt. eigenvalues --    5.76003   5.90764   6.01273   6.19886   6.41586
 Alpha virt. eigenvalues --   24.68685  24.99574  25.01715  25.13667  26.28681
 Alpha virt. eigenvalues --   51.51218  51.58826  51.70313
  Beta  occ. eigenvalues --  -20.62729 -20.59145 -20.57311 -11.42633 -11.30387
  Beta  occ. eigenvalues --  -11.27655 -11.26887 -11.22490  -1.49422  -1.39331
  Beta  occ. eigenvalues --   -1.24810  -1.08772  -1.04552  -0.92237  -0.83760
  Beta  occ. eigenvalues --   -0.78381  -0.73624  -0.70487  -0.70110  -0.65201
  Beta  occ. eigenvalues --   -0.60761  -0.59043  -0.56090  -0.53287  -0.51540
  Beta  occ. eigenvalues --   -0.50872  -0.49332  -0.47951  -0.43568  -0.43517
  Beta virt. eigenvalues --    0.03440   0.04537   0.05404   0.06348   0.07071
  Beta virt. eigenvalues --    0.07585   0.08428   0.09508   0.10546   0.11338
  Beta virt. eigenvalues --    0.11748   0.12578   0.13918   0.14820   0.15632
  Beta virt. eigenvalues --    0.16426   0.17297   0.17464   0.18604   0.19556
  Beta virt. eigenvalues --    0.19840   0.20711   0.20867   0.21641   0.22542
  Beta virt. eigenvalues --    0.23129   0.23833   0.25236   0.28391   0.28754
  Beta virt. eigenvalues --    0.29574   0.30274   0.31370   0.32151   0.34472
  Beta virt. eigenvalues --    0.34920   0.35664   0.36119   0.37289   0.38286
  Beta virt. eigenvalues --    0.39129   0.40635   0.41221   0.41959   0.43563
  Beta virt. eigenvalues --    0.45015   0.45091   0.46941   0.48006   0.50195
  Beta virt. eigenvalues --    0.52639   0.54672   0.56827   0.58072   0.58887
  Beta virt. eigenvalues --    0.62905   0.66258   0.68581   0.70175   0.71817
  Beta virt. eigenvalues --    0.73657   0.75624   0.80087   0.81818   0.83597
  Beta virt. eigenvalues --    0.84561   0.85753   0.86956   0.87486   0.88414
  Beta virt. eigenvalues --    0.89863   0.91062   0.91681   0.96230   0.97262
  Beta virt. eigenvalues --    1.00651   1.06746   1.08660   1.15540   1.20151
  Beta virt. eigenvalues --    1.25888   1.26933   1.27552   1.29143   1.30345
  Beta virt. eigenvalues --    1.32343   1.35211   1.36419   1.37073   1.39614
  Beta virt. eigenvalues --    1.40692   1.41683   1.44104   1.48068   1.49016
  Beta virt. eigenvalues --    1.50809   1.52636   1.55525   1.58693   1.63458
  Beta virt. eigenvalues --    1.64332   1.67971   1.71117   1.77338   1.78771
  Beta virt. eigenvalues --    1.81021   1.83786   1.83926   1.84443   1.86440
  Beta virt. eigenvalues --    1.89227   1.91135   1.92158   1.94186   1.98797
  Beta virt. eigenvalues --    2.01033   2.03661   2.08690   2.09520   2.13352
  Beta virt. eigenvalues --    2.16854   2.19571   2.26069   2.29932   2.33499
  Beta virt. eigenvalues --    2.35714   2.40833   2.43827   2.48859   2.57418
  Beta virt. eigenvalues --    2.62331   2.70213   2.72802   2.79948   2.80383
  Beta virt. eigenvalues --    2.83941   2.86320   2.90180   2.91598   2.93565
  Beta virt. eigenvalues --    2.95032   2.95719   2.99931   3.00687   3.05156
  Beta virt. eigenvalues --    3.13141   3.13582   3.17241   3.21195   3.27908
  Beta virt. eigenvalues --    3.28212   3.30507   3.35910   3.36260   3.39300
  Beta virt. eigenvalues --    3.43901   3.46416   3.49349   3.54269   3.55634
  Beta virt. eigenvalues --    3.59750   3.64489   3.68327   3.70532   3.77311
  Beta virt. eigenvalues --    3.80212   3.91930   4.02466   4.11068   4.15746
  Beta virt. eigenvalues --    4.20783   4.24389   4.34168   4.43739   4.51435
  Beta virt. eigenvalues --    4.54136   4.71124   5.52503   5.55927   5.61117
  Beta virt. eigenvalues --    5.73467   5.76069   5.90790   6.03803   6.19894
  Beta virt. eigenvalues --    6.41588  24.68685  24.99570  25.01706  25.14120
  Beta virt. eigenvalues --   26.28681  51.53493  51.58846  51.70312
          Condensed to atoms (all electrons):
               1          2          3          4          5          6
     1  C    6.268368   0.467385  -1.432889   1.488255  -0.097991  -0.136746
     2  H    0.467385   0.396945  -0.122888   0.047011  -0.003476  -0.006578
     3  C   -1.432889  -0.122888  10.150832  -3.367806   0.130463  -0.083573
     4  C    1.488255   0.047011  -3.367806   7.949995   0.393851  -0.042905
     5  O   -0.097991  -0.003476   0.130463   0.393851   8.025953  -0.098329
     6  O   -0.136746  -0.006578  -0.083573  -0.042905  -0.098329   8.531387
     7  C    0.061978  -0.000551  -0.435681  -0.030696  -0.061741   0.229286
     8  C    0.035482   0.001571  -0.105411   0.132031   0.028304  -0.180612
     9  H   -0.003305  -0.000175   0.004658  -0.014005  -0.013312  -0.043468
    10  H   -0.000051  -0.000161  -0.009674   0.004486  -0.010056  -0.032050
    11  H   -0.001169  -0.000058   0.005531  -0.004677  -0.001735  -0.008119
    12  H   -0.001162   0.000092   0.009866   0.008427  -0.000414  -0.001280
    13  H   -0.000947  -0.000028   0.004046  -0.001360   0.001732   0.021303
    14  O    0.000331  -0.000018  -0.007068  -0.002392  -0.000390  -0.007240
    15  H   -0.002041  -0.000415   0.013549  -0.006620   0.000162   0.002308
               7          8          9         10         11         12
     1  C    0.061978   0.035482  -0.003305  -0.000051  -0.001169  -0.001162
     2  H   -0.000551   0.001571  -0.000175  -0.000161  -0.000058   0.000092
     3  C   -0.435681  -0.105411   0.004658  -0.009674   0.005531   0.009866
     4  C   -0.030696   0.132031  -0.014005   0.004486  -0.004677   0.008427
     5  O   -0.061741   0.028304  -0.013312  -0.010056  -0.001735  -0.000414
     6  O    0.229286  -0.180612  -0.043468  -0.032050  -0.008119  -0.001280
     7  C    5.652405  -0.115025   0.472918   0.417660   0.004496  -0.083677
     8  C   -0.115025   5.858496  -0.072529  -0.031039   0.343372   0.378544
     9  H    0.472918  -0.072529   0.507753  -0.039643   0.004729  -0.006737
    10  H    0.417660  -0.031039  -0.039643   0.533479  -0.007216   0.007731
    11  H    0.004496   0.343372   0.004729  -0.007216   0.581615  -0.041602
    12  H   -0.083677   0.378544  -0.006737   0.007731  -0.041602   0.621835
    13  H   -0.033676   0.401900  -0.003867  -0.006900  -0.030167  -0.044721
    14  O   -0.006240  -0.000696  -0.009398   0.002168  -0.007967  -0.042922
    15  H    0.013377   0.017429   0.001980  -0.000674  -0.001585  -0.032038
              13         14         15
     1  C   -0.000947   0.000331  -0.002041
     2  H   -0.000028  -0.000018  -0.000415
     3  C    0.004046  -0.007068   0.013549
     4  C   -0.001360  -0.002392  -0.006620
     5  O    0.001732  -0.000390   0.000162
     6  O    0.021303  -0.007240   0.002308
     7  C   -0.033676  -0.006240   0.013377
     8  C    0.401900  -0.000696   0.017429
     9  H   -0.003867  -0.009398   0.001980
    10  H   -0.006900   0.002168  -0.000674
    11  H   -0.030167  -0.007967  -0.001585
    12  H   -0.044721  -0.042922  -0.032038
    13  H    0.536187   0.001813   0.002690
    14  O    0.001813   8.017735   0.293413
    15  H    0.002690   0.293413   0.453514
          Atomic-Atomic Spin Densities.
               1          2          3          4          5          6
     1  C    0.007038   0.000710  -0.017235   0.010212   0.000127  -0.000223
     2  H    0.000710   0.000243  -0.001960   0.000972   0.000015  -0.000033
     3  C   -0.017235  -0.001960   0.043878  -0.026188  -0.000116   0.000749
     4  C    0.010212   0.000972  -0.026188   0.013236   0.000558   0.000756
     5  O    0.000127   0.000015  -0.000116   0.000558  -0.000654   0.000175
     6  O   -0.000223  -0.000033   0.000749   0.000756   0.000175   0.001559
     7  C   -0.001272  -0.000031   0.008314  -0.001067  -0.000290   0.000017
     8  C    0.002608   0.000127  -0.010320   0.004431  -0.000214  -0.002374
     9  H   -0.000073   0.000006   0.000107  -0.000434   0.000181   0.000808
    10  H    0.000239   0.000002  -0.001572  -0.001203  -0.000077  -0.001781
    11  H   -0.000255  -0.000001   0.001376   0.000133   0.000031   0.000737
    12  H   -0.000310  -0.000081  -0.001279  -0.001530  -0.000149  -0.007604
    13  H   -0.000010   0.000002   0.000155   0.000311   0.000037   0.000971
    14  O    0.000183   0.000026   0.000291   0.001170   0.000178   0.004772
    15  H   -0.001308  -0.000117   0.003225  -0.001855  -0.000129  -0.000160
               7          8          9         10         11         12
     1  C   -0.001272   0.002608  -0.000073   0.000239  -0.000255  -0.000310
     2  H   -0.000031   0.000127   0.000006   0.000002  -0.000001  -0.000081
     3  C    0.008314  -0.010320   0.000107  -0.001572   0.001376  -0.001279
     4  C   -0.001067   0.004431  -0.000434  -0.001203   0.000133  -0.001530
     5  O   -0.000290  -0.000214   0.000181  -0.000077   0.000031  -0.000149
     6  O    0.000017  -0.002374   0.000808  -0.001781   0.000737  -0.007604
     7  C   -0.015574  -0.036857   0.004267   0.005076   0.000564   0.015800
     8  C   -0.036857   0.313735  -0.004654   0.000885  -0.014480   0.021530
     9  H    0.004267  -0.004654   0.003243  -0.001697   0.000916  -0.003605
    10  H    0.005076   0.000885  -0.001697   0.007759  -0.000560  -0.000504
    11  H    0.000564  -0.014480   0.000916  -0.000560  -0.013491   0.009517
    12  H    0.015800   0.021530  -0.003605  -0.000504   0.009517  -0.091985
    13  H    0.002357  -0.013366  -0.000036  -0.000518   0.001425   0.003059
    14  O   -0.006822  -0.026533   0.002034   0.000092  -0.000028  -0.029849
    15  H    0.002948  -0.002704  -0.000465   0.000251  -0.000209   0.007334
              13         14         15
     1  C   -0.000010   0.000183  -0.001308
     2  H    0.000002   0.000026  -0.000117
     3  C    0.000155   0.000291   0.003225
     4  C    0.000311   0.001170  -0.001855
     5  O    0.000037   0.000178  -0.000129
     6  O    0.000971   0.004772  -0.000160
     7  C    0.002357  -0.006822   0.002948
     8  C   -0.013366  -0.026533  -0.002704
     9  H   -0.000036   0.002034  -0.000465
    10  H   -0.000518   0.000092   0.000251
    11  H    0.001425  -0.000028  -0.000209
    12  H    0.003059  -0.029849   0.007334
    13  H   -0.004793   0.003271  -0.000530
    14  O    0.003271   0.963031   0.003583
    15  H   -0.000530   0.003583  -0.037133
 Mulliken charges and spin densities:
               1          2
     1  C   -0.645499   0.000433
     2  H    0.221343  -0.000120
     3  C    1.246044  -0.000574
     4  C   -0.553595  -0.000496
     5  O   -0.293022  -0.000326
     6  O   -0.143383  -0.001633
     7  C   -0.084834  -0.022571
     8  C   -0.691817   0.231815
     9  H    0.214401   0.000600
    10  H    0.171937   0.006393
    11  H    0.164551  -0.014326
    12  H    0.228059  -0.079657
    13  H    0.151993  -0.007665
    14  O   -0.231129   0.915397
    15  H    0.244951  -0.027270
 Sum of Mulliken charges =  -0.00000   1.00000
 Mulliken charges and spin densities with hydrogens summed into heavy atoms:
               1          2
     1  C   -0.424156   0.000313
     3  C    1.246044  -0.000574
     4  C   -0.553595  -0.000496
     5  O   -0.293022  -0.000326
     6  O   -0.143383  -0.001633
     7  C    0.301504  -0.015578
     8  C   -0.147214   0.130166
    14  O    0.013822   0.888128
 Electronic spatial extent (au):  <R**2>=           1259.9795
 Charge=             -0.0000 electrons
 Dipole moment (field-independent basis, Debye):
    X=              0.6066    Y=              1.3644    Z=              1.2973  Tot=              1.9780
 Quadrupole moment (field-independent basis, Debye-Ang):
   XX=            -45.3513   YY=            -48.5865   ZZ=            -48.9376
   XY=             14.2108   XZ=              1.0139   YZ=             -0.9035
 Traceless Quadrupole moment (field-independent basis, Debye-Ang):
   XX=              2.2738   YY=             -0.9613   ZZ=             -1.3125
   XY=             14.2108   XZ=              1.0139   YZ=             -0.9035
 Octapole moment (field-independent basis, Debye-Ang**2):
  XXX=             25.6080  YYY=             13.0323  ZZZ=             -2.7728  XYY=              7.5250
  XXY=             14.5102  XXZ=             11.4780  XZZ=             -4.7418  YZZ=             -1.2344
  YYZ=              4.8694  XYZ=             -2.4918
 Hexadecapole moment (field-independent basis, Debye-Ang**3):
 XXXX=          -1035.8165 YYYY=           -402.8332 ZZZZ=           -106.3864 XXXY=            131.8830
 XXXZ=             19.9606 YYYX=             36.3883 YYYZ=             -7.2568 ZZZX=             -2.4013
 ZZZY=             -0.6796 XXYY=           -233.4796 XXZZ=           -218.6731 YYZZ=            -88.5580
 XXYZ=             18.3554 YYXZ=             11.7833 ZZXY=             -3.8881
 N-N= 3.477345898355D+02 E-N=-1.678046601637D+03  KE= 4.177105097287D+02
 1\1\GINC-AJ\SP\UCCSD(T)-FC\6-311++G(d,p)\C5H7O3(2)\AAYUSH\21-Apr-2025\
 0\\# ccsd(t)/6-311++g(d,p) sp\\Title Card Required\\0,2\C,0,2.914474,1
 .311589,0.319157\H,0,3.677671,2.0383,0.473761\C,0,2.058162,0.492137,0.
 144559\C,0,1.050417,-0.530453,-0.093321\O,0,1.279737,-1.610703,-0.5554
 99\O,0,-0.16394,-0.099976,0.270586\C,0,-1.244212,-1.031511,0.04942\C,0
 ,-2.491111,-0.394755,0.597779\H,0,-1.318005,-1.223469,-1.022908\H,0,-1
 .001819,-1.970353,0.551911\H,0,-2.423021,-0.189916,1.665804\H,0,-2.672
 021,0.589771,0.082857\H,0,-3.376133,-0.991063,0.373866\O,0,-2.298254,1
 .820406,-0.59153\H,0,-1.360121,1.825036,-0.330857\\Version=ES64L-G16Re
 vA.03\State=2-A\HF=-417.9782579\MP2=-419.2493249\MP3=-419.2742357\MP4D
 =-419.3053849\MP4DQ=-419.2799298\PUHF=-417.982944\PMP2-0=-419.2523634\
 PMP3-0=-419.276097\MP4SDQ=-419.2988173\CCSD=-419.2977409\CCSD(T)=-419.
 350824\S2=0.765257\S2-1=0.754463\S2A=0.750155\RMSD=6.827e-09\PG=C01 [X
 (C5H7O3)]\\@


 "MATHEMATICS IS THE ART OF GIVING THE SAME NAME
 TO DIFFERENT THINGS."
                    - H. POINCARE
 Job cpu time:       0 days 18 hours 33 minutes 36.8 seconds.
 Elapsed time:       0 days  0 hours 46 minutes 38.0 seconds.
 File lengths (MBytes):  RWF=  44258 Int=      0 D2E=      0 Chk=      5 Scr=      1
 Normal termination of Gaussian 16 at Mon Apr 21 08:58:47 2025.
