 Entering Gaussian System, Link 0=g16
 Initial command:
 /opt/g16/l1.exe "/home/aayush/scratches/g16/Gau-4704.inp" -scrdir="/home/aayush/scratches/g16/"
 Entering Link 1 = /opt/g16/l1.exe PID=      4707.
  
 Copyright (c) 1988,1990,1992,1993,1995,1998,2003,2009,2016,
            Gaussian, Inc.  All Rights Reserved.
  
 This is part of the Gaussian(R) 16 program.  It is based on
 the Gaussian(R) 09 system (copyright 2009, Gaussian, Inc.),
 the Gaussian(R) 03 system (copyright 2003, Gaussian, Inc.),
 the Gaussian(R) 98 system (copyright 1998, Gaussian, Inc.),
 the Gaussian(R) 94 system (copyright 1995, Gaussian, Inc.),
 the Gaussian 92(TM) system (copyright 1992, Gaussian, Inc.),
 the Gaussian 90(TM) system (copyright 1990, Gaussian, Inc.),
 the Gaussian 88(TM) system (copyright 1988, Gaussian, Inc.),
 the Gaussian 86(TM) system (copyright 1986, Carnegie Mellon
 University), and the Gaussian 82(TM) system (copyright 1983,
 Carnegie Mellon University). Gaussian is a federally registered
 trademark of Gaussian, Inc.
  
 This software contains proprietary and confidential information,
 including trade secrets, belonging to Gaussian, Inc.
  
 This software is provided under written license and may be
 used, copied, transmitted, or stored only in accord with that
 written license.
  
 The following legend is applicable only to US Government
 contracts under FAR:
  
                    RESTRICTED RIGHTS LEGEND
  
 Use, reproduction and disclosure by the US Government is
 subject to restrictions as set forth in subparagraphs (a)
 and (c) of the Commercial Computer Software - Restricted
 Rights clause in FAR 52.227-19.
  
 Gaussian, Inc.
 340 Quinnipiac St., Bldg. 40, Wallingford CT 06492
  
  
 ---------------------------------------------------------------
 Warning -- This program may not be used in any manner that
 competes with the business of Gaussian, Inc. or will provide
 assistance to any competitor of Gaussian, Inc.  The licensee
 of this program is prohibited from giving any competitor of
 Gaussian, Inc. access to this program.  By using this program,
 the user acknowledges that Gaussian, Inc. is engaged in the
 business of creating and licensing software in the field of
 computational chemistry and represents and warrants to the
 licensee that it is not a competitor of Gaussian, Inc. and that
 it will not use this program in any manner prohibited above.
 ---------------------------------------------------------------
  

 Cite this work as:
 Gaussian 16, Revision A.03,
 M. J. Frisch, G. W. Trucks, H. B. Schlegel, G. E. Scuseria, 
 M. A. Robb, J. R. Cheeseman, G. Scalmani, V. Barone, 
 G. A. Petersson, H. Nakatsuji, X. Li, M. Caricato, A. V. Marenich, 
 J. Bloino, B. G. Janesko, R. Gomperts, B. Mennucci, H. P. Hratchian, 
 J. V. Ortiz, A. F. Izmaylov, J. L. Sonnenberg, D. Williams-Young, 
 F. Ding, F. Lipparini, F. Egidi, J. Goings, B. Peng, A. Petrone, 
 T. Henderson, D. Ranasinghe, V. G. Zakrzewski, J. Gao, N. Rega, 
 G. Zheng, W. Liang, M. Hada, M. Ehara, K. Toyota, R. Fukuda, 
 J. Hasegawa, M. Ishida, T. Nakajima, Y. Honda, O. Kitao, H. Nakai, 
 T. Vreven, K. Throssell, J. A. Montgomery, Jr., J. E. Peralta, 
 F. Ogliaro, M. J. Bearpark, J. J. Heyd, E. N. Brothers, K. N. Kudin, 
 V. N. Staroverov, T. A. Keith, R. Kobayashi, J. Normand, 
 K. Raghavachari, A. P. Rendell, J. C. Burant, S. S. Iyengar, 
 J. Tomasi, M. Cossi, J. M. Millam, M. Klene, C. Adamo, R. Cammi, 
 J. W. Ochterski, R. L. Martin, K. Morokuma, O. Farkas, 
 J. B. Foresman, and D. J. Fox, Gaussian, Inc., Wallingford CT, 2016.
 
 ******************************************
 Gaussian 16:  ES64L-G16RevA.03 25-Dec-2016
                23-Apr-2025 
 ******************************************
 %chk=ethyl_propiolate.chk
 %nprocshared=24
 Will use up to   24 processors via shared memory.
 %mem=12GB
 --------------------------
 # ccsd(t)/6-311++g(d,p) sp
 --------------------------
 1/38=1,172=1/1;
 2/12=2,17=6,18=5,40=1/2;
 3/5=4,6=6,7=1111,11=9,25=1,30=1/1,2,3;
 4//1;
 5/5=2,38=5/2;
 8/6=4,9=120000,10=2/1,4;
 9/5=7,14=2/13;
 6/7=2,8=2,9=2,10=2/1;
 99/5=1,9=1/99;
 -------------------
 Title Card Required
 -------------------
 Symbolic Z-matrix:
 Charge =  0 Multiplicity = 2
 C                     2.33194  -1.08245   0. 
 H                     3.03721  -1.89342   0.00001 
 C                     1.12265  -0.74658   0.00001 
 C                     0.01058   0.19247   0.00001 
 O                     0.16795   1.38479   0.00001 
 O                    -1.16221  -0.42842  0. 
 C                    -2.32398   0.4285   0. 
 C                    -3.53833  -0.4696   -0.00001 
 H                    -2.28      1.06763   0.88399 
 H                    -2.27999   1.06763  -0.88399 
 H                    -3.54684  -1.10511  -0.88626 
 H                    -3.54684  -1.10511   0.88624 
 H                    -4.44372   0.13949  -0.00001 
 O                     3.43856   0.349    -0.00001 
 H                     2.8097    1.0871   0. 
 
                          Input orientation:                          
 ---------------------------------------------------------------------
 Center     Atomic      Atomic             Coordinates (Angstroms)
 Number     Number       Type             X           Y           Z
 ---------------------------------------------------------------------
      1          6           0        2.331937   -1.082447    0.000004
      2          1           0        3.037214   -1.893419    0.000008
      3          6           0        1.122645   -0.746576    0.000005
      4          6           0        0.010580    0.192467    0.000005
      5          8           0        0.167946    1.384794    0.000009
      6          8           0       -1.162212   -0.428415   -0.000001
      7          6           0       -2.323977    0.428503   -0.000002
      8          6           0       -3.538329   -0.469603   -0.000005
      9          1           0       -2.279998    1.067627    0.883993
     10          1           0       -2.279994    1.067629   -0.883994
     11          1           0       -3.546840   -1.105111   -0.886257
     12          1           0       -3.546843   -1.105114    0.886244
     13          1           0       -4.443719    0.139490   -0.000006
     14          8           0        3.438562    0.348996   -0.000012
     15          1           0        2.809702    1.087097   -0.000004
 ---------------------------------------------------------------------
                    Distance matrix (angstroms):
                    1          2          3          4          5
     1  C    0.000000
     2  H    1.074752   0.000000
     3  C    1.255068   2.231776   0.000000
     4  C    2.648415   3.675790   1.455503   0.000000
     5  O    3.281788   4.356533   2.335420   1.202667   0.000000
     6  O    3.554833   4.447630   2.306902   1.327002   2.248788
     7  C    4.894947   5.842405   3.641430   2.346459   2.669115
     8  C    5.902169   6.727928   4.669196   3.610137   4.144305
     9  H    5.164707   6.149957   3.956102   2.606547   2.621918
    10  H    5.164706   6.149957   3.956102   2.606548   2.621920
    11  H    5.945249   6.690042   4.766351   3.889011   4.559027
    12  H    5.945249   6.690041   4.766349   3.889009   4.559025
    13  H    6.884958   7.752230   5.636446   4.454614   4.776844
    14  O    1.809323   2.278049   2.561982   3.431554   3.430715
    15  H    2.221527   2.989187   2.491690   2.938613   2.658477
                    6          7          8          9         10
     6  O    0.000000
     7  C    1.443609   0.000000
     8  C    2.376474   1.510379   0.000000
     9  H    2.066164   1.091724   2.174379   0.000000
    10  H    2.066163   1.091723   2.174379   1.767987   0.000000
    11  H    2.632455   2.152397   1.090590   3.075624   2.515095
    12  H    2.632455   2.152397   1.090589   2.515095   3.075624
    13  H    3.330286   2.139354   1.091204   2.514872   2.514872
    14  O    4.665993   5.763087   7.024750   5.830937   5.830930
    15  H    4.251221   5.175752   6.536116   5.165934   5.165929
                   11         12         13         14         15
    11  H    0.000000
    12  H    1.772501   0.000000
    13  H    1.771684   1.771684   0.000000
    14  O    7.189972   7.189977   7.885065   0.000000
    15  H    6.782097   6.782101   7.315058   0.969669   0.000000
 Stoichiometry    C5H7O3(2)
 Framework group  C1[X(C5H7O3)]
 Deg. of freedom    39
 Full point group                 C1      NOp   1
 Largest Abelian subgroup         C1      NOp   1
 Largest concise Abelian subgroup C1      NOp   1
                         Standard orientation:                         
 ---------------------------------------------------------------------
 Center     Atomic      Atomic             Coordinates (Angstroms)
 Number     Number       Type             X           Y           Z
 ---------------------------------------------------------------------
      1          6           0       -2.419330   -1.067151   -0.000004
      2          1           0       -3.127727   -1.875399   -0.000008
      3          6           0       -1.208752   -0.735944   -0.000005
      4          6           0       -0.093076    0.198806   -0.000005
      5          8           0       -0.245846    1.391731   -0.000009
      6          8           0        1.077314   -0.426591    0.000001
      7          6           0        2.242373    0.425843    0.000002
      8          6           0        3.453255   -0.476936    0.000005
      9          1           0        2.200858    1.065132   -0.883993
     10          1           0        2.200854    1.065134    0.883994
     11          1           0        3.459316   -1.112472    0.886257
     12          1           0        3.459319   -1.112475   -0.886244
     13          1           0        4.360985    0.128663    0.000006
     14          8           0       -3.520430    0.368546    0.000012
     15          1           0       -2.888730    1.104218    0.000004
 ---------------------------------------------------------------------
 Rotational constants (GHZ):           6.7987255           0.8672200           0.7765799
 Standard basis: 6-311++G(d,p) (5D, 7F)
 There are   233 symmetry adapted cartesian basis functions of A   symmetry.
 There are   225 symmetry adapted basis functions of A   symmetry.
   225 basis functions,   351 primitive gaussians,   233 cartesian basis functions
    31 alpha electrons       30 beta electrons
       nuclear repulsion energy       346.3661046940 Hartrees.
 NAtoms=   15 NActive=   15 NUniq=   15 SFac= 1.00D+00 NAtFMM=   60 NAOKFM=F Big=F
 Integral buffers will be    131072 words long.
 Raffenetti 2 integral format.
 Two-electron integral symmetry is turned on.
 One-electron integrals computed using PRISM.
 NBasis=   225 RedAO= T EigKep=  5.63D-06  NBF=   225
 NBsUse=   225 1.00D-06 EigRej= -1.00D+00 NBFU=   225
 ExpMin= 3.60D-02 ExpMax= 8.59D+03 ExpMxC= 1.30D+03 IAcc=3 IRadAn=         5 AccDes= 0.00D+00
 Harris functional with IExCor=  205 and IRadAn=       5 diagonalized for initial guess.
 HarFok:  IExCor=  205 AccDes= 0.00D+00 IRadAn=         5 IDoV= 1 UseB2=F ITyADJ=14
 ICtDFT=  3500011 ScaDFX=  1.000000  1.000000  1.000000  1.000000
 FoFCou: FMM=F IPFlag=           0 FMFlag=      100000 FMFlg1=           0
         NFxFlg=           0 DoJE=T BraDBF=F KetDBF=T FulRan=T
         wScrn=  0.000000 ICntrl=       500 IOpCl=  0 I1Cent=   200000004 NGrid=           0
         NMat0=    1 NMatS0=      1 NMatT0=    0 NMatD0=    1 NMtDS0=    0 NMtDT0=    0
 Petite list used in FoFCou.
 Initial guess <Sx>= 0.0000 <Sy>= 0.0000 <Sz>= 0.5000 <S**2>= 0.7500 S= 0.5000
 Requested convergence on RMS density matrix=1.00D-08 within 128 cycles.
 Requested convergence on MAX density matrix=1.00D-06.
 Requested convergence on             energy=1.00D-06.
 No special actions if energy rises.
 Initial convergence to 1.0D-05 achieved.  Increase integral accuracy.
 SCF Done:  E(UHF) =  -417.987671122     A.U. after   31 cycles
            NFock= 31  Conv=0.60D-08     -V/T= 2.0009
 <Sx>= 0.0000 <Sy>= 0.0000 <Sz>= 0.5000 <S**2>= 1.1539 S= 0.6849
 <L.S>=  0.00000000000    
 Annihilation of the first spin contaminant:
 S**2 before annihilation     1.1539,   after     0.8678
 ExpMin= 3.60D-02 ExpMax= 8.59D+03 ExpMxC= 1.30D+03 IAcc=3 IRadAn=         5 AccDes= 0.00D+00
 HarFok:  IExCor=  205 AccDes= 0.00D+00 IRadAn=         5 IDoV=-2 UseB2=F ITyADJ=14
 ICtDFT= 12500011 ScaDFX=  1.000000  1.000000  1.000000  1.000000
 Range of M.O.s used for correlation:     9   225
 NBasis=   225 NAE=    31 NBE=    30 NFC=     8 NFV=     0
 NROrb=    217 NOA=    23 NOB=    22 NVA=   194 NVB=   195

 **** Warning!!: The largest alpha MO coefficient is  0.10891133D+03


 **** Warning!!: The largest beta MO coefficient is  0.11118594D+03

 Semi-Direct transformation.
 ModeAB=           4 MOrb=            23 LenV=    1609182354
 LASXX=    109339976 LTotXX=   109339976 LenRXX=   221407890
 LTotAB=   112067914 MaxLAS=   123227790 LenRXY=           0
 NonZer=   330747866 LenScr=   498067456 LnRSAI=   123227790
 LnScr1=   185608192 LExtra=           0 Total=   1028311328
 MaxDsk=          -1 SrtSym=           T ITran=            4
 JobTyp=1 Pass  1:  I=   1 to  23.
 (rs|ai) integrals will be sorted in core.
 ModeAB=           4 MOrb=            22 LenV=    1609182354
 LASXX=    104936601 LTotXX=   104936601 LenRXX=   190867446
 LTotAB=    85930845 MaxLAS=   117870060 LenRXY=           0
 NonZer=   295804047 LenScr=   445446144 LnRSAI=   117870060
 LnScr1=   177555456 LExtra=           0 Total=    931739106
 MaxDsk=          -1 SrtSym=           T ITran=            4
 JobTyp=2 Pass  1:  I=   1 to  22.
 (rs|ai) integrals will be sorted in core.
 SymMOI:  orbitals are not symmetric.
 Spin components of T(2) and E(2):
     alpha-alpha T2 =       0.5026330133D-01 E2=     -0.1673159308D+00
     alpha-beta  T2 =       0.2773819453D+00 E2=     -0.9241345694D+00
     beta-beta   T2 =       0.5110638073D-01 E2=     -0.1602377955D+00
 ANorm=    0.1174202550D+01
 E2 =    -0.1251688296D+01 EUMP2 =    -0.41923935941771D+03
 (S**2,0)=  0.11539D+01           (S**2,1)=  0.10476D+01
 E(PUHF)=      -0.41802071130D+03        E(PMP2)=      -0.41926868972D+03
 Keep R2 and R3 ints in memory in canonical form, NReq=652884060.
 CIDS: In Core Option IDoMem=           1.
 Iterations=  50 Convergence= 0.100D-06
 Produce multiple copies of IABC intergrals
 Iteration Nr.   1
 **********************
 DD1Dir will call FoFMem   1 times, MxPair=      1496
 NAB=   506 NAA=   253 NBB=   231.
 E(PMP3)=      -0.41929340013D+03
 MP4(R+Q)=  0.24058338D-01
 E3=       -0.30897770D-01        EUMP3=      -0.41927025719D+03
 E4(DQ)=   -0.64103077D-02        UMP4(DQ)=   -0.41927666750D+03
 E4(SDQ)=  -0.29440875D-01        UMP4(SDQ)=  -0.41929969806D+03
 DE(Corr)=  -1.2584254     E(Corr)=     -419.24609652    
 NORM(A)=   0.11860495D+01
 Iteration Nr.   2
 **********************
 DD1Dir will call FoFMem   1 times, MxPair=      1496
 NAB=   506 NAA=   253 NBB=   231.
 DE(Corr)=  -1.3035859     E(CORR)=     -419.29125707     Delta=-4.52D-02
 NORM(A)=   0.12107341D+01
 Iteration Nr.   3
 **********************
 DD1Dir will call FoFMem   1 times, MxPair=      1496
 NAB=   506 NAA=   253 NBB=   231.
 DE(Corr)=  -1.3082780     E(CORR)=     -419.29594913     Delta=-4.69D-03
 NORM(A)=   0.12288307D+01
 Iteration Nr.   4
 **********************
 DD1Dir will call FoFMem   1 times, MxPair=      1496
 NAB=   506 NAA=   253 NBB=   231.
 DE(Corr)=  -1.3181244     E(CORR)=     -419.30579552     Delta=-9.85D-03
 NORM(A)=   0.12415438D+01
 Iteration Nr.   5
 **********************
 DD1Dir will call FoFMem   1 times, MxPair=      1496
 NAB=   506 NAA=   253 NBB=   231.
 DE(Corr)=  -1.3214246     E(CORR)=     -419.30909572     Delta=-3.30D-03
 NORM(A)=   0.12472485D+01
 Iteration Nr.   6
 **********************
 DD1Dir will call FoFMem   1 times, MxPair=      1496
 NAB=   506 NAA=   253 NBB=   231.
 DE(Corr)=  -1.3223607     E(CORR)=     -419.31003177     Delta=-9.36D-04
 NORM(A)=   0.12480421D+01
 Iteration Nr.   7
 **********************
 DD1Dir will call FoFMem   1 times, MxPair=      1496
 NAB=   506 NAA=   253 NBB=   231.
 DE(Corr)=  -1.3224786     E(CORR)=     -419.31014977     Delta=-1.18D-04
 NORM(A)=   0.12483171D+01
 Iteration Nr.   8
 **********************
 DD1Dir will call FoFMem   1 times, MxPair=      1496
 NAB=   506 NAA=   253 NBB=   231.
 DE(Corr)=  -1.3224608     E(CORR)=     -419.31013194     Delta= 1.78D-05
 NORM(A)=   0.12483777D+01
 Iteration Nr.   9
 **********************
 DD1Dir will call FoFMem   1 times, MxPair=      1496
 NAB=   506 NAA=   253 NBB=   231.
 DE(Corr)=  -1.3224832     E(CORR)=     -419.31015428     Delta=-2.23D-05
 NORM(A)=   0.12483957D+01
 Iteration Nr.  10
 **********************
 DD1Dir will call FoFMem   1 times, MxPair=      1496
 NAB=   506 NAA=   253 NBB=   231.
 DE(Corr)=  -1.3224816     E(CORR)=     -419.31015272     Delta= 1.57D-06
 NORM(A)=   0.12484251D+01
 Iteration Nr.  11
 **********************
 DD1Dir will call FoFMem   1 times, MxPair=      1496
 NAB=   506 NAA=   253 NBB=   231.
 DE(Corr)=  -1.3224979     E(CORR)=     -419.31016906     Delta=-1.63D-05
 NORM(A)=   0.12484632D+01
 Iteration Nr.  12
 **********************
 DD1Dir will call FoFMem   1 times, MxPair=      1496
 NAB=   506 NAA=   253 NBB=   231.
 DE(Corr)=  -1.3225069     E(CORR)=     -419.31017802     Delta=-8.96D-06
 NORM(A)=   0.12485035D+01
 Iteration Nr.  13
 **********************
 DD1Dir will call FoFMem   1 times, MxPair=      1496
 NAB=   506 NAA=   253 NBB=   231.
 DE(Corr)=  -1.3225168     E(CORR)=     -419.31018791     Delta=-9.89D-06
 NORM(A)=   0.12485318D+01
 Iteration Nr.  14
 **********************
 DD1Dir will call FoFMem   1 times, MxPair=      1496
 NAB=   506 NAA=   253 NBB=   231.
 DE(Corr)=  -1.3225236     E(CORR)=     -419.31019476     Delta=-6.84D-06
 NORM(A)=   0.12485495D+01
 Iteration Nr.  15
 **********************
 DD1Dir will call FoFMem   1 times, MxPair=      1496
 NAB=   506 NAA=   253 NBB=   231.
 DE(Corr)=  -1.3225269     E(CORR)=     -419.31019798     Delta=-3.22D-06
 NORM(A)=   0.12485570D+01
 Iteration Nr.  16
 **********************
 DD1Dir will call FoFMem   1 times, MxPair=      1496
 NAB=   506 NAA=   253 NBB=   231.
 DE(Corr)=  -1.3225286     E(CORR)=     -419.31019975     Delta=-1.77D-06
 NORM(A)=   0.12485595D+01
 Iteration Nr.  17
 **********************
 DD1Dir will call FoFMem   1 times, MxPair=      1496
 NAB=   506 NAA=   253 NBB=   231.
 DE(Corr)=  -1.3225289     E(CORR)=     -419.31020006     Delta=-3.12D-07
 NORM(A)=   0.12485598D+01
 Iteration Nr.  18
 **********************
 DD1Dir will call FoFMem   1 times, MxPair=      1496
 NAB=   506 NAA=   253 NBB=   231.
 DE(Corr)=  -1.3225289     E(CORR)=     -419.31020006     Delta=-8.98D-10
 NORM(A)=   0.12485597D+01
 Wavefunction amplitudes converged. E(Corr)=     -419.31020006    
 Dominant configurations:
 ***********************
 Spin Case        I    J    A    B          Value
    BB           30        37            0.108623D+00
 Largest amplitude= 1.09D-01
 Time for triples=    36971.10 seconds.
 T4(CCSD)= -0.59606881D-01
 T5(CCSD)=  0.45709556D-02
 CCSD(T)= -0.41936523598D+03

 S**2, projected HF & approx projected MPn energies after annihilation of
 unwanted spin states (see manual for definitions):

 spins       (S**2,0) (S**2,1)    PUHF        PMP2        PMP3        PMP4
 annihilated
 s+1         0.68031  0.72135 -418.020711 -419.268690 -419.293400
 s+1,s+2     0.75163  0.74976 -418.016354 -419.264526 -419.289506
 s+1 to s+3  0.74999  0.75001 -418.016480 -419.264620 -419.289550
 s+1 to s+4  0.75000  0.75000 -418.016479 -419.264619 -419.289549
 s+1 to s+5  0.75000  0.75000 -418.016479
 s+1 to s+6  0.75000  0.75000 -418.016479

 Discarding MO integrals.

 **********************************************************************

            Population analysis using the SCF density.

 **********************************************************************

 Orbital symmetries:
 Alpha Orbitals:
       Occupied  (A) (A) (A) (A) (A) (A) (A) (A) (A) (A) (A) (A)
                 (A) (A) (A) (A) (A) (A) (A) (A) (A) (A) (A) (A)
                 (A) (A) (A) (A) (A) (A) (A)
       Virtual   (A) (A) (A) (A) (A) (A) (A) (A) (A) (A) (A) (A)
                 (A) (A) (A) (A) (A) (A) (A) (A) (A) (A) (A) (A)
                 (A) (A) (A) (A) (A) (A) (A) (A) (A) (A) (A) (A)
                 (A) (A) (A) (A) (A) (A) (A) (A) (A) (A) (A) (A)
                 (A) (A) (A) (A) (A) (A) (A) (A) (A) (A) (A) (A)
                 (A) (A) (A) (A) (A) (A) (A) (A) (A) (A) (A) (A)
                 (A) (A) (A) (A) (A) (A) (A) (A) (A) (A) (A) (A)
                 (A) (A) (A) (A) (A) (A) (A) (A) (A) (A) (A) (A)
                 (A) (A) (A) (A) (A) (A) (A) (A) (A) (A) (A) (A)
                 (A) (A) (A) (A) (A) (A) (A) (A) (A) (A) (A) (A)
                 (A) (A) (A) (A) (A) (A) (A) (A) (A) (A) (A) (A)
                 (A) (A) (A) (A) (A) (A) (A) (A) (A) (A) (A) (A)
                 (A) (A) (A) (A) (A) (A) (A) (A) (A) (A) (A) (A)
                 (A) (A) (A) (A) (A) (A) (A) (A) (A) (A) (A) (A)
                 (A) (A) (A) (A) (A) (A) (A) (A) (A) (A) (A) (A)
                 (A) (A) (A) (A) (A) (A) (A) (A) (A) (A) (A) (A)
                 (A) (A)
 Beta  Orbitals:
       Occupied  (A) (A) (A) (A) (A) (A) (A) (A) (A) (A) (A) (A)
                 (A) (A) (A) (A) (A) (A) (A) (A) (A) (A) (A) (A)
                 (A) (A) (A) (A) (A) (A)
       Virtual   (A) (A) (A) (A) (A) (A) (A) (A) (A) (A) (A) (A)
                 (A) (A) (A) (A) (A) (A) (A) (A) (A) (A) (A) (A)
                 (A) (A) (A) (A) (A) (A) (A) (A) (A) (A) (A) (A)
                 (A) (A) (A) (A) (A) (A) (A) (A) (A) (A) (A) (A)
                 (A) (A) (A) (A) (A) (A) (A) (A) (A) (A) (A) (A)
                 (A) (A) (A) (A) (A) (A) (A) (A) (A) (A) (A) (A)
                 (A) (A) (A) (A) (A) (A) (A) (A) (A) (A) (A) (A)
                 (A) (A) (A) (A) (A) (A) (A) (A) (A) (A) (A) (A)
                 (A) (A) (A) (A) (A) (A) (A) (A) (A) (A) (A) (A)
                 (A) (A) (A) (A) (A) (A) (A) (A) (A) (A) (A) (A)
                 (A) (A) (A) (A) (A) (A) (A) (A) (A) (A) (A) (A)
                 (A) (A) (A) (A) (A) (A) (A) (A) (A) (A) (A) (A)
                 (A) (A) (A) (A) (A) (A) (A) (A) (A) (A) (A) (A)
                 (A) (A) (A) (A) (A) (A) (A) (A) (A) (A) (A) (A)
                 (A) (A) (A) (A) (A) (A) (A) (A) (A) (A) (A) (A)
                 (A) (A) (A) (A) (A) (A) (A) (A) (A) (A) (A) (A)
                 (A) (A) (A)
 The electronic state is 2-A.
 Alpha  occ. eigenvalues --  -20.62382 -20.60092 -20.57515 -11.41959 -11.30568
 Alpha  occ. eigenvalues --  -11.29372 -11.28144 -11.23593  -1.49519  -1.39725
 Alpha  occ. eigenvalues --   -1.35398  -1.10408  -1.05265  -0.92200  -0.84354
 Alpha  occ. eigenvalues --   -0.78690  -0.72760  -0.70890  -0.70553  -0.63807
 Alpha  occ. eigenvalues --   -0.62395  -0.61600  -0.59876  -0.56585  -0.53990
 Alpha  occ. eigenvalues --   -0.53023  -0.52888  -0.50890  -0.48599  -0.43635
 Alpha  occ. eigenvalues --   -0.42535
 Alpha virt. eigenvalues --    0.03725   0.04768   0.05872   0.06129   0.07101
 Alpha virt. eigenvalues --    0.08125   0.08957   0.09388   0.11326   0.12304
 Alpha virt. eigenvalues --    0.12529   0.12797   0.14314   0.15549   0.16358
 Alpha virt. eigenvalues --    0.17875   0.18120   0.18169   0.18328   0.18910
 Alpha virt. eigenvalues --    0.19067   0.20081   0.20629   0.21887   0.22698
 Alpha virt. eigenvalues --    0.23725   0.25385   0.27674   0.27895   0.28577
 Alpha virt. eigenvalues --    0.28948   0.30828   0.30981   0.32137   0.32182
 Alpha virt. eigenvalues --    0.33921   0.34103   0.36462   0.36752   0.37993
 Alpha virt. eigenvalues --    0.38968   0.39681   0.39998   0.40753   0.42472
 Alpha virt. eigenvalues --    0.43642   0.45027   0.46930   0.47794   0.48924
 Alpha virt. eigenvalues --    0.50181   0.53803   0.56447   0.58243   0.62986
 Alpha virt. eigenvalues --    0.63598   0.64768   0.65879   0.70643   0.72051
 Alpha virt. eigenvalues --    0.76327   0.77031   0.78827   0.79094   0.81882
 Alpha virt. eigenvalues --    0.82523   0.84468   0.84524   0.85604   0.86427
 Alpha virt. eigenvalues --    0.87558   0.89688   0.91205   0.96429   0.98652
 Alpha virt. eigenvalues --    1.02000   1.03150   1.07785   1.11730   1.13888
 Alpha virt. eigenvalues --    1.21030   1.21966   1.24690   1.25356   1.29554
 Alpha virt. eigenvalues --    1.33688   1.34047   1.35887   1.36887   1.36948
 Alpha virt. eigenvalues --    1.40793   1.42383   1.46158   1.48595   1.49456
 Alpha virt. eigenvalues --    1.51924   1.55374   1.56347   1.64473   1.65277
 Alpha virt. eigenvalues --    1.70983   1.72866   1.73185   1.74025   1.76645
 Alpha virt. eigenvalues --    1.78276   1.79601   1.81079   1.81664   1.85755
 Alpha virt. eigenvalues --    1.88680   1.91569   1.94309   1.96224   1.99844
 Alpha virt. eigenvalues --    2.01242   2.05726   2.09294   2.13211   2.15358
 Alpha virt. eigenvalues --    2.15497   2.21983   2.25623   2.28146   2.33794
 Alpha virt. eigenvalues --    2.39050   2.40864   2.46844   2.49349   2.54991
 Alpha virt. eigenvalues --    2.57075   2.60162   2.65141   2.77075   2.81661
 Alpha virt. eigenvalues --    2.84623   2.87678   2.88464   2.92495   2.93809
 Alpha virt. eigenvalues --    2.94548   2.95816   2.97497   3.00367   3.01610
 Alpha virt. eigenvalues --    3.10575   3.10879   3.11305   3.18524   3.18891
 Alpha virt. eigenvalues --    3.20578   3.25432   3.28897   3.30083   3.32458
 Alpha virt. eigenvalues --    3.40538   3.43450   3.49844   3.50283   3.56411
 Alpha virt. eigenvalues --    3.60406   3.62202   3.68389   3.73043   3.76749
 Alpha virt. eigenvalues --    3.86645   3.97512   4.00856   4.11351   4.19197
 Alpha virt. eigenvalues --    4.21166   4.21349   4.28370   4.42853   4.50327
 Alpha virt. eigenvalues --    4.56153   4.68461   5.51708   5.55769   5.57540
 Alpha virt. eigenvalues --    5.59685   5.76980   5.90126   6.05526   6.21959
 Alpha virt. eigenvalues --    6.42208  24.70214  24.99229  25.01634  25.13501
 Alpha virt. eigenvalues --   25.80958  51.54968  51.59548  51.70968
  Beta  occ. eigenvalues --  -20.62363 -20.57224 -20.56837 -11.42409 -11.31765
  Beta  occ. eigenvalues --  -11.30565 -11.25092 -11.23593  -1.49153  -1.38577
  Beta  occ. eigenvalues --   -1.25951  -1.07299  -1.04829  -0.92906  -0.84041
  Beta  occ. eigenvalues --   -0.78318  -0.72411  -0.70354  -0.69805  -0.61521
  Beta  occ. eigenvalues --   -0.60612  -0.59363  -0.56451  -0.53009  -0.52911
  Beta  occ. eigenvalues --   -0.51369  -0.48961  -0.47176  -0.46734  -0.41992
  Beta virt. eigenvalues --    0.03720   0.04745   0.05160   0.06105   0.06423
  Beta virt. eigenvalues --    0.07112   0.08325   0.09162   0.09373   0.12002
  Beta virt. eigenvalues --    0.12400   0.12717   0.13158   0.14567   0.15029
  Beta virt. eigenvalues --    0.16310   0.17912   0.18151   0.18217   0.18242
  Beta virt. eigenvalues --    0.18883   0.19136   0.20177   0.20613   0.21914
  Beta virt. eigenvalues --    0.23853   0.24666   0.25631   0.27351   0.28119
  Beta virt. eigenvalues --    0.28770   0.29803   0.31292   0.31459   0.32460
  Beta virt. eigenvalues --    0.32542   0.34037   0.35356   0.36633   0.37675
  Beta virt. eigenvalues --    0.38877   0.39211   0.39923   0.40740   0.40878
  Beta virt. eigenvalues --    0.42730   0.43828   0.45461   0.47586   0.48416
  Beta virt. eigenvalues --    0.49090   0.51260   0.54546   0.56436   0.58378
  Beta virt. eigenvalues --    0.62728   0.63997   0.64805   0.66851   0.68900
  Beta virt. eigenvalues --    0.72082   0.76611   0.77456   0.78879   0.79357
  Beta virt. eigenvalues --    0.83408   0.84036   0.84883   0.85229   0.85846
  Beta virt. eigenvalues --    0.86539   0.87366   0.89560   0.92043   0.96571
  Beta virt. eigenvalues --    0.98919   1.01670   1.03240   1.08134   1.13037
  Beta virt. eigenvalues --    1.14255   1.21026   1.22348   1.24711   1.24901
  Beta virt. eigenvalues --    1.29743   1.34836   1.36101   1.37539   1.38937
  Beta virt. eigenvalues --    1.41045   1.41267   1.43776   1.47270   1.48569
  Beta virt. eigenvalues --    1.49692   1.52622   1.56062   1.56124   1.64360
  Beta virt. eigenvalues --    1.68494   1.70978   1.71769   1.74047   1.75073
  Beta virt. eigenvalues --    1.78057   1.79484   1.80089   1.81347   1.82129
  Beta virt. eigenvalues --    1.86027   1.88889   1.91619   1.94343   1.96524
  Beta virt. eigenvalues --    1.99841   2.01699   2.06044   2.09266   2.13331
  Beta virt. eigenvalues --    2.15401   2.15779   2.22843   2.26110   2.28147
  Beta virt. eigenvalues --    2.34425   2.39619   2.40882   2.46874   2.49062
  Beta virt. eigenvalues --    2.55004   2.57094   2.61367   2.65307   2.77083
  Beta virt. eigenvalues --    2.81676   2.84658   2.87683   2.88535   2.92516
  Beta virt. eigenvalues --    2.93728   2.94568   2.95913   2.97344   3.01077
  Beta virt. eigenvalues --    3.01081   3.11489   3.12081   3.12439   3.19532
  Beta virt. eigenvalues --    3.21145   3.25037   3.27188   3.30181   3.30802
  Beta virt. eigenvalues --    3.34973   3.42509   3.43912   3.50211   3.51570
  Beta virt. eigenvalues --    3.60394   3.62580   3.62963   3.69303   3.73523
  Beta virt. eigenvalues --    3.77719   3.88330   3.97022   4.01248   4.11997
  Beta virt. eigenvalues --    4.19203   4.21167   4.21370   4.30744   4.43096
  Beta virt. eigenvalues --    4.50478   4.56646   4.68492   5.53302   5.55901
  Beta virt. eigenvalues --    5.61228   5.66389   5.77815   5.90221   6.07333
  Beta virt. eigenvalues --    6.22211   6.42372  24.70469  24.98992  25.01506
  Beta virt. eigenvalues --   25.13502  25.81191  51.56579  51.59608  51.71327
          Condensed to atoms (all electrons):
               1          2          3          4          5          6
     1  C   12.478793   0.499862  -4.040857  -2.032425   0.173214   0.262538
     2  H    0.499862   0.410743  -0.123692   0.022858  -0.000985   0.002060
     3  C   -4.040857  -0.123692  12.182918  -3.271859   0.194655  -0.166393
     4  C   -2.032425   0.022858  -3.271859  11.979782  -0.002492  -0.404645
     5  O    0.173214  -0.000985   0.194655  -0.002492   8.153678  -0.119251
     6  O    0.262538   0.002060  -0.166393  -0.404645  -0.119251   8.539288
     7  C    0.152649   0.002851  -0.384665  -0.165503  -0.055311   0.234787
     8  C   -0.007937  -0.000104  -0.083399   0.175251   0.016617  -0.188944
     9  H    0.001667   0.000002  -0.017251  -0.004647  -0.014430  -0.031542
    10  H    0.001667   0.000002  -0.017251  -0.004646  -0.014430  -0.031542
    11  H   -0.002369  -0.000020   0.005369  -0.001354  -0.001080  -0.009226
    12  H   -0.002369  -0.000020   0.005369  -0.001355  -0.001080  -0.009226
    13  H    0.000934   0.000012   0.005696  -0.002976   0.001143   0.023532
    14  O   -0.014991  -0.035332  -0.039573  -0.024726   0.001126  -0.005438
    15  H    0.040546   0.004925  -0.047062  -0.001433   0.008039  -0.000654
               7          8          9         10         11         12
     1  C    0.152649  -0.007937   0.001667   0.001667  -0.002369  -0.002369
     2  H    0.002851  -0.000104   0.000002   0.000002  -0.000020  -0.000020
     3  C   -0.384665  -0.083399  -0.017251  -0.017251   0.005369   0.005369
     4  C   -0.165503   0.175251  -0.004647  -0.004646  -0.001354  -0.001355
     5  O   -0.055311   0.016617  -0.014430  -0.014430  -0.001080  -0.001080
     6  O    0.234787  -0.188944  -0.031542  -0.031542  -0.009226  -0.009226
     7  C    5.421752   0.035174   0.448340   0.448340  -0.031985  -0.031985
     8  C    0.035174   5.546511  -0.052102  -0.052102   0.401375   0.401375
     9  H    0.448340  -0.052102   0.542958  -0.048375   0.004422  -0.007179
    10  H    0.448340  -0.052102  -0.048375   0.542958  -0.007179   0.004422
    11  H   -0.031985   0.401375   0.004422  -0.007179   0.562528  -0.041769
    12  H   -0.031985   0.401375  -0.007179   0.004422  -0.041769   0.562528
    13  H   -0.058907   0.417937  -0.003655  -0.003655  -0.032752  -0.032752
    14  O   -0.002686   0.000160  -0.000061  -0.000061   0.000003   0.000003
    15  H    0.000025   0.000512  -0.000051  -0.000051  -0.000035  -0.000035
              13         14         15
     1  C    0.000934  -0.014991   0.040546
     2  H    0.000012  -0.035332   0.004925
     3  C    0.005696  -0.039573  -0.047062
     4  C   -0.002976  -0.024726  -0.001433
     5  O    0.001143   0.001126   0.008039
     6  O    0.023532  -0.005438  -0.000654
     7  C   -0.058907  -0.002686   0.000025
     8  C    0.417937   0.000160   0.000512
     9  H   -0.003655  -0.000061  -0.000051
    10  H   -0.003655  -0.000061  -0.000051
    11  H   -0.032752   0.000003  -0.000035
    12  H   -0.032752   0.000003  -0.000035
    13  H    0.542774  -0.000019   0.000005
    14  O   -0.000019   8.109197   0.283488
    15  H    0.000005   0.283488   0.441446
          Atomic-Atomic Spin Densities.
               1          2          3          4          5          6
     1  C   -1.081555   0.037565  -0.055620  -0.214051   0.014885   0.008263
     2  H    0.037565   0.069013  -0.021885   0.002942  -0.000559  -0.000364
     3  C   -0.055620  -0.021885   1.618909   0.076301  -0.034508  -0.055974
     4  C   -0.214051   0.002942   0.076301  -0.022754  -0.053530   0.095674
     5  O    0.014885  -0.000559  -0.034508  -0.053530   0.187514   0.006227
     6  O    0.008263  -0.000364  -0.055974   0.095674   0.006227  -0.046862
     7  C    0.019687  -0.000199  -0.005674  -0.030682  -0.000452  -0.002329
     8  C   -0.002853   0.000035  -0.008825   0.024472   0.001366  -0.001683
     9  H   -0.000438   0.000008  -0.000619   0.000512  -0.000115  -0.000194
    10  H   -0.000438   0.000008  -0.000619   0.000512  -0.000115  -0.000194
    11  H   -0.000053   0.000006  -0.000169  -0.000060  -0.000040   0.000056
    12  H   -0.000053   0.000006  -0.000169  -0.000060  -0.000040   0.000056
    13  H    0.000165  -0.000007  -0.000073  -0.000035   0.000051  -0.000603
    14  O    0.183711   0.001479  -0.123925  -0.040934   0.005353  -0.000475
    15  H   -0.018735  -0.000406   0.006999   0.006275  -0.001262   0.000138
               7          8          9         10         11         12
     1  C    0.019687  -0.002853  -0.000438  -0.000438  -0.000053  -0.000053
     2  H   -0.000199   0.000035   0.000008   0.000008   0.000006   0.000006
     3  C   -0.005674  -0.008825  -0.000619  -0.000619  -0.000169  -0.000169
     4  C   -0.030682   0.024472   0.000512   0.000512  -0.000060  -0.000060
     5  O   -0.000452   0.001366  -0.000115  -0.000115  -0.000040  -0.000040
     6  O   -0.002329  -0.001683  -0.000194  -0.000194   0.000056   0.000056
     7  C    0.034487  -0.025087   0.001228   0.001228   0.000331   0.000331
     8  C   -0.025087   0.019935  -0.000083  -0.000083  -0.000282  -0.000282
     9  H    0.001228  -0.000083  -0.000434   0.000268  -0.000000  -0.000067
    10  H    0.001228  -0.000083   0.000268  -0.000434  -0.000067  -0.000000
    11  H    0.000331  -0.000282  -0.000000  -0.000067   0.000152  -0.000008
    12  H    0.000331  -0.000282  -0.000067  -0.000000  -0.000008   0.000152
    13  H    0.002178  -0.002668   0.000178   0.000178   0.000185   0.000185
    14  O    0.000915   0.000021  -0.000041  -0.000041  -0.000004  -0.000004
    15  H   -0.000360   0.000142  -0.000018  -0.000018  -0.000003  -0.000003
              13         14         15
     1  C    0.000165   0.183711  -0.018735
     2  H   -0.000007   0.001479  -0.000406
     3  C   -0.000073  -0.123925   0.006999
     4  C   -0.000035  -0.040934   0.006275
     5  O    0.000051   0.005353  -0.001262
     6  O   -0.000603  -0.000475   0.000138
     7  C    0.002178   0.000915  -0.000360
     8  C   -0.002668   0.000021   0.000142
     9  H    0.000178  -0.000041  -0.000018
    10  H    0.000178  -0.000041  -0.000018
    11  H    0.000185  -0.000004  -0.000003
    12  H    0.000185  -0.000004  -0.000003
    13  H    0.000168   0.000002   0.000006
    14  O    0.000002   0.649141   0.008541
    15  H    0.000006   0.008541  -0.028491
 Mulliken charges and spin densities:
               1          2
     1  C   -1.510924  -1.109519
     2  H    0.216837   0.087640
     3  C    1.797994   1.394150
     4  C   -0.259830  -0.155420
     5  O   -0.339414   0.124774
     6  O   -0.095344   0.001738
     7  C   -0.012874  -0.004399
     8  C   -0.610324   0.004125
     9  H    0.181902   0.000186
    10  H    0.181902   0.000186
    11  H    0.154072   0.000043
    12  H    0.154072   0.000043
    13  H    0.142685  -0.000090
    14  O   -0.271089   0.683738
    15  H    0.270334  -0.027195
 Sum of Mulliken charges =  -0.00000   1.00000
 Mulliken charges and spin densities with hydrogens summed into heavy atoms:
               1          2
     1  C   -1.294087  -1.021879
     3  C    1.797994   1.394150
     4  C   -0.259830  -0.155420
     5  O   -0.339414   0.124774
     6  O   -0.095344   0.001738
     7  C    0.350930  -0.004027
     8  C   -0.159495   0.004122
    14  O   -0.000755   0.656543
 Electronic spatial extent (au):  <R**2>=           1423.2511
 Charge=             -0.0000 electrons
 Dipole moment (field-independent basis, Debye):
    X=              3.0569    Y=             -1.3569    Z=             -0.0000  Tot=              3.3445
 Quadrupole moment (field-independent basis, Debye-Ang):
   XX=            -47.5778   YY=            -47.8777   ZZ=            -47.5372
   XY=              5.4702   XZ=              0.0001   YZ=              0.0000
 Traceless Quadrupole moment (field-independent basis, Debye-Ang):
   XX=              0.0864   YY=             -0.2135   ZZ=              0.1271
   XY=              5.4702   XZ=              0.0001   YZ=              0.0000
 Octapole moment (field-independent basis, Debye-Ang**2):
  XXX=             51.9543  YYY=             -1.2551  ZZZ=              0.0000  XYY=            -14.9545
  XXY=             -7.6009  XXZ=             -0.0003  XZZ=              3.7469  YZZ=              3.1674
  YYZ=              0.0000  XYZ=             -0.0000
 Hexadecapole moment (field-independent basis, Debye-Ang**3):
 XXXX=          -1672.2404 YYYY=           -226.6142 ZZZZ=            -59.4243 XXXY=             55.3219
 XXXZ=              0.0010 YYYX=              4.0161 YYYZ=              0.0002 ZZZX=             -0.0001
 ZZZY=              0.0000 XXYY=           -241.7790 XXZZ=           -278.5551 YYZZ=            -47.5750
 XXYZ=              0.0001 YYXZ=              0.0000 ZZXY=             -4.2140
 N-N= 3.463661046940D+02 E-N=-1.675365744981D+03  KE= 4.176261969416D+02
 1\1\GINC-AJ\SP\UCCSD(T)-FC\6-311++G(d,p)\C5H7O3(2)\AAYUSH\23-Apr-2025\
 0\\# ccsd(t)/6-311++g(d,p) sp\\Title Card Required\\0,2\C,0,2.331937,-
 1.082447,0.000004\H,0,3.037214,-1.893419,0.000008\C,0,1.122645,-0.7465
 76,0.000005\C,0,0.01058,0.192467,0.000005\O,0,0.167946,1.384794,0.0000
 09\O,0,-1.162212,-0.428415,-0.000001\C,0,-2.323977,0.428503,-0.000002\
 C,0,-3.538329,-0.469603,-0.000005\H,0,-2.279998,1.067627,0.883993\H,0,
 -2.279994,1.067629,-0.883994\H,0,-3.54684,-1.105111,-0.886257\H,0,-3.5
 46843,-1.105114,0.886244\H,0,-4.443719,0.13949,-0.000006\O,0,3.438562,
 0.348996,-0.000012\H,0,2.809702,1.087097,-0.000004\\Version=ES64L-G16R
 evA.03\State=2-A\HF=-417.9876711\MP2=-419.2393594\MP3=-419.2702572\MP4
 D=-419.3007258\MP4DQ=-419.2766675\PUHF=-418.0207113\PMP2-0=-419.268689
 7\PMP3-0=-419.2934001\MP4SDQ=-419.2996981\CCSD=-419.3102001\CCSD(T)=-4
 19.365236\S2=1.153948\S2-1=1.047584\S2A=0.867793\RMSD=6.023e-09\PG=C01
  [X(C5H7O3)]\\@


 KNOWLEDGE IS CHIMERA - FOR BEYOND IT LIES OTHER KNOWLEDGE,
 AND THE INCOMPLETENESS OF WHAT IS KNOWN RENDERS THE KNOWING FALSE.
     -- THE THOMAS COVENANT CHRONICLES
 Job cpu time:       0 days 16 hours 57 minutes  6.7 seconds.
 Elapsed time:       0 days  0 hours 42 minutes 40.2 seconds.
 File lengths (MBytes):  RWF=  44733 Int=      0 D2E=      0 Chk=      7 Scr=      1
 Normal termination of Gaussian 16 at Wed Apr 23 23:46:41 2025.
