 Entering Gaussian System, Link 0=g16
 Initial command:
 /opt/g16/l1.exe "/home/aayush/scratches/g16/Gau-13661.inp" -scrdir="/home/aayush/scratches/g16/"
 Entering Link 1 = /opt/g16/l1.exe PID=     13664.
  
 Copyright (c) 1988,1990,1992,1993,1995,1998,2003,2009,2016,
            Gaussian, Inc.  All Rights Reserved.
  
 This is part of the Gaussian(R) 16 program.  It is based on
 the Gaussian(R) 09 system (copyright 2009, Gaussian, Inc.),
 the Gaussian(R) 03 system (copyright 2003, Gaussian, Inc.),
 the Gaussian(R) 98 system (copyright 1998, Gaussian, Inc.),
 the Gaussian(R) 94 system (copyright 1995, Gaussian, Inc.),
 the Gaussian 92(TM) system (copyright 1992, Gaussian, Inc.),
 the Gaussian 90(TM) system (copyright 1990, Gaussian, Inc.),
 the Gaussian 88(TM) system (copyright 1988, Gaussian, Inc.),
 the Gaussian 86(TM) system (copyright 1986, Carnegie Mellon
 University), and the Gaussian 82(TM) system (copyright 1983,
 Carnegie Mellon University). Gaussian is a federally registered
 trademark of Gaussian, Inc.
  
 This software contains proprietary and confidential information,
 including trade secrets, belonging to Gaussian, Inc.
  
 This software is provided under written license and may be
 used, copied, transmitted, or stored only in accord with that
 written license.
  
 The following legend is applicable only to US Government
 contracts under FAR:
  
                    RESTRICTED RIGHTS LEGEND
  
 Use, reproduction and disclosure by the US Government is
 subject to restrictions as set forth in subparagraphs (a)
 and (c) of the Commercial Computer Software - Restricted
 Rights clause in FAR 52.227-19.
  
 Gaussian, Inc.
 340 Quinnipiac St., Bldg. 40, Wallingford CT 06492
  
  
 ---------------------------------------------------------------
 Warning -- This program may not be used in any manner that
 competes with the business of Gaussian, Inc. or will provide
 assistance to any competitor of Gaussian, Inc.  The licensee
 of this program is prohibited from giving any competitor of
 Gaussian, Inc. access to this program.  By using this program,
 the user acknowledges that Gaussian, Inc. is engaged in the
 business of creating and licensing software in the field of
 computational chemistry and represents and warrants to the
 licensee that it is not a competitor of Gaussian, Inc. and that
 it will not use this program in any manner prohibited above.
 ---------------------------------------------------------------
  

 Cite this work as:
 Gaussian 16, Revision A.03,
 M. J. Frisch, G. W. Trucks, H. B. Schlegel, G. E. Scuseria, 
 M. A. Robb, J. R. Cheeseman, G. Scalmani, V. Barone, 
 G. A. Petersson, H. Nakatsuji, X. Li, M. Caricato, A. V. Marenich, 
 J. Bloino, B. G. Janesko, R. Gomperts, B. Mennucci, H. P. Hratchian, 
 J. V. Ortiz, A. F. Izmaylov, J. L. Sonnenberg, D. Williams-Young, 
 F. Ding, F. Lipparini, F. Egidi, J. Goings, B. Peng, A. Petrone, 
 T. Henderson, D. Ranasinghe, V. G. Zakrzewski, J. Gao, N. Rega, 
 G. Zheng, W. Liang, M. Hada, M. Ehara, K. Toyota, R. Fukuda, 
 J. Hasegawa, M. Ishida, T. Nakajima, Y. Honda, O. Kitao, H. Nakai, 
 T. Vreven, K. Throssell, J. A. Montgomery, Jr., J. E. Peralta, 
 F. Ogliaro, M. J. Bearpark, J. J. Heyd, E. N. Brothers, K. N. Kudin, 
 V. N. Staroverov, T. A. Keith, R. Kobayashi, J. Normand, 
 K. Raghavachari, A. P. Rendell, J. C. Burant, S. S. Iyengar, 
 J. Tomasi, M. Cossi, J. M. Millam, M. Klene, C. Adamo, R. Cammi, 
 J. W. Ochterski, R. L. Martin, K. Morokuma, O. Farkas, 
 J. B. Foresman, and D. J. Fox, Gaussian, Inc., Wallingford CT, 2016.
 
 ******************************************
 Gaussian 16:  ES64L-G16RevA.03 25-Dec-2016
                23-Apr-2025 
 ******************************************
 %chk=ethyl_propiolate.chk
 %nprocshared=24
 Will use up to   24 processors via shared memory.
 %mem=12GB
 --------------------------
 # ccsd(t)/6-311++g(d,p) sp
 --------------------------
 1/38=1,172=1/1;
 2/12=2,17=6,18=5,40=1/2;
 3/5=4,6=6,7=1111,11=9,25=1,30=1/1,2,3;
 4//1;
 5/5=2,38=5/2;
 8/6=4,9=120000,10=2/1,4;
 9/5=7,14=2/13;
 6/7=2,8=2,9=2,10=2/1;
 99/5=1,9=1/99;
 -------------------
 Title Card Required
 -------------------
 Symbolic Z-matrix:
 Charge =  0 Multiplicity = 2
 C                     2.21754  -1.2552    0.00001 
 H                     3.09239  -1.86337   0.00001 
 C                     1.13346  -0.72833   0.00001 
 C                     0.00966   0.1929    0.00001 
 O                     0.16565   1.38595   0.00001 
 O                    -1.16208  -0.42831  0. 
 C                    -2.32351   0.42835  0. 
 C                    -3.5381   -0.46966  -0.00001 
 H                    -2.27989   1.0677    0.88387 
 H                    -2.27989   1.0677   -0.88388 
 H                    -3.54646  -1.10531  -0.88616 
 H                    -3.54646  -1.10531   0.88615 
 H                    -4.44356   0.13939  -0.00001 
 O                     3.51362   0.45748  -0.00001 
 H                     2.83261   1.15295  -0.00001 
 
                          Input orientation:                          
 ---------------------------------------------------------------------
 Center     Atomic      Atomic             Coordinates (Angstroms)
 Number     Number       Type             X           Y           Z
 ---------------------------------------------------------------------
      1          6           0        2.217544   -1.255203    0.000005
      2          1           0        3.092393   -1.863372    0.000005
      3          6           0        1.133459   -0.728330    0.000005
      4          6           0        0.009658    0.192902    0.000005
      5          8           0        0.165653    1.385945    0.000009
      6          8           0       -1.162084   -0.428313   -0.000001
      7          6           0       -2.323511    0.428350   -0.000002
      8          6           0       -3.538104   -0.469664   -0.000005
      9          1           0       -2.279894    1.067701    0.883873
     10          1           0       -2.279891    1.067702   -0.883876
     11          1           0       -3.546459   -1.105310   -0.886158
     12          1           0       -3.546462   -1.105311    0.886148
     13          1           0       -4.443564    0.139391   -0.000006
     14          8           0        3.513623    0.457480   -0.000012
     15          1           0        2.832609    1.152945   -0.000009
 ---------------------------------------------------------------------
                    Distance matrix (angstroms):
                    1          2          3          4          5
     1  C    0.000000
     2  H    1.065472   0.000000
     3  C    1.205336   2.264010   0.000000
     4  C    2.640411   3.705606   1.453134   0.000000
     5  O    3.344536   4.373084   2.325254   1.203198   0.000000
     6  O    3.479315   4.489985   2.315065   1.326231   2.248203
     7  C    4.843091   5.880817   3.645346   2.345019   2.667007
     8  C    5.809006   6.775390   4.678719   3.609101   4.142596
     9  H    5.138488   6.183355   3.957010   2.605484   2.619770
    10  H    5.138488   6.183355   3.957011   2.605486   2.619774
    11  H    5.833651   6.740497   4.777974   3.888008   4.557567
    12  H    5.833651   6.740497   4.777973   3.888007   4.557565
    13  H    6.805531   7.797545   5.644123   4.453543   4.774807
    14  O    2.147814   2.358768   2.659196   3.513940   3.474327
    15  H    2.485454   3.027483   2.535016   2.981734   2.677115
                    6          7          8          9         10
     6  O    0.000000
     7  C    1.443185   0.000000
     8  C    2.376380   1.510518   0.000000
     9  H    2.066105   1.091745   2.174356   0.000000
    10  H    2.066105   1.091745   2.174356   1.767749   0.000000
    11  H    2.632270   2.152438   1.090588   3.075577   2.515190
    12  H    2.632270   2.152437   1.090589   2.515190   3.075577
    13  H    3.330225   2.139655   1.091240   2.514850   2.514850
    14  O    4.758872   5.837207   7.112415   5.892237   5.892231
    15  H    4.296272   5.206785   6.574104   5.189046   5.189041
                   11         12         13         14         15
    11  H    0.000000
    12  H    1.772306   0.000000
    13  H    1.771819   1.771819   0.000000
    14  O    7.285076   7.285080   7.963542   0.000000
    15  H    6.824770   6.824774   7.346427   0.973371   0.000000
 Stoichiometry    C5H7O3(2)
 Framework group  C1[X(C5H7O3)]
 Deg. of freedom    39
 Full point group                 C1      NOp   1
 Largest Abelian subgroup         C1      NOp   1
 Largest concise Abelian subgroup C1      NOp   1
                         Standard orientation:                         
 ---------------------------------------------------------------------
 Center     Atomic      Atomic             Coordinates (Angstroms)
 Number     Number       Type             X           Y           Z
 ---------------------------------------------------------------------
      1          6           0       -2.296344   -1.256999   -0.000005
      2          1           0       -3.169338   -1.867827   -0.000005
      3          6           0       -1.213867   -0.726830   -0.000005
      4          6           0       -0.092874    0.197817   -0.000005
      5          8           0       -0.252499    1.390380   -0.000009
      6          8           0        1.080752   -0.419829    0.000001
      7          6           0        2.239567    0.440364    0.000002
      8          6           0        3.456887   -0.453950    0.000005
      9          1           0        2.194005    1.079579   -0.883873
     10          1           0        2.194002    1.079580    0.883876
     11          1           0        3.467176   -1.089568    0.886158
     12          1           0        3.467179   -1.089569   -0.886148
     13          1           0        4.360490    0.157857    0.000006
     14          8           0       -3.597628    0.451732    0.000012
     15          1           0       -2.918734    1.149266    0.000009
 ---------------------------------------------------------------------
 Rotational constants (GHZ):           6.2903342           0.8630799           0.7662132
 Standard basis: 6-311++G(d,p) (5D, 7F)
 There are   233 symmetry adapted cartesian basis functions of A   symmetry.
 There are   225 symmetry adapted basis functions of A   symmetry.
   225 basis functions,   351 primitive gaussians,   233 cartesian basis functions
    31 alpha electrons       30 beta electrons
       nuclear repulsion energy       343.7175716442 Hartrees.
 NAtoms=   15 NActive=   15 NUniq=   15 SFac= 1.00D+00 NAtFMM=   60 NAOKFM=F Big=F
 Integral buffers will be    131072 words long.
 Raffenetti 2 integral format.
 Two-electron integral symmetry is turned on.
 One-electron integrals computed using PRISM.
 NBasis=   225 RedAO= T EigKep=  1.77D-06  NBF=   225
 NBsUse=   225 1.00D-06 EigRej= -1.00D+00 NBFU=   225
 ExpMin= 3.60D-02 ExpMax= 8.59D+03 ExpMxC= 1.30D+03 IAcc=3 IRadAn=         5 AccDes= 0.00D+00
 Harris functional with IExCor=  205 and IRadAn=       5 diagonalized for initial guess.
 HarFok:  IExCor=  205 AccDes= 0.00D+00 IRadAn=         5 IDoV= 1 UseB2=F ITyADJ=14
 ICtDFT=  3500011 ScaDFX=  1.000000  1.000000  1.000000  1.000000
 FoFCou: FMM=F IPFlag=           0 FMFlag=      100000 FMFlg1=           0
         NFxFlg=           0 DoJE=T BraDBF=F KetDBF=T FulRan=T
         wScrn=  0.000000 ICntrl=       500 IOpCl=  0 I1Cent=   200000004 NGrid=           0
         NMat0=    1 NMatS0=      1 NMatT0=    0 NMatD0=    1 NMtDS0=    0 NMtDT0=    0
 Petite list used in FoFCou.
 Initial guess <Sx>= 0.0000 <Sy>= 0.0000 <Sz>= 0.5000 <S**2>= 0.7500 S= 0.5000
 Requested convergence on RMS density matrix=1.00D-08 within 128 cycles.
 Requested convergence on MAX density matrix=1.00D-06.
 Requested convergence on             energy=1.00D-06.
 No special actions if energy rises.
 Initial convergence to 1.0D-05 achieved.  Increase integral accuracy.
 SCF Done:  E(UHF) =  -417.990706650     A.U. after   35 cycles
            NFock= 35  Conv=0.14D-08     -V/T= 2.0006
 <Sx>= 0.0000 <Sy>= 0.0000 <Sz>= 0.5000 <S**2>= 0.9142 S= 0.5790
 <L.S>=  0.00000000000    
 Annihilation of the first spin contaminant:
 S**2 before annihilation     0.9142,   after     0.7673
 ExpMin= 3.60D-02 ExpMax= 8.59D+03 ExpMxC= 1.30D+03 IAcc=3 IRadAn=         5 AccDes= 0.00D+00
 HarFok:  IExCor=  205 AccDes= 0.00D+00 IRadAn=         5 IDoV=-2 UseB2=F ITyADJ=14
 ICtDFT= 12500011 ScaDFX=  1.000000  1.000000  1.000000  1.000000
 Range of M.O.s used for correlation:     9   225
 NBasis=   225 NAE=    31 NBE=    30 NFC=     8 NFV=     0
 NROrb=    217 NOA=    23 NOB=    22 NVA=   194 NVB=   195

 **** Warning!!: The largest alpha MO coefficient is  0.16088208D+03


 **** Warning!!: The largest beta MO coefficient is  0.19720963D+03

 Semi-Direct transformation.
 ModeAB=           4 MOrb=            23 LenV=    1609182797
 LASXX=    109339976 LTotXX=   109339976 LenRXX=   221407890
 LTotAB=   112067914 MaxLAS=   122933321 LenRXY=           0
 NonZer=   330747866 LenScr=   498067456 LnRSAI=   122933321
 LnScr1=   185170944 LExtra=           0 Total=   1027579611
 MaxDsk=          -1 SrtSym=           T ITran=            4
 JobTyp=1 Pass  1:  I=   1 to  23.
 (rs|ai) integrals will be sorted in core.
 ModeAB=           4 MOrb=            22 LenV=    1609182797
 LASXX=    104936601 LTotXX=   104936601 LenRXX=   190867446
 LTotAB=    85930845 MaxLAS=   117588394 LenRXY=           0
 NonZer=   295804047 LenScr=   445446144 LnRSAI=   117588394
 LnScr1=   177155072 LExtra=           0 Total=    931057056
 MaxDsk=          -1 SrtSym=           T ITran=            4
 JobTyp=2 Pass  1:  I=   1 to  22.
 (rs|ai) integrals will be sorted in core.
 SymMOI:  orbitals are not symmetric.
 Spin components of T(2) and E(2):
     alpha-alpha T2 =       0.5115338783D-01 E2=     -0.1679304927D+00
     alpha-beta  T2 =       0.2830464612D+00 E2=     -0.9302956874D+00
     beta-beta   T2 =       0.5028419316D-01 E2=     -0.1565322146D+00
 ANorm=    0.1176641000D+01
 E2 =    -0.1254758395D+01 EUMP2 =    -0.41924546504512D+03
 (S**2,0)=  0.91420D+00           (S**2,1)=  0.86823D+00
 E(PUHF)=      -0.41800439703D+03        E(PMP2)=      -0.41925735086D+03
 Keep R2 and R3 ints in memory in canonical form, NReq=652884060.
 CIDS: In Core Option IDoMem=           1.
 Iterations=  50 Convergence= 0.100D-06
 Produce multiple copies of IABC intergrals
 Iteration Nr.   1
 **********************
 DD1Dir will call FoFMem   1 times, MxPair=      1496
 NAB=   506 NAA=   253 NBB=   231.
 E(PMP3)=      -0.41928333029D+03
 MP4(R+Q)=  0.24708876D-01
 E3=       -0.29136852D-01        EUMP3=      -0.41927460190D+03
 E4(DQ)=   -0.56662045D-02        UMP4(DQ)=   -0.41928026810D+03
 E4(SDQ)=  -0.25558634D-01        UMP4(SDQ)=  -0.41930016053D+03
 DE(Corr)=  -1.2587797     E(Corr)=     -419.24948638    
 NORM(A)=   0.11848582D+01
 Iteration Nr.   2
 **********************
 DD1Dir will call FoFMem   1 times, MxPair=      1496
 NAB=   506 NAA=   253 NBB=   231.
 DE(Corr)=  -1.3014048     E(CORR)=     -419.29211145     Delta=-4.26D-02
 NORM(A)=   0.12049743D+01
 Iteration Nr.   3
 **********************
 DD1Dir will call FoFMem   1 times, MxPair=      1496
 NAB=   506 NAA=   253 NBB=   231.
 DE(Corr)=  -1.3040030     E(CORR)=     -419.29470965     Delta=-2.60D-03
 NORM(A)=   0.12150960D+01
 Iteration Nr.   4
 **********************
 DD1Dir will call FoFMem   1 times, MxPair=      1496
 NAB=   506 NAA=   253 NBB=   231.
 DE(Corr)=  -1.3104716     E(CORR)=     -419.30117826     Delta=-6.47D-03
 NORM(A)=   0.12213136D+01
 Iteration Nr.   5
 **********************
 DD1Dir will call FoFMem   1 times, MxPair=      1496
 NAB=   506 NAA=   253 NBB=   231.
 DE(Corr)=  -1.3121582     E(CORR)=     -419.30286486     Delta=-1.69D-03
 NORM(A)=   0.12245912D+01
 Iteration Nr.   6
 **********************
 DD1Dir will call FoFMem   1 times, MxPair=      1496
 NAB=   506 NAA=   253 NBB=   231.
 DE(Corr)=  -1.3126846     E(CORR)=     -419.30339128     Delta=-5.26D-04
 NORM(A)=   0.12251435D+01
 Iteration Nr.   7
 **********************
 DD1Dir will call FoFMem   1 times, MxPair=      1496
 NAB=   506 NAA=   253 NBB=   231.
 DE(Corr)=  -1.3127630     E(CORR)=     -419.30346966     Delta=-7.84D-05
 NORM(A)=   0.12252573D+01
 Iteration Nr.   8
 **********************
 DD1Dir will call FoFMem   1 times, MxPair=      1496
 NAB=   506 NAA=   253 NBB=   231.
 DE(Corr)=  -1.3127459     E(CORR)=     -419.30345258     Delta= 1.71D-05
 NORM(A)=   0.12252803D+01
 Iteration Nr.   9
 **********************
 DD1Dir will call FoFMem   1 times, MxPair=      1496
 NAB=   506 NAA=   253 NBB=   231.
 DE(Corr)=  -1.3127573     E(CORR)=     -419.30346399     Delta=-1.14D-05
 NORM(A)=   0.12252809D+01
 Iteration Nr.  10
 **********************
 DD1Dir will call FoFMem   1 times, MxPair=      1496
 NAB=   506 NAA=   253 NBB=   231.
 DE(Corr)=  -1.3127557     E(CORR)=     -419.30346231     Delta= 1.68D-06
 NORM(A)=   0.12252848D+01
 Iteration Nr.  11
 **********************
 DD1Dir will call FoFMem   1 times, MxPair=      1496
 NAB=   506 NAA=   253 NBB=   231.
 DE(Corr)=  -1.3127649     E(CORR)=     -419.30347151     Delta=-9.20D-06
 NORM(A)=   0.12252962D+01
 Iteration Nr.  12
 **********************
 DD1Dir will call FoFMem   1 times, MxPair=      1496
 NAB=   506 NAA=   253 NBB=   231.
 DE(Corr)=  -1.3127668     E(CORR)=     -419.30347341     Delta=-1.90D-06
 NORM(A)=   0.12253092D+01
 Iteration Nr.  13
 **********************
 DD1Dir will call FoFMem   1 times, MxPair=      1496
 NAB=   506 NAA=   253 NBB=   231.
 DE(Corr)=  -1.3127708     E(CORR)=     -419.30347746     Delta=-4.05D-06
 NORM(A)=   0.12253206D+01
 Iteration Nr.  14
 **********************
 DD1Dir will call FoFMem   1 times, MxPair=      1496
 NAB=   506 NAA=   253 NBB=   231.
 DE(Corr)=  -1.3127731     E(CORR)=     -419.30347979     Delta=-2.33D-06
 NORM(A)=   0.12253283D+01
 Iteration Nr.  15
 **********************
 DD1Dir will call FoFMem   1 times, MxPair=      1496
 NAB=   506 NAA=   253 NBB=   231.
 DE(Corr)=  -1.3127744     E(CORR)=     -419.30348100     Delta=-1.21D-06
 NORM(A)=   0.12253325D+01
 Iteration Nr.  16
 **********************
 DD1Dir will call FoFMem   1 times, MxPair=      1496
 NAB=   506 NAA=   253 NBB=   231.
 DE(Corr)=  -1.3127753     E(CORR)=     -419.30348200     Delta=-9.93D-07
 NORM(A)=   0.12253343D+01
 Iteration Nr.  17
 **********************
 DD1Dir will call FoFMem   1 times, MxPair=      1496
 NAB=   506 NAA=   253 NBB=   231.
 DE(Corr)=  -1.3127755     E(CORR)=     -419.30348219     Delta=-1.90D-07
 NORM(A)=   0.12253348D+01
 Iteration Nr.  18
 **********************
 DD1Dir will call FoFMem   1 times, MxPair=      1496
 NAB=   506 NAA=   253 NBB=   231.
 DE(Corr)=  -1.3127757     E(CORR)=     -419.30348233     Delta=-1.47D-07
 NORM(A)=   0.12253350D+01
 Iteration Nr.  19
 **********************
 DD1Dir will call FoFMem   1 times, MxPair=      1496
 NAB=   506 NAA=   253 NBB=   231.
 DE(Corr)=  -1.3127757     E(CORR)=     -419.30348233     Delta= 2.35D-09
 NORM(A)=   0.12253350D+01
 Wavefunction amplitudes converged. E(Corr)=     -419.30348233    
 Largest amplitude= 7.25D-02
 Time for triples=    38973.03 seconds.
 T4(CCSD)= -0.56511696D-01
 T5(CCSD)=  0.37390260D-02
 CCSD(T)= -0.41935625500D+03

 S**2, projected HF & approx projected MPn energies after annihilation of
 unwanted spin states (see manual for definitions):

 spins       (S**2,0) (S**2,1)    PUHF        PMP2        PMP3        PMP4
 annihilated
 s+1         0.73981  0.74620 -418.004397 -419.257351 -419.283330
 s+1,s+2     0.75013  0.74997 -418.003654 -419.256649 -419.282683
 s+1 to s+3  0.75000  0.75000 -418.003665 -419.256658 -419.282686
 s+1 to s+4  0.75000  0.75000 -418.003665 -419.256658 -419.282686
 s+1 to s+5  0.75000  0.75000 -418.003665
 s+1 to s+6  0.75000  0.75000 -418.003665

 Discarding MO integrals.

 **********************************************************************

            Population analysis using the SCF density.

 **********************************************************************

 Orbital symmetries:
 Alpha Orbitals:
       Occupied  (A) (A) (A) (A) (A) (A) (A) (A) (A) (A) (A) (A)
                 (A) (A) (A) (A) (A) (A) (A) (A) (A) (A) (A) (A)
                 (A) (A) (A) (A) (A) (A) (A)
       Virtual   (A) (A) (A) (A) (A) (A) (A) (A) (A) (A) (A) (A)
                 (A) (A) (A) (A) (A) (A) (A) (A) (A) (A) (A) (A)
                 (A) (A) (A) (A) (A) (A) (A) (A) (A) (A) (A) (A)
                 (A) (A) (A) (A) (A) (A) (A) (A) (A) (A) (A) (A)
                 (A) (A) (A) (A) (A) (A) (A) (A) (A) (A) (A) (A)
                 (A) (A) (A) (A) (A) (A) (A) (A) (A) (A) (A) (A)
                 (A) (A) (A) (A) (A) (A) (A) (A) (A) (A) (A) (A)
                 (A) (A) (A) (A) (A) (A) (A) (A) (A) (A) (A) (A)
                 (A) (A) (A) (A) (A) (A) (A) (A) (A) (A) (A) (A)
                 (A) (A) (A) (A) (A) (A) (A) (A) (A) (A) (A) (A)
                 (A) (A) (A) (A) (A) (A) (A) (A) (A) (A) (A) (A)
                 (A) (A) (A) (A) (A) (A) (A) (A) (A) (A) (A) (A)
                 (A) (A) (A) (A) (A) (A) (A) (A) (A) (A) (A) (A)
                 (A) (A) (A) (A) (A) (A) (A) (A) (A) (A) (A) (A)
                 (A) (A) (A) (A) (A) (A) (A) (A) (A) (A) (A) (A)
                 (A) (A) (A) (A) (A) (A) (A) (A) (A) (A) (A) (A)
                 (A) (A)
 Beta  Orbitals:
       Occupied  (A) (A) (A) (A) (A) (A) (A) (A) (A) (A) (A) (A)
                 (A) (A) (A) (A) (A) (A) (A) (A) (A) (A) (A) (A)
                 (A) (A) (A) (A) (A) (A)
       Virtual   (A) (A) (A) (A) (A) (A) (A) (A) (A) (A) (A) (A)
                 (A) (A) (A) (A) (A) (A) (A) (A) (A) (A) (A) (A)
                 (A) (A) (A) (A) (A) (A) (A) (A) (A) (A) (A) (A)
                 (A) (A) (A) (A) (A) (A) (A) (A) (A) (A) (A) (A)
                 (A) (A) (A) (A) (A) (A) (A) (A) (A) (A) (A) (A)
                 (A) (A) (A) (A) (A) (A) (A) (A) (A) (A) (A) (A)
                 (A) (A) (A) (A) (A) (A) (A) (A) (A) (A) (A) (A)
                 (A) (A) (A) (A) (A) (A) (A) (A) (A) (A) (A) (A)
                 (A) (A) (A) (A) (A) (A) (A) (A) (A) (A) (A) (A)
                 (A) (A) (A) (A) (A) (A) (A) (A) (A) (A) (A) (A)
                 (A) (A) (A) (A) (A) (A) (A) (A) (A) (A) (A) (A)
                 (A) (A) (A) (A) (A) (A) (A) (A) (A) (A) (A) (A)
                 (A) (A) (A) (A) (A) (A) (A) (A) (A) (A) (A) (A)
                 (A) (A) (A) (A) (A) (A) (A) (A) (A) (A) (A) (A)
                 (A) (A) (A) (A) (A) (A) (A) (A) (A) (A) (A) (A)
                 (A) (A) (A) (A) (A) (A) (A) (A) (A) (A) (A) (A)
                 (A) (A) (A)
 The electronic state is 2-A.
 Alpha  occ. eigenvalues --  -20.62298 -20.61650 -20.57185 -11.42130 -11.30446
 Alpha  occ. eigenvalues --  -11.26758 -11.26238 -11.23473  -1.49322  -1.39330
 Alpha  occ. eigenvalues --   -1.37280  -1.09131  -1.04998  -0.92153  -0.84032
 Alpha  occ. eigenvalues --   -0.78281  -0.73232  -0.70361  -0.70346  -0.66064
 Alpha  occ. eigenvalues --   -0.64419  -0.61157  -0.59752  -0.56498  -0.54626
 Alpha  occ. eigenvalues --   -0.53253  -0.52857  -0.49981  -0.48186  -0.43007
 Alpha  occ. eigenvalues --   -0.41890
 Alpha virt. eigenvalues --    0.03791   0.04686   0.05933   0.06235   0.07145
 Alpha virt. eigenvalues --    0.08173   0.08826   0.09498   0.11575   0.12268
 Alpha virt. eigenvalues --    0.12592   0.12942   0.14262   0.15558   0.16231
 Alpha virt. eigenvalues --    0.17656   0.18050   0.18317   0.18770   0.18989
 Alpha virt. eigenvalues --    0.19074   0.20613   0.21242   0.22137   0.22268
 Alpha virt. eigenvalues --    0.23710   0.25255   0.28021   0.28543   0.28900
 Alpha virt. eigenvalues --    0.29167   0.29965   0.30231   0.31281   0.32176
 Alpha virt. eigenvalues --    0.33648   0.34725   0.36248   0.36632   0.37389
 Alpha virt. eigenvalues --    0.38719   0.39167   0.40459   0.41038   0.41967
 Alpha virt. eigenvalues --    0.44060   0.45369   0.46128   0.46847   0.48451
 Alpha virt. eigenvalues --    0.50790   0.54761   0.56558   0.58824   0.63451
 Alpha virt. eigenvalues --    0.63928   0.64810   0.68528   0.70748   0.70958
 Alpha virt. eigenvalues --    0.76991   0.79121   0.79179   0.82041   0.83397
 Alpha virt. eigenvalues --    0.83541   0.84220   0.85035   0.85738   0.86639
 Alpha virt. eigenvalues --    0.87812   0.89031   0.91460   0.96282   0.98107
 Alpha virt. eigenvalues --    1.02456   1.06446   1.07769   1.11756   1.19086
 Alpha virt. eigenvalues --    1.21242   1.22524   1.24916   1.27000   1.30182
 Alpha virt. eigenvalues --    1.31942   1.34062   1.34994   1.37986   1.38932
 Alpha virt. eigenvalues --    1.41544   1.42685   1.47293   1.48712   1.49486
 Alpha virt. eigenvalues --    1.51710   1.54245   1.58625   1.63107   1.63143
 Alpha virt. eigenvalues --    1.67029   1.69105   1.71105   1.71122   1.75831
 Alpha virt. eigenvalues --    1.79643   1.80301   1.81170   1.84913   1.85988
 Alpha virt. eigenvalues --    1.88419   1.92058   1.92583   1.94647   1.99992
 Alpha virt. eigenvalues --    2.01313   2.05691   2.09348   2.10551   2.13168
 Alpha virt. eigenvalues --    2.19255   2.21448   2.28259   2.28428   2.31857
 Alpha virt. eigenvalues --    2.37515   2.41014   2.42824   2.47350   2.55579
 Alpha virt. eigenvalues --    2.64583   2.69439   2.75723   2.77372   2.81888
 Alpha virt. eigenvalues --    2.84971   2.87816   2.89058   2.92053   2.94534
 Alpha virt. eigenvalues --    2.94996   2.96487   2.98189   3.02117   3.03458
 Alpha virt. eigenvalues --    3.10737   3.14780   3.15055   3.18104   3.20105
 Alpha virt. eigenvalues --    3.25384   3.27153   3.30140   3.35045   3.36210
 Alpha virt. eigenvalues --    3.43047   3.43913   3.46279   3.48433   3.51074
 Alpha virt. eigenvalues --    3.57708   3.60630   3.65411   3.68980   3.74628
 Alpha virt. eigenvalues --    3.76878   3.89309   4.02554   4.12073   4.19298
 Alpha virt. eigenvalues --    4.21271   4.21478   4.24598   4.45232   4.51451
 Alpha virt. eigenvalues --    4.55319   4.68899   5.48642   5.54617   5.55810
 Alpha virt. eigenvalues --    5.60285   5.77463   5.90767   6.02252   6.21379
 Alpha virt. eigenvalues --    6.42546  24.70911  24.99324  25.02243  25.13737
 Alpha virt. eigenvalues --   26.21891  51.50849  51.59553  51.71807
  Beta  occ. eigenvalues --  -20.62283 -20.57666 -20.56819 -11.42402 -11.30442
  Beta  occ. eigenvalues --  -11.28093 -11.24669 -11.23473  -1.49128  -1.38704
  Beta  occ. eigenvalues --   -1.22527  -1.07750  -1.04956  -0.92672  -0.83962
  Beta  occ. eigenvalues --   -0.78150  -0.73013  -0.70261  -0.69844  -0.61986
  Beta  occ. eigenvalues --   -0.60623  -0.59466  -0.56406  -0.52804  -0.52799
  Beta  occ. eigenvalues --   -0.50080  -0.48902  -0.47402  -0.43550  -0.42616
  Beta virt. eigenvalues --    0.03794   0.04637   0.05721   0.06228   0.06928
  Beta virt. eigenvalues --    0.07267   0.08631   0.09481   0.10098   0.12266
  Beta virt. eigenvalues --    0.12409   0.12742   0.13266   0.14879   0.15258
  Beta virt. eigenvalues --    0.16185   0.17511   0.17918   0.18269   0.18711
  Beta virt. eigenvalues --    0.19053   0.19128   0.20523   0.21231   0.22303
  Beta virt. eigenvalues --    0.23401   0.24104   0.25909   0.27869   0.28557
  Beta virt. eigenvalues --    0.29024   0.29285   0.30596   0.30833   0.31739
  Beta virt. eigenvalues --    0.32250   0.34475   0.34671   0.36605   0.37034
  Beta virt. eigenvalues --    0.37739   0.39297   0.40036   0.40914   0.41323
  Beta virt. eigenvalues --    0.42579   0.44209   0.45649   0.46915   0.47343
  Beta virt. eigenvalues --    0.48592   0.51511   0.55195   0.56552   0.58979
  Beta virt. eigenvalues --    0.63616   0.63704   0.64845   0.68912   0.69670
  Beta virt. eigenvalues --    0.71105   0.77690   0.78211   0.78936   0.81787
  Beta virt. eigenvalues --    0.83404   0.83825   0.84991   0.85483   0.86240
  Beta virt. eigenvalues --    0.86684   0.87812   0.89611   0.91949   0.96543
  Beta virt. eigenvalues --    0.98338   1.02586   1.06984   1.07901   1.12355
  Beta virt. eigenvalues --    1.19961   1.21234   1.24910   1.26112   1.28188
  Beta virt. eigenvalues --    1.30270   1.33080   1.35874   1.36298   1.38982
  Beta virt. eigenvalues --    1.39944   1.41589   1.42920   1.48691   1.48890
  Beta virt. eigenvalues --    1.49829   1.52227   1.57223   1.58103   1.62382
  Beta virt. eigenvalues --    1.64223   1.66798   1.70508   1.71105   1.73287
  Beta virt. eigenvalues --    1.76999   1.79644   1.80270   1.81427   1.84934
  Beta virt. eigenvalues --    1.86614   1.88460   1.92169   1.93212   1.94666
  Beta virt. eigenvalues --    2.00002   2.01496   2.06303   2.09408   2.10695
  Beta virt. eigenvalues --    2.13246   2.19327   2.21667   2.28262   2.28579
  Beta virt. eigenvalues --    2.31944   2.39110   2.41003   2.42778   2.47357
  Beta virt. eigenvalues --    2.55582   2.64603   2.69415   2.76251   2.77373
  Beta virt. eigenvalues --    2.81911   2.84985   2.87819   2.88757   2.92090
  Beta virt. eigenvalues --    2.94504   2.95033   2.96518   2.98145   3.02728
  Beta virt. eigenvalues --    3.02958   3.12760   3.15301   3.20276   3.21327
  Beta virt. eigenvalues --    3.24600   3.28052   3.30193   3.31630   3.35351
  Beta virt. eigenvalues --    3.37421   3.44147   3.46079   3.47465   3.50399
  Beta virt. eigenvalues --    3.55660   3.60365   3.60617   3.65509   3.69086
  Beta virt. eigenvalues --    3.75067   3.77420   3.89149   4.02785   4.12483
  Beta virt. eigenvalues --    4.19302   4.21271   4.21491   4.27913   4.45312
  Beta virt. eigenvalues --    4.51526   4.55546   4.68919   5.51070   5.55895
  Beta virt. eigenvalues --    5.61152   5.67046   5.77931   5.90817   6.04803
  Beta virt. eigenvalues --    6.21513   6.42635  24.71105  24.99208  25.02145
  Beta virt. eigenvalues --   25.13737  26.21897  51.53135  51.59589  51.72001
          Condensed to atoms (all electrons):
               1          2          3          4          5          6
     1  C   26.131656   0.638644  -9.784170  -9.605108   0.368701   0.399201
     2  H    0.638644   0.408390  -0.264191   0.034029  -0.001092   0.001158
     3  C   -9.784170  -0.264191  19.204622  -5.179591   0.374239   0.010136
     4  C   -9.605108   0.034029  -5.179591  21.849369  -0.358928  -0.717424
     5  O    0.368701  -0.001092   0.374239  -0.358928   8.159673  -0.110058
     6  O    0.399201   0.001158   0.010136  -0.717424  -0.110058   8.495191
     7  C    0.254554   0.004486  -0.583911  -0.185105  -0.074816   0.286684
     8  C   -0.096660  -0.000036  -0.246869   0.449812   0.008487  -0.223900
     9  H    0.007535   0.000023  -0.010407  -0.019664  -0.013315  -0.031998
    10  H    0.007535   0.000023  -0.010407  -0.019665  -0.013315  -0.031998
    11  H   -0.001228   0.000008   0.009825  -0.007629  -0.001137  -0.008816
    12  H   -0.001228   0.000008   0.009825  -0.007629  -0.001137  -0.008816
    13  H    0.001171  -0.000012   0.004350  -0.003884   0.001237   0.023620
    14  O    0.087573  -0.017146  -0.123875  -0.053461  -0.000535  -0.003332
    15  H   -0.032467   0.000642  -0.027593   0.060363   0.006301  -0.000949
               7          8          9         10         11         12
     1  C    0.254554  -0.096660   0.007535   0.007535  -0.001228  -0.001228
     2  H    0.004486  -0.000036   0.000023   0.000023   0.000008   0.000008
     3  C   -0.583911  -0.246869  -0.010407  -0.010407   0.009825   0.009825
     4  C   -0.185105   0.449812  -0.019664  -0.019665  -0.007629  -0.007629
     5  O   -0.074816   0.008487  -0.013315  -0.013315  -0.001137  -0.001137
     6  O    0.286684  -0.223900  -0.031998  -0.031998  -0.008816  -0.008816
     7  C    5.486753   0.011779   0.454050   0.454051  -0.027859  -0.027859
     8  C    0.011779   5.631289  -0.056366  -0.056366   0.396968   0.396968
     9  H    0.454050  -0.056366   0.543790  -0.048768   0.004259  -0.007044
    10  H    0.454051  -0.056366  -0.048768   0.543790  -0.007044   0.004259
    11  H   -0.027859   0.396968   0.004259  -0.007044   0.561968  -0.041092
    12  H   -0.027859   0.396968  -0.007044   0.004259  -0.041092   0.561968
    13  H   -0.060106   0.419261  -0.003602  -0.003602  -0.032646  -0.032646
    14  O   -0.000617   0.000051  -0.000038  -0.000038  -0.000005  -0.000005
    15  H    0.000118   0.000697  -0.000035  -0.000035  -0.000038  -0.000038
              13         14         15
     1  C    0.001171   0.087573  -0.032467
     2  H   -0.000012  -0.017146   0.000642
     3  C    0.004350  -0.123875  -0.027593
     4  C   -0.003884  -0.053461   0.060363
     5  O    0.001237  -0.000535   0.006301
     6  O    0.023620  -0.003332  -0.000949
     7  C   -0.060106  -0.000617   0.000118
     8  C    0.419261   0.000051   0.000697
     9  H   -0.003602  -0.000038  -0.000035
    10  H   -0.003602  -0.000038  -0.000035
    11  H   -0.032646  -0.000005  -0.000038
    12  H   -0.032646  -0.000005  -0.000038
    13  H    0.543576  -0.000009  -0.000003
    14  O   -0.000009   8.057442   0.294389
    15  H   -0.000003   0.294389   0.425205
          Atomic-Atomic Spin Densities.
               1          2          3          4          5          6
     1  C   -0.450400   0.063177  -0.127987  -0.306099   0.015653   0.028628
     2  H    0.063177   0.049606  -0.048218  -0.010551  -0.000136   0.000194
     3  C   -0.127987  -0.048218   0.921076   0.163931  -0.010262  -0.063994
     4  C   -0.306099  -0.010551   0.163931   0.079988  -0.042641   0.055022
     5  O    0.015653  -0.000136  -0.010262  -0.042641   0.103948  -0.000005
     6  O    0.028628   0.000194  -0.063994   0.055022  -0.000005  -0.018638
     7  C    0.063218   0.000494  -0.017978  -0.060322  -0.001186   0.000919
     8  C   -0.005019  -0.000048   0.000740   0.010888  -0.000011   0.000148
     9  H   -0.001892  -0.000009  -0.001396   0.002785  -0.000046  -0.000279
    10  H   -0.001892  -0.000009  -0.001396   0.002785  -0.000046  -0.000279
    11  H   -0.000213  -0.000001  -0.000256   0.000575  -0.000014  -0.000037
    12  H   -0.000213  -0.000001  -0.000256   0.000575  -0.000014  -0.000037
    13  H    0.001055   0.000007  -0.000069  -0.001441  -0.000005  -0.000044
    14  O    0.101434   0.005403  -0.106920  -0.032688   0.002959  -0.000381
    15  H   -0.017388  -0.000799   0.010727   0.008105  -0.000474  -0.000103
               7          8          9         10         11         12
     1  C    0.063218  -0.005019  -0.001892  -0.001892  -0.000213  -0.000213
     2  H    0.000494  -0.000048  -0.000009  -0.000009  -0.000001  -0.000001
     3  C   -0.017978   0.000740  -0.001396  -0.001396  -0.000256  -0.000256
     4  C   -0.060322   0.010888   0.002785   0.002785   0.000575   0.000575
     5  O   -0.001186  -0.000011  -0.000046  -0.000046  -0.000014  -0.000014
     6  O    0.000919   0.000148  -0.000279  -0.000279  -0.000037  -0.000037
     7  C    0.023395  -0.010060   0.000693   0.000693  -0.000263  -0.000263
     8  C   -0.010060   0.005000   0.000114   0.000114   0.000059   0.000059
     9  H    0.000693   0.000114  -0.000212   0.000174   0.000018  -0.000002
    10  H    0.000693   0.000114   0.000174  -0.000212  -0.000002   0.000018
    11  H   -0.000263   0.000059   0.000018  -0.000002   0.000100   0.000019
    12  H   -0.000263   0.000059  -0.000002   0.000018   0.000019   0.000100
    13  H    0.000984  -0.000878   0.000128   0.000128   0.000036   0.000036
    14  O    0.000944  -0.000069  -0.000016  -0.000016  -0.000002  -0.000002
    15  H   -0.000892   0.000106   0.000003   0.000003   0.000002   0.000002
              13         14         15
     1  C    0.001055   0.101434  -0.017388
     2  H    0.000007   0.005403  -0.000799
     3  C   -0.000069  -0.106920   0.010727
     4  C   -0.001441  -0.032688   0.008105
     5  O   -0.000005   0.002959  -0.000474
     6  O   -0.000044  -0.000381  -0.000103
     7  C    0.000984   0.000944  -0.000892
     8  C   -0.000878  -0.000069   0.000106
     9  H    0.000128  -0.000016   0.000003
    10  H    0.000128  -0.000016   0.000003
    11  H    0.000036  -0.000002   0.000002
    12  H    0.000036  -0.000002   0.000002
    13  H    0.000085   0.000001  -0.000005
    14  O    0.000001   0.979168   0.004770
    15  H   -0.000005   0.004770  -0.039007
 Mulliken charges and spin densities:
               1          2
     1  C   -2.375709  -0.637937
     2  H    0.195064   0.059108
     3  C    2.618019   0.717740
     4  C   -0.235485  -0.129089
     5  O   -0.344306   0.067720
     6  O   -0.078698   0.001115
     7  C    0.007797   0.000375
     8  C   -0.635113   0.001144
     9  H    0.181579   0.000063
    10  H    0.181580   0.000063
    11  H    0.154465   0.000022
    12  H    0.154465   0.000022
    13  H    0.143295   0.000020
    14  O   -0.240395   0.954583
    15  H    0.273442  -0.034950
 Sum of Mulliken charges =  -0.00000   1.00000
 Mulliken charges and spin densities with hydrogens summed into heavy atoms:
               1          2
     1  C   -2.180645  -0.578829
     3  C    2.618019   0.717740
     4  C   -0.235485  -0.129089
     5  O   -0.344306   0.067720
     6  O   -0.078698   0.001115
     7  C    0.370956   0.000501
     8  C   -0.182888   0.001208
    14  O    0.033047   0.919634
 Electronic spatial extent (au):  <R**2>=           1437.3652
 Charge=             -0.0000 electrons
 Dipole moment (field-independent basis, Debye):
    X=              2.4468    Y=             -0.8630    Z=              0.0000  Tot=              2.5946
 Quadrupole moment (field-independent basis, Debye-Ang):
   XX=            -43.8267   YY=            -48.1214   ZZ=            -47.6646
   XY=              4.6008   XZ=              0.0000   YZ=              0.0000
 Traceless Quadrupole moment (field-independent basis, Debye-Ang):
   XX=              2.7109   YY=             -1.5838   ZZ=             -1.1270
   XY=              4.6008   XZ=              0.0000   YZ=              0.0000
 Octapole moment (field-independent basis, Debye-Ang**2):
  XXX=             33.5252  YYY=              1.1648  ZZZ=              0.0000  XYY=            -16.2471
  XXY=             -5.3354  XXZ=             -0.0001  XZZ=              3.7875  YZZ=              3.5328
  YYZ=              0.0001  XYZ=             -0.0001
 Hexadecapole moment (field-independent basis, Debye-Ang**3):
 XXXX=          -1598.3880 YYYY=           -245.2058 ZZZZ=            -59.8917 XXXY=             47.3173
 XXXZ=              0.0006 YYYX=              0.2522 YYYZ=              0.0001 ZZZX=             -0.0000
 ZZZY=             -0.0001 XXYY=           -237.0055 XXZZ=           -279.1589 YYZZ=            -50.5754
 XXYZ=              0.0002 YYXZ=             -0.0001 ZZXY=             -4.9616
 N-N= 3.437175716442D+02 E-N=-1.670315503048D+03  KE= 4.177367579624D+02
 1\1\GINC-AJ\SP\UCCSD(T)-FC\6-311++G(d,p)\C5H7O3(2)\AAYUSH\23-Apr-2025\
 0\\# ccsd(t)/6-311++g(d,p) sp\\Title Card Required\\0,2\C,0,2.217544,-
 1.255203,0.000005\H,0,3.092393,-1.863372,0.000005\C,0,1.133459,-0.7283
 3,0.000005\C,0,0.009658,0.192902,0.000005\O,0,0.165653,1.385945,0.0000
 09\O,0,-1.162084,-0.428313,-0.000001\C,0,-2.323511,0.42835,-0.000002\C
 ,0,-3.538104,-0.469664,-0.000005\H,0,-2.279894,1.067701,0.883873\H,0,-
 2.279891,1.067702,-0.883876\H,0,-3.546459,-1.10531,-0.886158\H,0,-3.54
 6462,-1.105311,0.886148\H,0,-4.443564,0.139391,-0.000006\O,0,3.513623,
 0.45748,-0.000012\H,0,2.832609,1.152945,-0.000009\\Version=ES64L-G16Re
 vA.03\State=2-A\HF=-417.9907067\MP2=-419.245465\MP3=-419.2746019\MP4D=
 -419.304977\MP4DQ=-419.2802681\PUHF=-418.004397\PMP2-0=-419.2573509\PM
 P3-0=-419.2833303\MP4SDQ=-419.3001605\CCSD=-419.3034823\CCSD(T)=-419.3
 56255\S2=0.914201\S2-1=0.868228\S2A=0.767259\RMSD=1.440e-09\PG=C01 [X(
 C5H7O3)]\\@


 BE CAREFUL NOT TO BECOME TOO GOOD OF A SONGBIRD OR 
 THEY'LL THROW YOU INTO A CAGE.

                                    -- SNOOPY TO WOODSTOCK
 Job cpu time:       0 days 19 hours  4 minutes 47.8 seconds.
 Elapsed time:       0 days  0 hours 47 minutes 59.1 seconds.
 File lengths (MBytes):  RWF=  44733 Int=      0 D2E=      0 Chk=      7 Scr=      1
 Normal termination of Gaussian 16 at Wed Apr 23 13:22:35 2025.
