 Entering Gaussian System, Link 0=g16
 Initial command:
 /opt/g16/l1.exe "/home/aayush/scratches/g16/Gau-8519.inp" -scrdir="/home/aayush/scratches/g16/"
 Entering Link 1 = /opt/g16/l1.exe PID=      8522.
  
 Copyright (c) 1988,1990,1992,1993,1995,1998,2003,2009,2016,
            Gaussian, Inc.  All Rights Reserved.
  
 This is part of the Gaussian(R) 16 program.  It is based on
 the Gaussian(R) 09 system (copyright 2009, Gaussian, Inc.),
 the Gaussian(R) 03 system (copyright 2003, Gaussian, Inc.),
 the Gaussian(R) 98 system (copyright 1998, Gaussian, Inc.),
 the Gaussian(R) 94 system (copyright 1995, Gaussian, Inc.),
 the Gaussian 92(TM) system (copyright 1992, Gaussian, Inc.),
 the Gaussian 90(TM) system (copyright 1990, Gaussian, Inc.),
 the Gaussian 88(TM) system (copyright 1988, Gaussian, Inc.),
 the Gaussian 86(TM) system (copyright 1986, Carnegie Mellon
 University), and the Gaussian 82(TM) system (copyright 1983,
 Carnegie Mellon University). Gaussian is a federally registered
 trademark of Gaussian, Inc.
  
 This software contains proprietary and confidential information,
 including trade secrets, belonging to Gaussian, Inc.
  
 This software is provided under written license and may be
 used, copied, transmitted, or stored only in accord with that
 written license.
  
 The following legend is applicable only to US Government
 contracts under FAR:
  
                    RESTRICTED RIGHTS LEGEND
  
 Use, reproduction and disclosure by the US Government is
 subject to restrictions as set forth in subparagraphs (a)
 and (c) of the Commercial Computer Software - Restricted
 Rights clause in FAR 52.227-19.
  
 Gaussian, Inc.
 340 Quinnipiac St., Bldg. 40, Wallingford CT 06492
  
  
 ---------------------------------------------------------------
 Warning -- This program may not be used in any manner that
 competes with the business of Gaussian, Inc. or will provide
 assistance to any competitor of Gaussian, Inc.  The licensee
 of this program is prohibited from giving any competitor of
 Gaussian, Inc. access to this program.  By using this program,
 the user acknowledges that Gaussian, Inc. is engaged in the
 business of creating and licensing software in the field of
 computational chemistry and represents and warrants to the
 licensee that it is not a competitor of Gaussian, Inc. and that
 it will not use this program in any manner prohibited above.
 ---------------------------------------------------------------
  

 Cite this work as:
 Gaussian 16, Revision A.03,
 M. J. Frisch, G. W. Trucks, H. B. Schlegel, G. E. Scuseria, 
 M. A. Robb, J. R. Cheeseman, G. Scalmani, V. Barone, 
 G. A. Petersson, H. Nakatsuji, X. Li, M. Caricato, A. V. Marenich, 
 J. Bloino, B. G. Janesko, R. Gomperts, B. Mennucci, H. P. Hratchian, 
 J. V. Ortiz, A. F. Izmaylov, J. L. Sonnenberg, D. Williams-Young, 
 F. Ding, F. Lipparini, F. Egidi, J. Goings, B. Peng, A. Petrone, 
 T. Henderson, D. Ranasinghe, V. G. Zakrzewski, J. Gao, N. Rega, 
 G. Zheng, W. Liang, M. Hada, M. Ehara, K. Toyota, R. Fukuda, 
 J. Hasegawa, M. Ishida, T. Nakajima, Y. Honda, O. Kitao, H. Nakai, 
 T. Vreven, K. Throssell, J. A. Montgomery, Jr., J. E. Peralta, 
 F. Ogliaro, M. J. Bearpark, J. J. Heyd, E. N. Brothers, K. N. Kudin, 
 V. N. Staroverov, T. A. Keith, R. Kobayashi, J. Normand, 
 K. Raghavachari, A. P. Rendell, J. C. Burant, S. S. Iyengar, 
 J. Tomasi, M. Cossi, J. M. Millam, M. Klene, C. Adamo, R. Cammi, 
 J. W. Ochterski, R. L. Martin, K. Morokuma, O. Farkas, 
 J. B. Foresman, and D. J. Fox, Gaussian, Inc., Wallingford CT, 2016.
 
 ******************************************
 Gaussian 16:  ES64L-G16RevA.03 25-Dec-2016
                23-Apr-2025 
 ******************************************
 %chk=ethyl_propiolate.chk
 %nprocshared=24
 Will use up to   24 processors via shared memory.
 %mem=12GB
 --------------------------
 # ccsd(t)/6-311++g(d,p) sp
 --------------------------
 1/38=1,172=1/1;
 2/12=2,17=6,18=5,40=1/2;
 3/5=4,6=6,7=1111,11=9,25=1,30=1/1,2,3;
 4//1;
 5/5=2,38=5/2;
 8/6=4,9=120000,10=2/1,4;
 9/5=7,14=2/13;
 6/7=2,8=2,9=2,10=2/1;
 99/5=1,9=1/99;
 -------------------
 Title Card Required
 -------------------
 Symbolic Z-matrix:
 Charge =  0 Multiplicity = 2
 C                     2.2727   -1.16928   0.00001 
 H                     3.07871  -1.86983   0.00001 
 C                     1.13178  -0.73347   0. 
 C                     0.00942   0.19232   0.00001 
 O                     0.16696   1.38469   0.00001 
 O                    -1.16211  -0.42868  0. 
 C                    -2.32378   0.42845  0. 
 C                    -3.53828  -0.4695   -0.00001 
 H                    -2.27972   1.0676    0.88396 
 H                    -2.27971   1.0676   -0.88396 
 H                    -3.54684  -1.10502  -0.88624 
 H                    -3.54684  -1.10503   0.88622 
 H                    -4.44357   0.13977  -0.00001 
 O                     3.47416   0.40096  -0.00001 
 H                     2.82415   1.12349   0. 
 
                          Input orientation:                          
 ---------------------------------------------------------------------
 Center     Atomic      Atomic             Coordinates (Angstroms)
 Number     Number       Type             X           Y           Z
 ---------------------------------------------------------------------
      1          6           0        2.272698   -1.169283    0.000006
      2          1           0        3.078711   -1.869828    0.000009
      3          6           0        1.131783   -0.733467    0.000004
      4          6           0        0.009418    0.192323    0.000006
      5          8           0        0.166963    1.384685    0.000009
      6          8           0       -1.162110   -0.428675   -0.000001
      7          6           0       -2.323784    0.428445   -0.000002
      8          6           0       -3.538278   -0.469504   -0.000005
      9          1           0       -2.279718    1.067597    0.883957
     10          1           0       -2.279714    1.067601   -0.883959
     11          1           0       -3.546836   -1.105024   -0.886236
     12          1           0       -3.546839   -1.105027    0.886218
     13          1           0       -4.443567    0.139770   -0.000007
     14          8           0        3.474156    0.400958   -0.000013
     15          1           0        2.824153    1.123491    0.000000
 ---------------------------------------------------------------------
                    Distance matrix (angstroms):
                    1          2          3          4          5
     1  C    0.000000
     2  H    1.067905   0.000000
     3  C    1.221320   2.254295   0.000000
     4  C    2.641289   3.697706   1.454919   0.000000
     5  O    3.310117   4.366936   2.327541   1.202725   0.000000
     6  O    3.513745   4.479005   2.314053   1.325940   2.248268
     7  C    4.866249   5.871032   3.645680   2.345119   2.667998
     8  C    5.852959   6.763538   4.677515   3.608900   4.143287
     9  H    5.148737   6.174349   3.957719   2.605306   2.620717
    10  H    5.148738   6.174351   3.957720   2.605308   2.620719
    11  H    5.886980   6.728167   4.776291   3.887863   4.558112
    12  H    5.886978   6.728165   4.776289   3.887860   4.558109
    13  H    6.842648   7.786087   5.643321   4.453295   4.775647
    14  O    1.977159   2.304961   2.602620   3.471014   3.450398
    15  H    2.358159   3.004124   2.512451   2.964761   2.669996
                    6          7          8          9         10
     6  O    0.000000
     7  C    1.443655   0.000000
     8  C    2.376519   1.510400   0.000000
     9  H    2.066219   1.091715   2.174406   0.000000
    10  H    2.066219   1.091715   2.174408   1.767916   0.000000
    11  H    2.632447   2.152393   1.090580   3.075622   2.515135
    12  H    2.632445   2.152391   1.090575   2.515133   3.075621
    13  H    3.330329   2.139349   1.091221   2.514855   2.514856
    14  O    4.709910   5.798005   7.066253   5.859426   5.859419
    15  H    4.277793   5.194646   6.558823   5.180155   5.180151
                   11         12         13         14         15
    11  H    0.000000
    12  H    1.772454   0.000000
    13  H    1.771734   1.771732   0.000000
    14  O    7.235171   7.235176   7.922030   0.000000
    15  H    6.807437   6.807438   7.333994   0.971884   0.000000
 Stoichiometry    C5H7O3(2)
 Framework group  C1[X(C5H7O3)]
 Deg. of freedom    39
 Full point group                 C1      NOp   1
 Largest Abelian subgroup         C1      NOp   1
 Largest concise Abelian subgroup C1      NOp   1
                         Standard orientation:                         
 ---------------------------------------------------------------------
 Center     Atomic      Atomic             Coordinates (Angstroms)
 Number     Number       Type             X           Y           Z
 ---------------------------------------------------------------------
      1          6           0       -2.356328   -1.162113   -0.000006
      2          1           0       -3.162842   -1.862082   -0.000009
      3          6           0       -1.215102   -0.727113   -0.000004
      4          6           0       -0.092075    0.197874   -0.000006
      5          8           0       -0.248767    1.390348   -0.000009
      6          8           0        1.079008   -0.423962    0.000001
      7          6           0        2.241295    0.432327    0.000002
      8          6           0        3.455147   -0.466490    0.000005
      9          1           0        2.197686    1.071511   -0.883957
     10          1           0        2.197682    1.071515    0.883959
     11          1           0        3.463250   -1.102016    0.886236
     12          1           0        3.463253   -1.102019   -0.886218
     13          1           0        4.360871    0.142137    0.000007
     14          8           0       -3.556663    0.408987    0.000013
     15          1           0       -2.906144    1.131055   -0.000000
 ---------------------------------------------------------------------
 Rotational constants (GHZ):           6.5578345           0.8654197           0.7719026
 Standard basis: 6-311++G(d,p) (5D, 7F)
 There are   233 symmetry adapted cartesian basis functions of A   symmetry.
 There are   225 symmetry adapted basis functions of A   symmetry.
   225 basis functions,   351 primitive gaussians,   233 cartesian basis functions
    31 alpha electrons       30 beta electrons
       nuclear repulsion energy       345.1233578318 Hartrees.
 NAtoms=   15 NActive=   15 NUniq=   15 SFac= 1.00D+00 NAtFMM=   60 NAOKFM=F Big=F
 Integral buffers will be    131072 words long.
 Raffenetti 2 integral format.
 Two-electron integral symmetry is turned on.
 One-electron integrals computed using PRISM.
 NBasis=   225 RedAO= T EigKep=  3.07D-06  NBF=   225
 NBsUse=   225 1.00D-06 EigRej= -1.00D+00 NBFU=   225
 ExpMin= 3.60D-02 ExpMax= 8.59D+03 ExpMxC= 1.30D+03 IAcc=3 IRadAn=         5 AccDes= 0.00D+00
 Harris functional with IExCor=  205 and IRadAn=       5 diagonalized for initial guess.
 HarFok:  IExCor=  205 AccDes= 0.00D+00 IRadAn=         5 IDoV= 1 UseB2=F ITyADJ=14
 ICtDFT=  3500011 ScaDFX=  1.000000  1.000000  1.000000  1.000000
 FoFCou: FMM=F IPFlag=           0 FMFlag=      100000 FMFlg1=           0
         NFxFlg=           0 DoJE=T BraDBF=F KetDBF=T FulRan=T
         wScrn=  0.000000 ICntrl=       500 IOpCl=  0 I1Cent=   200000004 NGrid=           0
         NMat0=    1 NMatS0=      1 NMatT0=    0 NMatD0=    1 NMtDS0=    0 NMtDT0=    0
 Petite list used in FoFCou.
 Initial guess <Sx>= 0.0000 <Sy>= 0.0000 <Sz>= 0.5000 <S**2>= 0.7500 S= 0.5000
 Requested convergence on RMS density matrix=1.00D-08 within 128 cycles.
 Requested convergence on MAX density matrix=1.00D-06.
 Requested convergence on             energy=1.00D-06.
 No special actions if energy rises.
 Initial convergence to 1.0D-05 achieved.  Increase integral accuracy.
 SCF Done:  E(UHF) =  -417.984713873     A.U. after   33 cycles
            NFock= 33  Conv=0.59D-08     -V/T= 2.0006
 <Sx>= 0.0000 <Sy>= 0.0000 <Sz>= 0.5000 <S**2>= 1.0652 S= 0.6468
 <L.S>=  0.00000000000    
 Annihilation of the first spin contaminant:
 S**2 before annihilation     1.0652,   after     0.8156
 ExpMin= 3.60D-02 ExpMax= 8.59D+03 ExpMxC= 1.30D+03 IAcc=3 IRadAn=         5 AccDes= 0.00D+00
 HarFok:  IExCor=  205 AccDes= 0.00D+00 IRadAn=         5 IDoV=-2 UseB2=F ITyADJ=14
 ICtDFT= 12500011 ScaDFX=  1.000000  1.000000  1.000000  1.000000
 Range of M.O.s used for correlation:     9   225
 NBasis=   225 NAE=    31 NBE=    30 NFC=     8 NFV=     0
 NROrb=    217 NOA=    23 NOB=    22 NVA=   194 NVB=   195

 **** Warning!!: The largest alpha MO coefficient is  0.13525638D+03


 **** Warning!!: The largest beta MO coefficient is  0.14342462D+03

 Semi-Direct transformation.
 ModeAB=           4 MOrb=            23 LenV=    1609182664
 LASXX=    109339976 LTotXX=   109339976 LenRXX=   221407890
 LTotAB=   112067914 MaxLAS=   122988222 LenRXY=           0
 NonZer=   330747866 LenScr=   498067456 LnRSAI=   122988222
 LnScr1=   185236480 LExtra=           0 Total=   1027700048
 MaxDsk=          -1 SrtSym=           T ITran=            4
 JobTyp=1 Pass  1:  I=   1 to  23.
 (rs|ai) integrals will be sorted in core.
 ModeAB=           4 MOrb=            22 LenV=    1609182664
 LASXX=    104936601 LTotXX=   104936601 LenRXX=   190867446
 LTotAB=    85930845 MaxLAS=   117640908 LenRXY=           0
 NonZer=   295804047 LenScr=   445446144 LnRSAI=   117640908
 LnScr1=   177241600 LExtra=           0 Total=    931196098
 MaxDsk=          -1 SrtSym=           T ITran=            4
 JobTyp=2 Pass  1:  I=   1 to  22.
 (rs|ai) integrals will be sorted in core.
 SymMOI:  orbitals are not symmetric.
 Spin components of T(2) and E(2):
     alpha-alpha T2 =       0.5049353097D-01 E2=     -0.1672900269D+00
     alpha-beta  T2 =       0.2789941105D+00 E2=     -0.9246168340D+00
     beta-beta   T2 =       0.5071715564D-01 E2=     -0.1580413514D+00
 ANorm=    0.1174821177D+01
 E2 =    -0.1249948212D+01 EUMP2 =    -0.41923466208537D+03
 (S**2,0)=  0.10652D+01           (S**2,1)=  0.98094D+00
 E(PUHF)=      -0.41801008655D+03        E(PMP2)=      -0.41925701383D+03
 Keep R2 and R3 ints in memory in canonical form, NReq=652884060.
 CIDS: In Core Option IDoMem=           1.
 Iterations=  50 Convergence= 0.100D-06
 Produce multiple copies of IABC intergrals
 Iteration Nr.   1
 **********************
 DD1Dir will call FoFMem   1 times, MxPair=      1496
 NAB=   506 NAA=   253 NBB=   231.
 E(PMP3)=      -0.41928287315D+03
 MP4(R+Q)=  0.24267017D-01
 E3=       -0.31046744D-01        EUMP3=      -0.41926570883D+03
 E4(DQ)=   -0.58742152D-02        UMP4(DQ)=   -0.41927158304D+03
 E4(SDQ)=  -0.27665822D-01        UMP4(SDQ)=  -0.41929337465D+03
 DE(Corr)=  -1.2565332     E(Corr)=     -419.24124711    
 NORM(A)=   0.11854949D+01
 Iteration Nr.   2
 **********************
 DD1Dir will call FoFMem   1 times, MxPair=      1496
 NAB=   506 NAA=   253 NBB=   231.
 DE(Corr)=  -1.3004987     E(CORR)=     -419.28521262     Delta=-4.40D-02
 NORM(A)=   0.12085705D+01
 Iteration Nr.   3
 **********************
 DD1Dir will call FoFMem   1 times, MxPair=      1496
 NAB=   506 NAA=   253 NBB=   231.
 DE(Corr)=  -1.3044612     E(CORR)=     -419.28917510     Delta=-3.96D-03
 NORM(A)=   0.12238345D+01
 Iteration Nr.   4
 **********************
 DD1Dir will call FoFMem   1 times, MxPair=      1496
 NAB=   506 NAA=   253 NBB=   231.
 DE(Corr)=  -1.3130399     E(CORR)=     -419.29775379     Delta=-8.58D-03
 NORM(A)=   0.12344731D+01
 Iteration Nr.   5
 **********************
 DD1Dir will call FoFMem   1 times, MxPair=      1496
 NAB=   506 NAA=   253 NBB=   231.
 DE(Corr)=  -1.3157770     E(CORR)=     -419.30049089     Delta=-2.74D-03
 NORM(A)=   0.12392933D+01
 Iteration Nr.   6
 **********************
 DD1Dir will call FoFMem   1 times, MxPair=      1496
 NAB=   506 NAA=   253 NBB=   231.
 DE(Corr)=  -1.3165583     E(CORR)=     -419.30127218     Delta=-7.81D-04
 NORM(A)=   0.12399405D+01
 Iteration Nr.   7
 **********************
 DD1Dir will call FoFMem   1 times, MxPair=      1496
 NAB=   506 NAA=   253 NBB=   231.
 DE(Corr)=  -1.3166490     E(CORR)=     -419.30136291     Delta=-9.07D-05
 NORM(A)=   0.12400979D+01
 Iteration Nr.   8
 **********************
 DD1Dir will call FoFMem   1 times, MxPair=      1496
 NAB=   506 NAA=   253 NBB=   231.
 DE(Corr)=  -1.3166274     E(CORR)=     -419.30134125     Delta= 2.17D-05
 NORM(A)=   0.12401053D+01
 Iteration Nr.   9
 **********************
 DD1Dir will call FoFMem   1 times, MxPair=      1496
 NAB=   506 NAA=   253 NBB=   231.
 DE(Corr)=  -1.3166408     E(CORR)=     -419.30135469     Delta=-1.34D-05
 NORM(A)=   0.12400975D+01
 Iteration Nr.  10
 **********************
 DD1Dir will call FoFMem   1 times, MxPair=      1496
 NAB=   506 NAA=   253 NBB=   231.
 DE(Corr)=  -1.3166349     E(CORR)=     -419.30134881     Delta= 5.88D-06
 NORM(A)=   0.12400995D+01
 Iteration Nr.  11
 **********************
 DD1Dir will call FoFMem   1 times, MxPair=      1496
 NAB=   506 NAA=   253 NBB=   231.
 DE(Corr)=  -1.3166477     E(CORR)=     -419.30136156     Delta=-1.27D-05
 NORM(A)=   0.12401217D+01
 Iteration Nr.  12
 **********************
 DD1Dir will call FoFMem   1 times, MxPair=      1496
 NAB=   506 NAA=   253 NBB=   231.
 DE(Corr)=  -1.3166522     E(CORR)=     -419.30136603     Delta=-4.47D-06
 NORM(A)=   0.12401510D+01
 Iteration Nr.  13
 **********************
 DD1Dir will call FoFMem   1 times, MxPair=      1496
 NAB=   506 NAA=   253 NBB=   231.
 DE(Corr)=  -1.3166601     E(CORR)=     -419.30137398     Delta=-7.96D-06
 NORM(A)=   0.12401751D+01
 Iteration Nr.  14
 **********************
 DD1Dir will call FoFMem   1 times, MxPair=      1496
 NAB=   506 NAA=   253 NBB=   231.
 DE(Corr)=  -1.3166655     E(CORR)=     -419.30137935     Delta=-5.36D-06
 NORM(A)=   0.12401911D+01
 Iteration Nr.  15
 **********************
 DD1Dir will call FoFMem   1 times, MxPair=      1496
 NAB=   506 NAA=   253 NBB=   231.
 DE(Corr)=  -1.3166682     E(CORR)=     -419.30138205     Delta=-2.70D-06
 NORM(A)=   0.12401987D+01
 Iteration Nr.  16
 **********************
 DD1Dir will call FoFMem   1 times, MxPair=      1496
 NAB=   506 NAA=   253 NBB=   231.
 DE(Corr)=  -1.3166700     E(CORR)=     -419.30138388     Delta=-1.83D-06
 NORM(A)=   0.12402023D+01
 Iteration Nr.  17
 **********************
 DD1Dir will call FoFMem   1 times, MxPair=      1496
 NAB=   506 NAA=   253 NBB=   231.
 DE(Corr)=  -1.3166705     E(CORR)=     -419.30138435     Delta=-4.73D-07
 NORM(A)=   0.12402032D+01
 Iteration Nr.  18
 **********************
 DD1Dir will call FoFMem   1 times, MxPair=      1496
 NAB=   506 NAA=   253 NBB=   231.
 DE(Corr)=  -1.3166707     E(CORR)=     -419.30138456     Delta=-2.06D-07
 NORM(A)=   0.12402034D+01
 Iteration Nr.  19
 **********************
 DD1Dir will call FoFMem   1 times, MxPair=      1496
 NAB=   506 NAA=   253 NBB=   231.
 DE(Corr)=  -1.3166707     E(CORR)=     -419.30138457     Delta=-1.22D-08
 NORM(A)=   0.12402034D+01
 Wavefunction amplitudes converged. E(Corr)=     -419.30138457    
 Largest amplitude= 8.77D-02
 Time for triples=    42923.29 seconds.
 T4(CCSD)= -0.58318339D-01
 T5(CCSD)=  0.42899914D-02
 CCSD(T)= -0.41935541292D+03

 S**2, projected HF & approx projected MPn energies after annihilation of
 unwanted spin states (see manual for definitions):

 spins       (S**2,0) (S**2,1)    PUHF        PMP2        PMP3        PMP4
 annihilated
 s+1         0.71128  0.73429 -418.010087 -419.257014 -419.282873
 s+1,s+2     0.75073  0.74987 -418.007591 -419.254635 -419.280650
 s+1 to s+3  0.74999  0.75000 -418.007652 -419.254680 -419.280671
 s+1 to s+4  0.75000  0.75000 -418.007652 -419.254679 -419.280670
 s+1 to s+5  0.75000  0.75000 -418.007652
 s+1 to s+6  0.75000  0.75000 -418.007652

 Discarding MO integrals.

 **********************************************************************

            Population analysis using the SCF density.

 **********************************************************************

 Orbital symmetries:
 Alpha Orbitals:
       Occupied  (A) (A) (A) (A) (A) (A) (A) (A) (A) (A) (A) (A)
                 (A) (A) (A) (A) (A) (A) (A) (A) (A) (A) (A) (A)
                 (A) (A) (A) (A) (A) (A) (A)
       Virtual   (A) (A) (A) (A) (A) (A) (A) (A) (A) (A) (A) (A)
                 (A) (A) (A) (A) (A) (A) (A) (A) (A) (A) (A) (A)
                 (A) (A) (A) (A) (A) (A) (A) (A) (A) (A) (A) (A)
                 (A) (A) (A) (A) (A) (A) (A) (A) (A) (A) (A) (A)
                 (A) (A) (A) (A) (A) (A) (A) (A) (A) (A) (A) (A)
                 (A) (A) (A) (A) (A) (A) (A) (A) (A) (A) (A) (A)
                 (A) (A) (A) (A) (A) (A) (A) (A) (A) (A) (A) (A)
                 (A) (A) (A) (A) (A) (A) (A) (A) (A) (A) (A) (A)
                 (A) (A) (A) (A) (A) (A) (A) (A) (A) (A) (A) (A)
                 (A) (A) (A) (A) (A) (A) (A) (A) (A) (A) (A) (A)
                 (A) (A) (A) (A) (A) (A) (A) (A) (A) (A) (A) (A)
                 (A) (A) (A) (A) (A) (A) (A) (A) (A) (A) (A) (A)
                 (A) (A) (A) (A) (A) (A) (A) (A) (A) (A) (A) (A)
                 (A) (A) (A) (A) (A) (A) (A) (A) (A) (A) (A) (A)
                 (A) (A) (A) (A) (A) (A) (A) (A) (A) (A) (A) (A)
                 (A) (A) (A) (A) (A) (A) (A) (A) (A) (A) (A) (A)
                 (A) (A)
 Beta  Orbitals:
       Occupied  (A) (A) (A) (A) (A) (A) (A) (A) (A) (A) (A) (A)
                 (A) (A) (A) (A) (A) (A) (A) (A) (A) (A) (A) (A)
                 (A) (A) (A) (A) (A) (A)
       Virtual   (A) (A) (A) (A) (A) (A) (A) (A) (A) (A) (A) (A)
                 (A) (A) (A) (A) (A) (A) (A) (A) (A) (A) (A) (A)
                 (A) (A) (A) (A) (A) (A) (A) (A) (A) (A) (A) (A)
                 (A) (A) (A) (A) (A) (A) (A) (A) (A) (A) (A) (A)
                 (A) (A) (A) (A) (A) (A) (A) (A) (A) (A) (A) (A)
                 (A) (A) (A) (A) (A) (A) (A) (A) (A) (A) (A) (A)
                 (A) (A) (A) (A) (A) (A) (A) (A) (A) (A) (A) (A)
                 (A) (A) (A) (A) (A) (A) (A) (A) (A) (A) (A) (A)
                 (A) (A) (A) (A) (A) (A) (A) (A) (A) (A) (A) (A)
                 (A) (A) (A) (A) (A) (A) (A) (A) (A) (A) (A) (A)
                 (A) (A) (A) (A) (A) (A) (A) (A) (A) (A) (A) (A)
                 (A) (A) (A) (A) (A) (A) (A) (A) (A) (A) (A) (A)
                 (A) (A) (A) (A) (A) (A) (A) (A) (A) (A) (A) (A)
                 (A) (A) (A) (A) (A) (A) (A) (A) (A) (A) (A) (A)
                 (A) (A) (A) (A) (A) (A) (A) (A) (A) (A) (A) (A)
                 (A) (A) (A) (A) (A) (A) (A) (A) (A) (A) (A) (A)
                 (A) (A) (A)
 The electronic state is 2-A.
 Alpha  occ. eigenvalues --  -20.62302 -20.61141 -20.57267 -11.41994 -11.30478
 Alpha  occ. eigenvalues --  -11.27306 -11.26842 -11.23507  -1.49382  -1.39489
 Alpha  occ. eigenvalues --   -1.36774  -1.09623  -1.05095  -0.92047  -0.84078
 Alpha  occ. eigenvalues --   -0.78421  -0.73087  -0.70541  -0.70415  -0.65118
 Alpha  occ. eigenvalues --   -0.63836  -0.61330  -0.59793  -0.56530  -0.54313
 Alpha  occ. eigenvalues --   -0.53317  -0.52909  -0.50395  -0.48359  -0.43255
 Alpha  occ. eigenvalues --   -0.42036
 Alpha virt. eigenvalues --    0.03782   0.04735   0.05916   0.06204   0.07127
 Alpha virt. eigenvalues --    0.08112   0.09008   0.09467   0.11481   0.12288
 Alpha virt. eigenvalues --    0.12616   0.12879   0.14314   0.15601   0.16358
 Alpha virt. eigenvalues --    0.17905   0.18121   0.18321   0.18591   0.18957
 Alpha virt. eigenvalues --    0.19038   0.20426   0.20947   0.21983   0.22572
 Alpha virt. eigenvalues --    0.23676   0.25274   0.27808   0.28168   0.29067
 Alpha virt. eigenvalues --    0.29370   0.30181   0.30399   0.31842   0.32143
 Alpha virt. eigenvalues --    0.33803   0.34397   0.36218   0.36860   0.37714
 Alpha virt. eigenvalues --    0.39102   0.39119   0.40259   0.41033   0.42049
 Alpha virt. eigenvalues --    0.43847   0.45297   0.46611   0.47186   0.48641
 Alpha virt. eigenvalues --    0.50468   0.54359   0.56528   0.58725   0.63383
 Alpha virt. eigenvalues --    0.63618   0.64821   0.67302   0.70818   0.71601
 Alpha virt. eigenvalues --    0.76900   0.78521   0.79314   0.80491   0.82484
 Alpha virt. eigenvalues --    0.82907   0.84551   0.84798   0.85699   0.86551
 Alpha virt. eigenvalues --    0.87680   0.89877   0.91531   0.96533   0.98283
 Alpha virt. eigenvalues --    1.02455   1.05198   1.08020   1.12014   1.15359
 Alpha virt. eigenvalues --    1.21188   1.23419   1.24890   1.26611   1.30096
 Alpha virt. eigenvalues --    1.32841   1.34710   1.35052   1.37516   1.37662
 Alpha virt. eigenvalues --    1.41259   1.42611   1.46915   1.48693   1.49369
 Alpha virt. eigenvalues --    1.52492   1.52709   1.57781   1.64138   1.64262
 Alpha virt. eigenvalues --    1.69306   1.71070   1.71690   1.72681   1.75786
 Alpha virt. eigenvalues --    1.79590   1.80599   1.81598   1.83037   1.85363
 Alpha virt. eigenvalues --    1.88540   1.91833   1.94262   1.94693   1.99961
 Alpha virt. eigenvalues --    2.01796   2.07378   2.09263   2.12959   2.13322
 Alpha virt. eigenvalues --    2.17056   2.22305   2.28244   2.28996   2.31546
 Alpha virt. eigenvalues --    2.38554   2.40948   2.45297   2.47300   2.55515
 Alpha virt. eigenvalues --    2.63879   2.65352   2.68753   2.77233   2.81784
 Alpha virt. eigenvalues --    2.84872   2.87773   2.89102   2.91661   2.94299
 Alpha virt. eigenvalues --    2.94375   2.96265   2.97989   3.02951   3.05705
 Alpha virt. eigenvalues --    3.12128   3.13106   3.14705   3.15593   3.19936
 Alpha virt. eigenvalues --    3.24702   3.26570   3.30078   3.32214   3.35926
 Alpha virt. eigenvalues --    3.42295   3.43744   3.49056   3.51486   3.54165
 Alpha virt. eigenvalues --    3.58604   3.60610   3.65332   3.70968   3.74144
 Alpha virt. eigenvalues --    3.76927   3.91207   4.01616   4.11541   4.19277
 Alpha virt. eigenvalues --    4.21254   4.21440   4.26201   4.43684   4.50812
 Alpha virt. eigenvalues --    4.54997   4.68673   5.49902   5.54203   5.55834
 Alpha virt. eigenvalues --    5.60044   5.77234   5.90502   6.03911   6.21696
 Alpha virt. eigenvalues --    6.42453  24.70813  24.99236  25.01920  25.13657
 Alpha virt. eigenvalues --   26.06388  51.52595  51.59687  51.71598
  Beta  occ. eigenvalues --  -20.62284 -20.57469 -20.56742 -11.42373 -11.30473
  Beta  occ. eigenvalues --  -11.29277 -11.24535 -11.23506  -1.49104  -1.38592
  Beta  occ. eigenvalues --   -1.23690  -1.07504  -1.04980  -0.92731  -0.83939
  Beta  occ. eigenvalues --   -0.78192  -0.72804  -0.70272  -0.69766  -0.61809
  Beta  occ. eigenvalues --   -0.60574  -0.59380  -0.56401  -0.52828  -0.52793
  Beta  occ. eigenvalues --   -0.50576  -0.48723  -0.47246  -0.44577  -0.42462
  Beta virt. eigenvalues --    0.03784   0.04675   0.05536   0.06191   0.06712
  Beta virt. eigenvalues --    0.07164   0.08653   0.09446   0.09591   0.12163
  Beta virt. eigenvalues --    0.12414   0.12772   0.13328   0.14706   0.15173
  Beta virt. eigenvalues --    0.16301   0.17731   0.18093   0.18205   0.18576
  Beta virt. eigenvalues --    0.18979   0.19131   0.20383   0.20935   0.22088
  Beta virt. eigenvalues --    0.23756   0.24425   0.25746   0.27395   0.28318
  Beta virt. eigenvalues --    0.28978   0.29751   0.30961   0.31013   0.32262
  Beta virt. eigenvalues --    0.32289   0.34267   0.35299   0.36806   0.37055
  Beta virt. eigenvalues --    0.38630   0.39303   0.39562   0.40882   0.41091
  Beta virt. eigenvalues --    0.42665   0.44023   0.45618   0.47259   0.47888
  Beta virt. eigenvalues --    0.48806   0.51420   0.54934   0.56519   0.58842
  Beta virt. eigenvalues --    0.63034   0.63825   0.64862   0.67956   0.69347
  Beta virt. eigenvalues --    0.71697   0.77261   0.77953   0.78721   0.81009
  Beta virt. eigenvalues --    0.83728   0.83870   0.84150   0.85439   0.86170
  Beta virt. eigenvalues --    0.86614   0.87680   0.89858   0.92323   0.96815
  Beta virt. eigenvalues --    0.98606   1.02403   1.05491   1.08129   1.12781
  Beta virt. eigenvalues --    1.16078   1.21177   1.24235   1.25236   1.26885
  Beta virt. eigenvalues --    1.30214   1.35133   1.36081   1.36833   1.39098
  Beta virt. eigenvalues --    1.40589   1.41402   1.43281   1.48670   1.48946
  Beta virt. eigenvalues --    1.49549   1.52680   1.54308   1.57276   1.63797
  Beta virt. eigenvalues --    1.67059   1.68575   1.71071   1.72576   1.74122
  Beta virt. eigenvalues --    1.77324   1.79601   1.80501   1.81966   1.84163
  Beta virt. eigenvalues --    1.85450   1.88617   1.91915   1.94458   1.95081
  Beta virt. eigenvalues --    1.99966   2.02086   2.07687   2.09307   2.13194
  Beta virt. eigenvalues --    2.13403   2.17013   2.22869   2.28246   2.29245
  Beta virt. eigenvalues --    2.31983   2.39578   2.40950   2.45221   2.47307
  Beta virt. eigenvalues --    2.55519   2.64046   2.65293   2.69496   2.77236
  Beta virt. eigenvalues --    2.81801   2.84892   2.87777   2.89026   2.91634
  Beta virt. eigenvalues --    2.94245   2.94450   2.96311   2.97897   3.02238
  Beta virt. eigenvalues --    3.06548   3.12571   3.14365   3.17520   3.20385
  Beta virt. eigenvalues --    3.25225   3.27377   3.28040   3.30258   3.32854
  Beta virt. eigenvalues --    3.37027   3.44104   3.44874   3.50816   3.52821
  Beta virt. eigenvalues --    3.60129   3.60595   3.61019   3.65642   3.71188
  Beta virt. eigenvalues --    3.74949   3.77690   3.90845   4.01947   4.12110
  Beta virt. eigenvalues --    4.19282   4.21254   4.21457   4.29156   4.43862
  Beta virt. eigenvalues --    4.50935   4.55319   4.68697   5.52093   5.55944
  Beta virt. eigenvalues --    5.61266   5.65768   5.77849   5.90574   6.06256
  Beta virt. eigenvalues --    6.21886   6.42579  24.71043  24.99049  25.01805
  Beta virt. eigenvalues --   25.13657  26.06430  51.54684  51.59738  51.71874
          Condensed to atoms (all electrons):
               1          2          3          4          5          6
     1  C   17.758041   0.559861  -6.707673  -4.506883   0.270946   0.346326
     2  H    0.559861   0.405555  -0.199917   0.047328  -0.001233   0.002495
     3  C   -6.707673  -0.199917  15.818951  -4.493500   0.285754  -0.117224
     4  C   -4.506883   0.047328  -4.493500  15.910965  -0.183609  -0.555287
     5  O    0.270946  -0.001233   0.285754  -0.183609   8.164624  -0.117526
     6  O    0.346326   0.002495  -0.117224  -0.555287  -0.117526   8.530985
     7  C    0.218827   0.004341  -0.534994  -0.152462  -0.065834   0.265700
     8  C   -0.037149   0.000017  -0.149268   0.277063   0.011748  -0.203325
     9  H    0.005004   0.000034  -0.015643  -0.010687  -0.013885  -0.031890
    10  H    0.005004   0.000034  -0.015640  -0.010690  -0.013884  -0.031889
    11  H   -0.002390  -0.000015   0.007347  -0.003590  -0.001108  -0.008963
    12  H   -0.002389  -0.000015   0.007348  -0.003591  -0.001108  -0.008963
    13  H    0.001163   0.000005   0.005061  -0.003579   0.001161   0.023641
    14  O    0.022218  -0.028350  -0.095187  -0.037029   0.000592  -0.004633
    15  H    0.015954   0.002889  -0.044066   0.026567   0.006753  -0.001001
               7          8          9         10         11         12
     1  C    0.218827  -0.037149   0.005004   0.005004  -0.002390  -0.002389
     2  H    0.004341   0.000017   0.000034   0.000034  -0.000015  -0.000015
     3  C   -0.534994  -0.149268  -0.015643  -0.015640   0.007347   0.007348
     4  C   -0.152462   0.277063  -0.010687  -0.010690  -0.003590  -0.003591
     5  O   -0.065834   0.011748  -0.013885  -0.013884  -0.001108  -0.001108
     6  O    0.265700  -0.203325  -0.031890  -0.031889  -0.008963  -0.008963
     7  C    5.454071   0.034173   0.450937   0.450938  -0.030387  -0.030385
     8  C    0.034173   5.579505  -0.053746  -0.053748   0.399565   0.399562
     9  H    0.450937  -0.053746   0.543455  -0.048664   0.004339  -0.007088
    10  H    0.450938  -0.053748  -0.048664   0.543455  -0.007088   0.004340
    11  H   -0.030387   0.399565   0.004339  -0.007088   0.562145  -0.041361
    12  H   -0.030385   0.399562  -0.007088   0.004340  -0.041361   0.562145
    13  H   -0.059730   0.418840  -0.003688  -0.003688  -0.032774  -0.032774
    14  O   -0.002131   0.000052  -0.000027  -0.000027  -0.000003  -0.000003
    15  H   -0.000108   0.000540  -0.000042  -0.000042  -0.000035  -0.000035
              13         14         15
     1  C    0.001163   0.022218   0.015954
     2  H    0.000005  -0.028350   0.002889
     3  C    0.005061  -0.095187  -0.044066
     4  C   -0.003579  -0.037029   0.026567
     5  O    0.001161   0.000592   0.006753
     6  O    0.023641  -0.004633  -0.001001
     7  C   -0.059730  -0.002131  -0.000108
     8  C    0.418840   0.000052   0.000540
     9  H   -0.003688  -0.000027  -0.000042
    10  H   -0.003688  -0.000027  -0.000042
    11  H   -0.032774  -0.000003  -0.000035
    12  H   -0.032774  -0.000003  -0.000035
    13  H    0.543444  -0.000017  -0.000002
    14  O   -0.000017   8.095233   0.287316
    15  H   -0.000002   0.287316   0.431181
          Atomic-Atomic Spin Densities.
               1          2          3          4          5          6
     1  C   -0.577197   0.064804  -0.289268  -0.323203   0.011584   0.028508
     2  H    0.064804   0.063473  -0.045033  -0.007758  -0.000408   0.000009
     3  C   -0.289268  -0.045033   1.400280   0.220734  -0.022939  -0.067659
     4  C   -0.323203  -0.007758   0.220734  -0.022771  -0.044155   0.074262
     5  O    0.011584  -0.000408  -0.022939  -0.044155   0.147133   0.002258
     6  O    0.028508   0.000009  -0.067659   0.074262   0.002258  -0.032556
     7  C    0.048431   0.000224  -0.020153  -0.043687  -0.000771  -0.000933
     8  C   -0.003121  -0.000039  -0.001032   0.014807   0.000797  -0.001076
     9  H   -0.001453   0.000004  -0.001018   0.001599  -0.000141  -0.000145
    10  H   -0.001453   0.000004  -0.001018   0.001599  -0.000141  -0.000145
    11  H   -0.000193   0.000001  -0.000257   0.000351  -0.000023  -0.000041
    12  H   -0.000193   0.000001  -0.000257   0.000351  -0.000023  -0.000041
    13  H    0.000750   0.000001  -0.000144  -0.000711   0.000030  -0.000311
    14  O    0.125228   0.005217  -0.116131  -0.031365   0.004244  -0.000501
    15  H   -0.018904  -0.000765   0.010426   0.006622  -0.000763  -0.000012
               7          8          9         10         11         12
     1  C    0.048431  -0.003121  -0.001453  -0.001453  -0.000193  -0.000193
     2  H    0.000224  -0.000039   0.000004   0.000004   0.000001   0.000001
     3  C   -0.020153  -0.001032  -0.001018  -0.001018  -0.000257  -0.000257
     4  C   -0.043687   0.014807   0.001599   0.001599   0.000351   0.000351
     5  O   -0.000771   0.000797  -0.000141  -0.000141  -0.000023  -0.000023
     6  O   -0.000933  -0.001076  -0.000145  -0.000145  -0.000041  -0.000041
     7  C    0.028042  -0.016794   0.001237   0.001237   0.000043   0.000043
     8  C   -0.016794   0.010760   0.000094   0.000093  -0.000097  -0.000097
     9  H    0.001237   0.000094  -0.000398   0.000186   0.000009  -0.000033
    10  H    0.001237   0.000093   0.000186  -0.000398  -0.000033   0.000009
    11  H    0.000043  -0.000097   0.000009  -0.000033   0.000136   0.000018
    12  H    0.000043  -0.000097  -0.000033   0.000009   0.000018   0.000136
    13  H    0.001458  -0.001793   0.000208   0.000208   0.000122   0.000122
    14  O    0.000828  -0.000018  -0.000041  -0.000041  -0.000002  -0.000002
    15  H   -0.000655   0.000142  -0.000009  -0.000009   0.000000   0.000000
              13         14         15
     1  C    0.000750   0.125228  -0.018904
     2  H    0.000001   0.005217  -0.000765
     3  C   -0.000144  -0.116131   0.010426
     4  C   -0.000711  -0.031365   0.006622
     5  O    0.000030   0.004244  -0.000763
     6  O   -0.000311  -0.000501  -0.000012
     7  C    0.001458   0.000828  -0.000655
     8  C   -0.001793  -0.000018   0.000142
     9  H    0.000208  -0.000041  -0.000009
    10  H    0.000208  -0.000041  -0.000009
    11  H    0.000122  -0.000002   0.000000
    12  H    0.000122  -0.000002   0.000000
    13  H    0.000041   0.000001   0.000001
    14  O    0.000001   0.882004   0.006838
    15  H    0.000001   0.006838  -0.036147
 Mulliken charges and spin densities:
               1          2
     1  C   -1.946860  -0.935680
     2  H    0.206972   0.079734
     3  C    2.248651   1.066531
     4  C   -0.301016  -0.153325
     5  O   -0.343392   0.096682
     6  O   -0.088446   0.001617
     7  C   -0.002956  -0.001452
     8  C   -0.623827   0.002625
     9  H    0.181589   0.000097
    10  H    0.181589   0.000097
    11  H    0.154318   0.000033
    12  H    0.154319   0.000033
    13  H    0.142936  -0.000017
    14  O   -0.238005   0.876260
    15  H    0.274130  -0.033235
 Sum of Mulliken charges =  -0.00000   1.00000
 Mulliken charges and spin densities with hydrogens summed into heavy atoms:
               1          2
     1  C   -1.739888  -0.855946
     3  C    2.248651   1.066531
     4  C   -0.301016  -0.153325
     5  O   -0.343392   0.096682
     6  O   -0.088446   0.001617
     7  C    0.360221  -0.001257
     8  C   -0.172254   0.002673
    14  O    0.036125   0.843025
 Electronic spatial extent (au):  <R**2>=           1429.0580
 Charge=             -0.0000 electrons
 Dipole moment (field-independent basis, Debye):
    X=              2.6279    Y=             -1.0212    Z=             -0.0000  Tot=              2.8193
 Quadrupole moment (field-independent basis, Debye-Ang):
   XX=            -44.8935   YY=            -48.0429   ZZ=            -47.6017
   XY=              4.7829   XZ=              0.0001   YZ=              0.0000
 Traceless Quadrupole moment (field-independent basis, Debye-Ang):
   XX=              1.9526   YY=             -1.1969   ZZ=             -0.7556
   XY=              4.7829   XZ=              0.0001   YZ=              0.0000
 Octapole moment (field-independent basis, Debye-Ang**2):
  XXX=             38.6696  YYY=              0.1554  ZZZ=              0.0000  XYY=            -15.6936
  XXY=             -5.8099  XXZ=             -0.0004  XZZ=              3.7645  YZZ=              3.3492
  YYZ=              0.0000  XYZ=              0.0000
 Hexadecapole moment (field-independent basis, Debye-Ang**3):
 XXXX=          -1617.1482 YYYY=           -235.4956 ZZZZ=            -59.6585 XXXY=             49.1777
 XXXZ=              0.0009 YYYX=              1.6698 YYYZ=              0.0002 ZZZX=             -0.0002
 ZZZY=             -0.0000 XXYY=           -238.3803 XXZZ=           -278.7179 YYZZ=            -48.9363
 XXYZ=              0.0001 YYXZ=             -0.0000 ZZXY=             -4.6327
 N-N= 3.451233578318D+02 E-N=-1.673088817081D+03  KE= 4.177384711540D+02
 1\1\GINC-AJ\SP\UCCSD(T)-FC\6-311++G(d,p)\C5H7O3(2)\AAYUSH\23-Apr-2025\
 0\\# ccsd(t)/6-311++g(d,p) sp\\Title Card Required\\0,2\C,0,2.272698,-
 1.169283,0.000006\H,0,3.078711,-1.869828,0.000009\C,0,1.131783,-0.7334
 67,0.000004\C,0,0.009418,0.192323,0.000006\O,0,0.166963,1.384685,0.000
 009\O,0,-1.16211,-0.428675,-0.000001\C,0,-2.323784,0.428445,-0.000002\
 C,0,-3.538278,-0.469504,-0.000005\H,0,-2.279718,1.067597,0.883957\H,0,
 -2.279714,1.067601,-0.883959\H,0,-3.546836,-1.105024,-0.886236\H,0,-3.
 546839,-1.105027,0.886218\H,0,-4.443567,0.13977,-0.000007\O,0,3.474156
 ,0.400958,-0.000013\H,0,2.824153,1.123491,0.\\Version=ES64L-G16RevA.03
 \State=2-A\HF=-417.9847139\MP2=-419.2346621\MP3=-419.2657088\MP4D=-419
 .2958501\MP4DQ=-419.271583\PUHF=-418.0100865\PMP2-0=-419.2570138\PMP3-
 0=-419.2828731\MP4SDQ=-419.2933747\CCSD=-419.3013846\CCSD(T)=-419.3554
 129\S2=1.065225\S2-1=0.980943\S2A=0.815639\RMSD=5.929e-09\PG=C01 [X(C5
 H7O3)]\\@


 MY GROUP MEETINGS AREN'T VERY STRUCTURED.
     -- PROF. M. S. GORDON, OCT. 5, 1984
 Job cpu time:       0 days 20 hours  3 minutes 16.9 seconds.
 Elapsed time:       0 days  0 hours 50 minutes 18.6 seconds.
 File lengths (MBytes):  RWF=  44733 Int=      0 D2E=      0 Chk=      7 Scr=      1
 Normal termination of Gaussian 16 at Wed Apr 23 03:54:03 2025.
