 Entering Gaussian System, Link 0=g16
 Initial command:
 /opt/g16/l1.exe "/home/aayush/scratches/g16/Gau-7478.inp" -scrdir="/home/aayush/scratches/g16/"
 Entering Link 1 = /opt/g16/l1.exe PID=      7481.
  
 Copyright (c) 1988,1990,1992,1993,1995,1998,2003,2009,2016,
            Gaussian, Inc.  All Rights Reserved.
  
 This is part of the Gaussian(R) 16 program.  It is based on
 the Gaussian(R) 09 system (copyright 2009, Gaussian, Inc.),
 the Gaussian(R) 03 system (copyright 2003, Gaussian, Inc.),
 the Gaussian(R) 98 system (copyright 1998, Gaussian, Inc.),
 the Gaussian(R) 94 system (copyright 1995, Gaussian, Inc.),
 the Gaussian 92(TM) system (copyright 1992, Gaussian, Inc.),
 the Gaussian 90(TM) system (copyright 1990, Gaussian, Inc.),
 the Gaussian 88(TM) system (copyright 1988, Gaussian, Inc.),
 the Gaussian 86(TM) system (copyright 1986, Carnegie Mellon
 University), and the Gaussian 82(TM) system (copyright 1983,
 Carnegie Mellon University). Gaussian is a federally registered
 trademark of Gaussian, Inc.
  
 This software contains proprietary and confidential information,
 including trade secrets, belonging to Gaussian, Inc.
  
 This software is provided under written license and may be
 used, copied, transmitted, or stored only in accord with that
 written license.
  
 The following legend is applicable only to US Government
 contracts under FAR:
  
                    RESTRICTED RIGHTS LEGEND
  
 Use, reproduction and disclosure by the US Government is
 subject to restrictions as set forth in subparagraphs (a)
 and (c) of the Commercial Computer Software - Restricted
 Rights clause in FAR 52.227-19.
  
 Gaussian, Inc.
 340 Quinnipiac St., Bldg. 40, Wallingford CT 06492
  
  
 ---------------------------------------------------------------
 Warning -- This program may not be used in any manner that
 competes with the business of Gaussian, Inc. or will provide
 assistance to any competitor of Gaussian, Inc.  The licensee
 of this program is prohibited from giving any competitor of
 Gaussian, Inc. access to this program.  By using this program,
 the user acknowledges that Gaussian, Inc. is engaged in the
 business of creating and licensing software in the field of
 computational chemistry and represents and warrants to the
 licensee that it is not a competitor of Gaussian, Inc. and that
 it will not use this program in any manner prohibited above.
 ---------------------------------------------------------------
  

 Cite this work as:
 Gaussian 16, Revision A.03,
 M. J. Frisch, G. W. Trucks, H. B. Schlegel, G. E. Scuseria, 
 M. A. Robb, J. R. Cheeseman, G. Scalmani, V. Barone, 
 G. A. Petersson, H. Nakatsuji, X. Li, M. Caricato, A. V. Marenich, 
 J. Bloino, B. G. Janesko, R. Gomperts, B. Mennucci, H. P. Hratchian, 
 J. V. Ortiz, A. F. Izmaylov, J. L. Sonnenberg, D. Williams-Young, 
 F. Ding, F. Lipparini, F. Egidi, J. Goings, B. Peng, A. Petrone, 
 T. Henderson, D. Ranasinghe, V. G. Zakrzewski, J. Gao, N. Rega, 
 G. Zheng, W. Liang, M. Hada, M. Ehara, K. Toyota, R. Fukuda, 
 J. Hasegawa, M. Ishida, T. Nakajima, Y. Honda, O. Kitao, H. Nakai, 
 T. Vreven, K. Throssell, J. A. Montgomery, Jr., J. E. Peralta, 
 F. Ogliaro, M. J. Bearpark, J. J. Heyd, E. N. Brothers, K. N. Kudin, 
 V. N. Staroverov, T. A. Keith, R. Kobayashi, J. Normand, 
 K. Raghavachari, A. P. Rendell, J. C. Burant, S. S. Iyengar, 
 J. Tomasi, M. Cossi, J. M. Millam, M. Klene, C. Adamo, R. Cammi, 
 J. W. Ochterski, R. L. Martin, K. Morokuma, O. Farkas, 
 J. B. Foresman, and D. J. Fox, Gaussian, Inc., Wallingford CT, 2016.
 
 ******************************************
 Gaussian 16:  ES64L-G16RevA.03 25-Dec-2016
                24-Apr-2025 
 ******************************************
 %chk=ethyl_propiolate.chk
 %nprocshared=24
 Will use up to   24 processors via shared memory.
 %mem=12GB
 --------------------------
 # ccsd(t)/6-311++g(d,p) sp
 --------------------------
 1/38=1,172=1/1;
 2/12=2,17=6,18=5,40=1/2;
 3/5=4,6=6,7=1111,11=9,25=1,30=1/1,2,3;
 4//1;
 5/5=2,38=5/2;
 8/6=4,9=120000,10=2/1,4;
 9/5=7,14=2/13;
 6/7=2,8=2,9=2,10=2/1;
 99/5=1,9=1/99;
 -------------------
 Title Card Required
 -------------------
 Symbolic Z-matrix:
 Charge =  0 Multiplicity = 2
 C                     2.28435  -1.1519    0.00001 
 H                     3.0723   -1.87475   0.00001 
 C                     1.13049  -0.73544   0.00001 
 C                     0.00941   0.19233   0.00001 
 O                     0.16721   1.38456   0.00001 
 O                    -1.16212  -0.42867  0. 
 C                    -2.32386   0.42846  0. 
 C                    -3.53828  -0.46956  -0.00001 
 H                    -2.27978   1.06755   0.88398 
 H                    -2.27978   1.06756  -0.88399 
 H                    -3.5468   -1.1051   -0.88623 
 H                    -3.5468   -1.10511   0.88621 
 H                    -4.44363   0.1396   -0.00001 
 O                     3.46679   0.39031  -0.00001 
 H                     2.82155   1.11665  0. 
 
                          Input orientation:                          
 ---------------------------------------------------------------------
 Center     Atomic      Atomic             Coordinates (Angstroms)
 Number     Number       Type             X           Y           Z
 ---------------------------------------------------------------------
      1          6           0        2.284354   -1.151904    0.000005
      2          1           0        3.072301   -1.874753    0.000008
      3          6           0        1.130492   -0.735443    0.000005
      4          6           0        0.009411    0.192330    0.000005
      5          8           0        0.167205    1.384564    0.000009
      6          8           0       -1.162120   -0.428666   -0.000001
      7          6           0       -2.323864    0.428458   -0.000002
      8          6           0       -3.538283   -0.469559   -0.000005
      9          1           0       -2.279782    1.067552    0.883984
     10          1           0       -2.279778    1.067555   -0.883986
     11          1           0       -3.546799   -1.105103   -0.886226
     12          1           0       -3.546802   -1.105107    0.886213
     13          1           0       -4.443628    0.139603   -0.000006
     14          8           0        3.466791    0.390308   -0.000013
     15          1           0        2.821554    1.116648   -0.000003
 ---------------------------------------------------------------------
                    Distance matrix (angstroms):
                    1          2          3          4          5
     1  C    0.000000
     2  H    1.069285   0.000000
     3  C    1.226718   2.251366   0.000000
     4  C    2.642410   3.695149   1.455193   0.000000
     5  O    3.303936   4.366089   2.328594   1.202631   0.000000
     6  O    3.521542   4.474538   2.313046   1.325942   2.248312
     7  C    4.871675   5.867144   3.645167   2.345193   2.668251
     8  C    5.862482   6.758283   4.676340   3.608910   4.143478
     9  H    5.151577   6.171172   3.957547   2.605348   2.621002
    10  H    5.151576   6.171173   3.957548   2.605349   2.621005
    11  H    5.898300   6.722370   4.774841   3.887849   4.558254
    12  H    5.898299   6.722369   4.774840   3.887848   4.558253
    13  H    6.850820   7.781184   5.642386   4.453351   4.775951
    14  O    1.943341   2.299157   2.593378   3.463044   3.446130
    15  H    2.331290   3.001892   2.507974   2.960154   2.667836
                    6          7          8          9         10
     6  O    0.000000
     7  C    1.443714   0.000000
     8  C    2.376515   1.510380   0.000000
     9  H    2.066220   1.091703   2.174390   0.000000
    10  H    2.066220   1.091703   2.174391   1.767970   0.000000
    11  H    2.632424   2.152388   1.090585   3.075615   2.515112
    12  H    2.632424   2.152388   1.090585   2.515113   3.075616
    13  H    3.330349   2.139354   1.091205   2.514907   2.514908
    14  O    4.700802   5.790781   7.057651   5.853479   5.853471
    15  H    4.272898   5.191236   6.554661   5.177593   5.177589
                   11         12         13         14         15
    11  H    0.000000
    12  H    1.772439   0.000000
    13  H    1.771717   1.771718   0.000000
    14  O    7.225792   7.225797   7.914391   0.000000
    15  H    6.802756   6.802759   7.330586   0.971545   0.000000
 Stoichiometry    C5H7O3(2)
 Framework group  C1[X(C5H7O3)]
 Deg. of freedom    39
 Full point group                 C1      NOp   1
 Largest Abelian subgroup         C1      NOp   1
 Largest concise Abelian subgroup C1      NOp   1
                         Standard orientation:                         
 ---------------------------------------------------------------------
 Center     Atomic      Atomic             Coordinates (Angstroms)
 Number     Number       Type             X           Y           Z
 ---------------------------------------------------------------------
      1          6           0       -2.368816   -1.143032   -0.000005
      2          1           0       -3.157766   -1.864786   -0.000008
      3          6           0       -1.214377   -0.728173   -0.000005
      4          6           0       -0.092009    0.198043   -0.000005
      5          8           0       -0.248148    1.390494   -0.000009
      6          8           0        1.078658   -0.424579    0.000001
      7          6           0        2.241591    0.430931    0.000002
      8          6           0        3.454762   -0.468771    0.000005
      9          1           0        2.198396    1.070086   -0.883984
     10          1           0        2.198392    1.070089    0.883986
     11          1           0        3.462396   -1.104326    0.886226
     12          1           0        3.462399   -1.104330   -0.886213
     13          1           0        4.360952    0.139134    0.000006
     14          8           0       -3.549111    0.400820    0.000013
     15          1           0       -2.902867    1.126264    0.000003
 ---------------------------------------------------------------------
 Rotational constants (GHZ):           6.6080696           0.8658084           0.7729039
 Standard basis: 6-311++G(d,p) (5D, 7F)
 There are   233 symmetry adapted cartesian basis functions of A   symmetry.
 There are   225 symmetry adapted basis functions of A   symmetry.
   225 basis functions,   351 primitive gaussians,   233 cartesian basis functions
    31 alpha electrons       30 beta electrons
       nuclear repulsion energy       345.3801367272 Hartrees.
 NAtoms=   15 NActive=   15 NUniq=   15 SFac= 1.00D+00 NAtFMM=   60 NAOKFM=F Big=F
 Integral buffers will be    131072 words long.
 Raffenetti 2 integral format.
 Two-electron integral symmetry is turned on.
 One-electron integrals computed using PRISM.
 NBasis=   225 RedAO= T EigKep=  3.46D-06  NBF=   225
 NBsUse=   225 1.00D-06 EigRej= -1.00D+00 NBFU=   225
 ExpMin= 3.60D-02 ExpMax= 8.59D+03 ExpMxC= 1.30D+03 IAcc=3 IRadAn=         5 AccDes= 0.00D+00
 Harris functional with IExCor=  205 and IRadAn=       5 diagonalized for initial guess.
 HarFok:  IExCor=  205 AccDes= 0.00D+00 IRadAn=         5 IDoV= 1 UseB2=F ITyADJ=14
 ICtDFT=  3500011 ScaDFX=  1.000000  1.000000  1.000000  1.000000
 FoFCou: FMM=F IPFlag=           0 FMFlag=      100000 FMFlg1=           0
         NFxFlg=           0 DoJE=T BraDBF=F KetDBF=T FulRan=T
         wScrn=  0.000000 ICntrl=       500 IOpCl=  0 I1Cent=   200000004 NGrid=           0
         NMat0=    1 NMatS0=      1 NMatT0=    0 NMatD0=    1 NMtDS0=    0 NMtDT0=    0
 Petite list used in FoFCou.
 Initial guess <Sx>= 0.0000 <Sy>= 0.0000 <Sz>= 0.5000 <S**2>= 0.7500 S= 0.5000
 Requested convergence on RMS density matrix=1.00D-08 within 128 cycles.
 Requested convergence on MAX density matrix=1.00D-06.
 Requested convergence on             energy=1.00D-06.
 No special actions if energy rises.
 Initial convergence to 1.0D-05 achieved.  Increase integral accuracy.
 SCF Done:  E(UHF) =  -417.984201179     A.U. after   32 cycles
            NFock= 32  Conv=0.50D-08     -V/T= 2.0006
 <Sx>= 0.0000 <Sy>= 0.0000 <Sz>= 0.5000 <S**2>= 1.0958 S= 0.6601
 <L.S>=  0.00000000000    
 Annihilation of the first spin contaminant:
 S**2 before annihilation     1.0958,   after     0.8303
 ExpMin= 3.60D-02 ExpMax= 8.59D+03 ExpMxC= 1.30D+03 IAcc=3 IRadAn=         5 AccDes= 0.00D+00
 HarFok:  IExCor=  205 AccDes= 0.00D+00 IRadAn=         5 IDoV=-2 UseB2=F ITyADJ=14
 ICtDFT= 12500011 ScaDFX=  1.000000  1.000000  1.000000  1.000000
 Range of M.O.s used for correlation:     9   225
 NBasis=   225 NAE=    31 NBE=    30 NFC=     8 NFV=     0
 NROrb=    217 NOA=    23 NOB=    22 NVA=   194 NVB=   195

 **** Warning!!: The largest alpha MO coefficient is  0.12923253D+03


 **** Warning!!: The largest beta MO coefficient is  0.13077911D+03

 Semi-Direct transformation.
 ModeAB=           4 MOrb=            23 LenV=    1609182606
 LASXX=    109339976 LTotXX=   109339976 LenRXX=   221407890
 LTotAB=   112067914 MaxLAS=   122988222 LenRXY=           0
 NonZer=   330747866 LenScr=   498067456 LnRSAI=   122988222
 LnScr1=   185236480 LExtra=           0 Total=   1027700048
 MaxDsk=          -1 SrtSym=           T ITran=            4
 JobTyp=1 Pass  1:  I=   1 to  23.
 (rs|ai) integrals will be sorted in core.
 ModeAB=           4 MOrb=            22 LenV=    1609182606
 LASXX=    104936601 LTotXX=   104936601 LenRXX=   190867446
 LTotAB=    85930845 MaxLAS=   117640908 LenRXY=           0
 NonZer=   295804047 LenScr=   445446144 LnRSAI=   117640908
 LnScr1=   177241600 LExtra=           0 Total=    931196098
 MaxDsk=          -1 SrtSym=           T ITran=            4
 JobTyp=2 Pass  1:  I=   1 to  22.
 (rs|ai) integrals will be sorted in core.
 SymMOI:  orbitals are not symmetric.
 Spin components of T(2) and E(2):
     alpha-alpha T2 =       0.5038191143D-01 E2=     -0.1671946655D+00
     alpha-beta  T2 =       0.2782687706D+00 E2=     -0.9236886236D+00
     beta-beta   T2 =       0.5081028352D-01 E2=     -0.1584309036D+00
 ANorm=    0.1174504562D+01
 E2 =    -0.1249314193D+01 EUMP2 =    -0.41923351537174D+03
 (S**2,0)=  0.10958D+01           (S**2,1)=  0.10039D+01
 E(PUHF)=      -0.41801211911D+03        E(PMP2)=      -0.41925817067D+03
 Keep R2 and R3 ints in memory in canonical form, NReq=652884060.
 CIDS: In Core Option IDoMem=           1.
 Iterations=  50 Convergence= 0.100D-06
 Produce multiple copies of IABC intergrals
 Iteration Nr.   1
 **********************
 DD1Dir will call FoFMem   1 times, MxPair=      1496
 NAB=   506 NAA=   253 NBB=   231.
 E(PMP3)=      -0.41928392561D+03
 MP4(R+Q)=  0.24183514D-01
 E3=       -0.31316340D-01        EUMP3=      -0.41926483171D+03
 E4(DQ)=   -0.59585521D-02        UMP4(DQ)=   -0.41927079026D+03
 E4(SDQ)=  -0.28109993D-01        UMP4(SDQ)=  -0.41929294171D+03
 DE(Corr)=  -1.2562869     E(Corr)=     -419.24048805    
 NORM(A)=   0.11856159D+01
 Iteration Nr.   2
 **********************
 DD1Dir will call FoFMem   1 times, MxPair=      1496
 NAB=   506 NAA=   253 NBB=   231.
 DE(Corr)=  -1.3005416     E(CORR)=     -419.28474275     Delta=-4.43D-02
 NORM(A)=   0.12092501D+01
 Iteration Nr.   3
 **********************
 DD1Dir will call FoFMem   1 times, MxPair=      1496
 NAB=   506 NAA=   253 NBB=   231.
 DE(Corr)=  -1.3047706     E(CORR)=     -419.28897180     Delta=-4.23D-03
 NORM(A)=   0.12255479D+01
 Iteration Nr.   4
 **********************
 DD1Dir will call FoFMem   1 times, MxPair=      1496
 NAB=   506 NAA=   253 NBB=   231.
 DE(Corr)=  -1.3137823     E(CORR)=     -419.29798346     Delta=-9.01D-03
 NORM(A)=   0.12370273D+01
 Iteration Nr.   5
 **********************
 DD1Dir will call FoFMem   1 times, MxPair=      1496
 NAB=   506 NAA=   253 NBB=   231.
 DE(Corr)=  -1.3167278     E(CORR)=     -419.30092902     Delta=-2.95D-03
 NORM(A)=   0.12421106D+01
 Iteration Nr.   6
 **********************
 DD1Dir will call FoFMem   1 times, MxPair=      1496
 NAB=   506 NAA=   253 NBB=   231.
 DE(Corr)=  -1.3175549     E(CORR)=     -419.30175604     Delta=-8.27D-04
 NORM(A)=   0.12427742D+01
 Iteration Nr.   7
 **********************
 DD1Dir will call FoFMem   1 times, MxPair=      1496
 NAB=   506 NAA=   253 NBB=   231.
 DE(Corr)=  -1.3176487     E(CORR)=     -419.30184987     Delta=-9.38D-05
 NORM(A)=   0.12429475D+01
 Iteration Nr.   8
 **********************
 DD1Dir will call FoFMem   1 times, MxPair=      1496
 NAB=   506 NAA=   253 NBB=   231.
 DE(Corr)=  -1.3176270     E(CORR)=     -419.30182818     Delta= 2.17D-05
 NORM(A)=   0.12429556D+01
 Iteration Nr.   9
 **********************
 DD1Dir will call FoFMem   1 times, MxPair=      1496
 NAB=   506 NAA=   253 NBB=   231.
 DE(Corr)=  -1.3176416     E(CORR)=     -419.30184281     Delta=-1.46D-05
 NORM(A)=   0.12429479D+01
 Iteration Nr.  10
 **********************
 DD1Dir will call FoFMem   1 times, MxPair=      1496
 NAB=   506 NAA=   253 NBB=   231.
 DE(Corr)=  -1.3176352     E(CORR)=     -419.30183641     Delta= 6.40D-06
 NORM(A)=   0.12429518D+01
 Iteration Nr.  11
 **********************
 DD1Dir will call FoFMem   1 times, MxPair=      1496
 NAB=   506 NAA=   253 NBB=   231.
 DE(Corr)=  -1.3176490     E(CORR)=     -419.30185021     Delta=-1.38D-05
 NORM(A)=   0.12429775D+01
 Iteration Nr.  12
 **********************
 DD1Dir will call FoFMem   1 times, MxPair=      1496
 NAB=   506 NAA=   253 NBB=   231.
 DE(Corr)=  -1.3176544     E(CORR)=     -419.30185555     Delta=-5.35D-06
 NORM(A)=   0.12430111D+01
 Iteration Nr.  13
 **********************
 DD1Dir will call FoFMem   1 times, MxPair=      1496
 NAB=   506 NAA=   253 NBB=   231.
 DE(Corr)=  -1.3176633     E(CORR)=     -419.30186452     Delta=-8.97D-06
 NORM(A)=   0.12430379D+01
 Iteration Nr.  14
 **********************
 DD1Dir will call FoFMem   1 times, MxPair=      1496
 NAB=   506 NAA=   253 NBB=   231.
 DE(Corr)=  -1.3176694     E(CORR)=     -419.30187058     Delta=-6.06D-06
 NORM(A)=   0.12430555D+01
 Iteration Nr.  15
 **********************
 DD1Dir will call FoFMem   1 times, MxPair=      1496
 NAB=   506 NAA=   253 NBB=   231.
 DE(Corr)=  -1.3176724     E(CORR)=     -419.30187361     Delta=-3.03D-06
 NORM(A)=   0.12430638D+01
 Iteration Nr.  16
 **********************
 DD1Dir will call FoFMem   1 times, MxPair=      1496
 NAB=   506 NAA=   253 NBB=   231.
 DE(Corr)=  -1.3176744     E(CORR)=     -419.30187561     Delta=-2.00D-06
 NORM(A)=   0.12430676D+01
 Iteration Nr.  17
 **********************
 DD1Dir will call FoFMem   1 times, MxPair=      1496
 NAB=   506 NAA=   253 NBB=   231.
 DE(Corr)=  -1.3176750     E(CORR)=     -419.30187614     Delta=-5.27D-07
 NORM(A)=   0.12430686D+01
 Iteration Nr.  18
 **********************
 DD1Dir will call FoFMem   1 times, MxPair=      1496
 NAB=   506 NAA=   253 NBB=   231.
 DE(Corr)=  -1.3176752     E(CORR)=     -419.30187635     Delta=-2.13D-07
 NORM(A)=   0.12430688D+01
 Iteration Nr.  19
 **********************
 DD1Dir will call FoFMem   1 times, MxPair=      1496
 NAB=   506 NAA=   253 NBB=   231.
 DE(Corr)=  -1.3176752     E(CORR)=     -419.30187637     Delta=-1.47D-08
 NORM(A)=   0.12430688D+01
 Wavefunction amplitudes converged. E(Corr)=     -419.30187637    
 Largest amplitude= 9.01D-02
 Time for triples=    34998.12 seconds.
 T4(CCSD)= -0.58710803D-01
 T5(CCSD)=  0.43949170D-02
 CCSD(T)= -0.41935619225D+03

 S**2, projected HF & approx projected MPn energies after annihilation of
 unwanted spin states (see manual for definitions):

 spins       (S**2,0) (S**2,1)    PUHF        PMP2        PMP3        PMP4
 annihilated
 s+1         0.70260  0.73058 -418.012119 -419.258171 -419.283926
 s+1,s+2     0.75096  0.74984 -418.009107 -419.255294 -419.281233
 s+1 to s+3  0.74999  0.75001 -418.009185 -419.255353 -419.281260
 s+1 to s+4  0.75000  0.75000 -418.009185 -419.255352 -419.281260
 s+1 to s+5  0.75000  0.75000 -418.009185
 s+1 to s+6  0.75000  0.75000 -418.009185

 Discarding MO integrals.

 **********************************************************************

            Population analysis using the SCF density.

 **********************************************************************

 Orbital symmetries:
 Alpha Orbitals:
       Occupied  (A) (A) (A) (A) (A) (A) (A) (A) (A) (A) (A) (A)
                 (A) (A) (A) (A) (A) (A) (A) (A) (A) (A) (A) (A)
                 (A) (A) (A) (A) (A) (A) (A)
       Virtual   (A) (A) (A) (A) (A) (A) (A) (A) (A) (A) (A) (A)
                 (A) (A) (A) (A) (A) (A) (A) (A) (A) (A) (A) (A)
                 (A) (A) (A) (A) (A) (A) (A) (A) (A) (A) (A) (A)
                 (A) (A) (A) (A) (A) (A) (A) (A) (A) (A) (A) (A)
                 (A) (A) (A) (A) (A) (A) (A) (A) (A) (A) (A) (A)
                 (A) (A) (A) (A) (A) (A) (A) (A) (A) (A) (A) (A)
                 (A) (A) (A) (A) (A) (A) (A) (A) (A) (A) (A) (A)
                 (A) (A) (A) (A) (A) (A) (A) (A) (A) (A) (A) (A)
                 (A) (A) (A) (A) (A) (A) (A) (A) (A) (A) (A) (A)
                 (A) (A) (A) (A) (A) (A) (A) (A) (A) (A) (A) (A)
                 (A) (A) (A) (A) (A) (A) (A) (A) (A) (A) (A) (A)
                 (A) (A) (A) (A) (A) (A) (A) (A) (A) (A) (A) (A)
                 (A) (A) (A) (A) (A) (A) (A) (A) (A) (A) (A) (A)
                 (A) (A) (A) (A) (A) (A) (A) (A) (A) (A) (A) (A)
                 (A) (A) (A) (A) (A) (A) (A) (A) (A) (A) (A) (A)
                 (A) (A) (A) (A) (A) (A) (A) (A) (A) (A) (A) (A)
                 (A) (A)
 Beta  Orbitals:
       Occupied  (A) (A) (A) (A) (A) (A) (A) (A) (A) (A) (A) (A)
                 (A) (A) (A) (A) (A) (A) (A) (A) (A) (A) (A) (A)
                 (A) (A) (A) (A) (A) (A)
       Virtual   (A) (A) (A) (A) (A) (A) (A) (A) (A) (A) (A) (A)
                 (A) (A) (A) (A) (A) (A) (A) (A) (A) (A) (A) (A)
                 (A) (A) (A) (A) (A) (A) (A) (A) (A) (A) (A) (A)
                 (A) (A) (A) (A) (A) (A) (A) (A) (A) (A) (A) (A)
                 (A) (A) (A) (A) (A) (A) (A) (A) (A) (A) (A) (A)
                 (A) (A) (A) (A) (A) (A) (A) (A) (A) (A) (A) (A)
                 (A) (A) (A) (A) (A) (A) (A) (A) (A) (A) (A) (A)
                 (A) (A) (A) (A) (A) (A) (A) (A) (A) (A) (A) (A)
                 (A) (A) (A) (A) (A) (A) (A) (A) (A) (A) (A) (A)
                 (A) (A) (A) (A) (A) (A) (A) (A) (A) (A) (A) (A)
                 (A) (A) (A) (A) (A) (A) (A) (A) (A) (A) (A) (A)
                 (A) (A) (A) (A) (A) (A) (A) (A) (A) (A) (A) (A)
                 (A) (A) (A) (A) (A) (A) (A) (A) (A) (A) (A) (A)
                 (A) (A) (A) (A) (A) (A) (A) (A) (A) (A) (A) (A)
                 (A) (A) (A) (A) (A) (A) (A) (A) (A) (A) (A) (A)
                 (A) (A) (A) (A) (A) (A) (A) (A) (A) (A) (A) (A)
                 (A) (A) (A)
 The electronic state is 2-A.
 Alpha  occ. eigenvalues --  -20.62316 -20.60977 -20.57306 -11.41980 -11.30494
 Alpha  occ. eigenvalues --  -11.27567 -11.27060 -11.23522  -1.49410  -1.39537
 Alpha  occ. eigenvalues --   -1.36570  -1.09762  -1.05126  -0.92052  -0.84111
 Alpha  occ. eigenvalues --   -0.78464  -0.73017  -0.70603  -0.70441  -0.64848
 Alpha  occ. eigenvalues --   -0.63627  -0.61381  -0.59813  -0.56544  -0.54212
 Alpha  occ. eigenvalues --   -0.53306  -0.52931  -0.50503  -0.48408  -0.43331
 Alpha  occ. eigenvalues --   -0.42123
 Alpha virt. eigenvalues --    0.03774   0.04746   0.05908   0.06191   0.07122
 Alpha virt. eigenvalues --    0.08108   0.09021   0.09455   0.11453   0.12290
 Alpha virt. eigenvalues --    0.12610   0.12861   0.14316   0.15601   0.16369
 Alpha virt. eigenvalues --    0.17925   0.18129   0.18329   0.18522   0.18951
 Alpha virt. eigenvalues --    0.19034   0.20364   0.20883   0.21954   0.22605
 Alpha virt. eigenvalues --    0.23678   0.25292   0.27778   0.28092   0.29036
 Alpha virt. eigenvalues --    0.29321   0.30284   0.30487   0.31929   0.32130
 Alpha virt. eigenvalues --    0.33819   0.34327   0.36259   0.36845   0.37805
 Alpha virt. eigenvalues --    0.39095   0.39196   0.40209   0.40995   0.42108
 Alpha virt. eigenvalues --    0.43802   0.45254   0.46689   0.47294   0.48690
 Alpha virt. eigenvalues --    0.50405   0.54259   0.56514   0.58657   0.63305
 Alpha virt. eigenvalues --    0.63619   0.64814   0.67005   0.70809   0.71723
 Alpha virt. eigenvalues --    0.76843   0.78342   0.79303   0.79988   0.82496
 Alpha virt. eigenvalues --    0.82746   0.84578   0.84740   0.85683   0.86528
 Alpha virt. eigenvalues --    0.87662   0.89934   0.91510   0.96554   0.98345
 Alpha virt. eigenvalues --    1.02377   1.04846   1.08021   1.12038   1.14850
 Alpha virt. eigenvalues --    1.21162   1.23396   1.24949   1.26262   1.30025
 Alpha virt. eigenvalues --    1.33298   1.34605   1.35133   1.37356   1.37389
 Alpha virt. eigenvalues --    1.41173   1.42585   1.46754   1.48678   1.49385
 Alpha virt. eigenvalues --    1.52448   1.52985   1.57552   1.64209   1.64354
 Alpha virt. eigenvalues --    1.69981   1.71056   1.71980   1.73080   1.75857
 Alpha virt. eigenvalues --    1.79567   1.80665   1.81637   1.82205   1.85459
 Alpha virt. eigenvalues --    1.88560   1.91777   1.94356   1.94910   1.99942
 Alpha virt. eigenvalues --    2.01735   2.07372   2.09249   2.13339   2.13491
 Alpha virt. eigenvalues --    2.16647   2.22357   2.28229   2.28339   2.32121
 Alpha virt. eigenvalues --    2.38729   2.40934   2.45965   2.47340   2.55485
 Alpha virt. eigenvalues --    2.63456   2.63959   2.67472   2.77198   2.81761
 Alpha virt. eigenvalues --    2.84839   2.87755   2.88903   2.91816   2.94221
 Alpha virt. eigenvalues --    2.94334   2.96204   2.97913   3.02736   3.05536
 Alpha virt. eigenvalues --    3.12210   3.12441   3.15110   3.15122   3.19838
 Alpha virt. eigenvalues --    3.23556   3.26392   3.30059   3.31475   3.35452
 Alpha virt. eigenvalues --    3.42027   3.43694   3.49252   3.51617   3.54235
 Alpha virt. eigenvalues --    3.60585   3.60701   3.65678   3.71632   3.74486
 Alpha virt. eigenvalues --    3.76917   3.92270   4.01365   4.11439   4.19267
 Alpha virt. eigenvalues --    4.21237   4.21426   4.26587   4.43378   4.50681
 Alpha virt. eigenvalues --    4.55084   4.68622   5.50228   5.54293   5.55825
 Alpha virt. eigenvalues --    5.59978   5.77179   5.90427   6.04214   6.21764
 Alpha virt. eigenvalues --    6.42416  24.70713  24.99241  25.01867  25.13629
 Alpha virt. eigenvalues --   26.01861  51.53044  51.59679  51.71487
  Beta  occ. eigenvalues --  -20.62297 -20.57414 -20.56747 -11.42377 -11.30490
  Beta  occ. eigenvalues --  -11.29666 -11.24590 -11.23521  -1.49114  -1.38585
  Beta  occ. eigenvalues --   -1.24022  -1.07459  -1.04972  -0.92759  -0.83949
  Beta  occ. eigenvalues --   -0.78210  -0.72725  -0.70288  -0.69766  -0.61750
  Beta  occ. eigenvalues --   -0.60577  -0.59373  -0.56409  -0.52844  -0.52812
  Beta  occ. eigenvalues --   -0.50702  -0.48714  -0.47226  -0.44912  -0.42404
  Beta virt. eigenvalues --    0.03776   0.04690   0.05474   0.06177   0.06653
  Beta virt. eigenvalues --    0.07150   0.08618   0.09433   0.09490   0.12135
  Beta virt. eigenvalues --    0.12412   0.12762   0.13314   0.14673   0.15148
  Beta virt. eigenvalues --    0.16313   0.17773   0.18128   0.18192   0.18522
  Beta virt. eigenvalues --    0.18961   0.19132   0.20345   0.20869   0.22044
  Beta virt. eigenvalues --    0.23790   0.24497   0.25703   0.27333   0.28271
  Beta virt. eigenvalues --    0.28944   0.29820   0.31004   0.31102   0.32298
  Beta virt. eigenvalues --    0.32336   0.34208   0.35362   0.36798   0.37153
  Beta virt. eigenvalues --    0.38888   0.39291   0.39445   0.40862   0.41029
  Beta virt. eigenvalues --    0.42676   0.43982   0.45594   0.47341   0.47981
  Beta virt. eigenvalues --    0.48864   0.51398   0.54867   0.56505   0.58762
  Beta virt. eigenvalues --    0.62941   0.63859   0.64854   0.67720   0.69266
  Beta virt. eigenvalues --    0.71808   0.77128   0.77869   0.78736   0.80729
  Beta virt. eigenvalues --    0.83684   0.83827   0.84299   0.85412   0.86118
  Beta virt. eigenvalues --    0.86598   0.87646   0.89838   0.92325   0.96812
  Beta virt. eigenvalues --    0.98685   1.02292   1.05056   1.08149   1.12868
  Beta virt. eigenvalues --    1.15532   1.21151   1.24062   1.25086   1.26411
  Beta virt. eigenvalues --    1.30153   1.35515   1.36102   1.36745   1.39089
  Beta virt. eigenvalues --    1.40804   1.41338   1.43447   1.48655   1.48678
  Beta virt. eigenvalues --    1.49641   1.53005   1.53846   1.57067   1.63971
  Beta virt. eigenvalues --    1.67354   1.69158   1.71057   1.72955   1.74270
  Beta virt. eigenvalues --    1.77452   1.79585   1.80541   1.82031   1.83475
  Beta virt. eigenvalues --    1.85577   1.88653   1.91852   1.94439   1.95360
  Beta virt. eigenvalues --    1.99946   2.02056   2.07668   2.09280   2.13421
  Beta virt. eigenvalues --    2.13739   2.16607   2.22983   2.28231   2.28623
  Beta virt. eigenvalues --    2.32638   2.39634   2.40940   2.45874   2.47334
  Beta virt. eigenvalues --    2.55490   2.63754   2.63896   2.68160   2.77202
  Beta virt. eigenvalues --    2.81778   2.84861   2.87760   2.88891   2.91778
  Beta virt. eigenvalues --    2.94160   2.94413   2.96252   2.97809   3.02030
  Beta virt. eigenvalues --    3.06390   3.12447   3.13743   3.16950   3.20371
  Beta virt. eigenvalues --    3.25494   3.26337   3.27072   3.30209   3.32276
  Beta virt. eigenvalues --    3.36673   3.44079   3.44574   3.50945   3.52406
  Beta virt. eigenvalues --    3.60570   3.61100   3.62300   3.66238   3.71922
  Beta virt. eigenvalues --    3.75529   3.77724   3.91846   4.01715   4.12036
  Beta virt. eigenvalues --    4.19272   4.21237   4.21444   4.29449   4.43576
  Beta virt. eigenvalues --    4.50812   4.55432   4.68648   5.52338   5.55940
  Beta virt. eigenvalues --    5.61271   5.65525   5.77830   5.90503   6.06484
  Beta virt. eigenvalues --    6.21967   6.42551  24.70944  24.99041  25.01748
  Beta virt. eigenvalues --   25.13630  26.01924  51.55066  51.59732  51.71781
          Condensed to atoms (all electrons):
               1          2          3          4          5          6
     1  C   16.409399   0.546766  -6.069031  -3.822135   0.249313   0.328420
     2  H    0.546766   0.405581  -0.184753   0.044544  -0.001233   0.002536
     3  C   -6.069031  -0.184753  15.031001  -4.285862   0.267567  -0.133020
     4  C   -3.822135   0.044544  -4.285862  14.974107  -0.145663  -0.520441
     5  O    0.249313  -0.001233   0.267567  -0.145663   8.163408  -0.118413
     6  O    0.328420   0.002536  -0.133020  -0.520441  -0.118413   8.534924
     7  C    0.204326   0.004096  -0.509010  -0.149430  -0.063704   0.259475
     8  C   -0.028869   0.000008  -0.133632   0.250782   0.012622  -0.199703
     9  H    0.004253   0.000029  -0.016237  -0.009073  -0.014002  -0.031835
    10  H    0.004253   0.000029  -0.016237  -0.009073  -0.014002  -0.031835
    11  H   -0.002430  -0.000018   0.006924  -0.003051  -0.001101  -0.009012
    12  H   -0.002430  -0.000018   0.006924  -0.003051  -0.001101  -0.009012
    13  H    0.001112   0.000007   0.005205  -0.003449   0.001152   0.023633
    14  O    0.011840  -0.030135  -0.086370  -0.035988   0.000851  -0.004876
    15  H    0.022550   0.003268  -0.045441   0.020703   0.006952  -0.000963
               7          8          9         10         11         12
     1  C    0.204326  -0.028869   0.004253   0.004253  -0.002430  -0.002430
     2  H    0.004096   0.000008   0.000029   0.000029  -0.000018  -0.000018
     3  C   -0.509010  -0.133632  -0.016237  -0.016237   0.006924   0.006924
     4  C   -0.149430   0.250782  -0.009073  -0.009073  -0.003051  -0.003051
     5  O   -0.063704   0.012622  -0.014002  -0.014002  -0.001101  -0.001101
     6  O    0.259475  -0.199703  -0.031835  -0.031835  -0.009012  -0.009012
     7  C    5.446398   0.035857   0.450324   0.450325  -0.030774  -0.030773
     8  C    0.035857   5.571566  -0.053325  -0.053325   0.399977   0.399976
     9  H    0.450324  -0.053325   0.543343  -0.048607   0.004356  -0.007100
    10  H    0.450325  -0.053325  -0.048607   0.543343  -0.007100   0.004356
    11  H   -0.030774   0.399977   0.004356  -0.007100   0.562198  -0.041439
    12  H   -0.030773   0.399976  -0.007100   0.004356  -0.041439   0.562198
    13  H   -0.059561   0.418643  -0.003691  -0.003691  -0.032780  -0.032780
    14  O   -0.002371   0.000056  -0.000029  -0.000029  -0.000002  -0.000002
    15  H   -0.000103   0.000521  -0.000042  -0.000042  -0.000035  -0.000035
              13         14         15
     1  C    0.001112   0.011840   0.022550
     2  H    0.000007  -0.030135   0.003268
     3  C    0.005205  -0.086370  -0.045441
     4  C   -0.003449  -0.035988   0.020703
     5  O    0.001152   0.000851   0.006952
     6  O    0.023633  -0.004876  -0.000963
     7  C   -0.059561  -0.002371  -0.000103
     8  C    0.418643   0.000056   0.000521
     9  H   -0.003691  -0.000029  -0.000042
    10  H   -0.003691  -0.000029  -0.000042
    11  H   -0.032780  -0.000002  -0.000035
    12  H   -0.032780  -0.000002  -0.000035
    13  H    0.543339  -0.000018  -0.000001
    14  O   -0.000018   8.101570   0.286045
    15  H   -0.000001   0.286045   0.433058
          Atomic-Atomic Spin Densities.
               1          2          3          4          5          6
     1  C   -0.659152   0.061168  -0.266465  -0.315082   0.011768   0.025668
     2  H    0.061168   0.065471  -0.041448  -0.006004  -0.000455  -0.000060
     3  C   -0.266465  -0.041448   1.469233   0.200035  -0.025326  -0.066454
     4  C   -0.315082  -0.006004   0.200035  -0.021289  -0.045836   0.079135
     5  O    0.011768  -0.000455  -0.025326  -0.045836   0.155977   0.002974
     6  O    0.025668  -0.000060  -0.066454   0.079135   0.002974  -0.035738
     7  C    0.043164   0.000142  -0.018254  -0.040486  -0.000689  -0.001317
     8  C   -0.003183  -0.000032  -0.002615   0.017178   0.000957  -0.001355
     9  H   -0.001266   0.000006  -0.000954   0.001341  -0.000154  -0.000120
    10  H   -0.001266   0.000006  -0.000954   0.001341  -0.000154  -0.000120
    11  H   -0.000175   0.000002  -0.000256   0.000276  -0.000027  -0.000027
    12  H   -0.000175   0.000002  -0.000256   0.000276  -0.000027  -0.000027
    13  H    0.000643  -0.000000  -0.000134  -0.000559   0.000037  -0.000380
    14  O    0.133366   0.004660  -0.115846  -0.032916   0.004519  -0.000500
    15  H   -0.018945  -0.000714   0.009674   0.006541  -0.000855   0.000016
               7          8          9         10         11         12
     1  C    0.043164  -0.003183  -0.001266  -0.001266  -0.000175  -0.000175
     2  H    0.000142  -0.000032   0.000006   0.000006   0.000002   0.000002
     3  C   -0.018254  -0.002615  -0.000954  -0.000954  -0.000256  -0.000256
     4  C   -0.040486   0.017178   0.001341   0.001341   0.000276   0.000276
     5  O   -0.000689   0.000957  -0.000154  -0.000154  -0.000027  -0.000027
     6  O   -0.001317  -0.001355  -0.000120  -0.000120  -0.000027  -0.000027
     7  C    0.029534  -0.018672   0.001282   0.001282   0.000109   0.000109
     8  C   -0.018672   0.012610   0.000085   0.000085  -0.000122  -0.000122
     9  H    0.001282   0.000085  -0.000423   0.000194   0.000006  -0.000042
    10  H    0.001282   0.000085   0.000194  -0.000423  -0.000042   0.000006
    11  H    0.000109  -0.000122   0.000006  -0.000042   0.000139   0.000014
    12  H    0.000109  -0.000122  -0.000042   0.000006   0.000014   0.000139
    13  H    0.001607  -0.002007   0.000213   0.000213   0.000140   0.000140
    14  O    0.000823  -0.000007  -0.000045  -0.000045  -0.000003  -0.000003
    15  H   -0.000596   0.000151  -0.000012  -0.000012  -0.000000  -0.000000
              13         14         15
     1  C    0.000643   0.133366  -0.018945
     2  H   -0.000000   0.004660  -0.000714
     3  C   -0.000134  -0.115846   0.009674
     4  C   -0.000559  -0.032916   0.006541
     5  O    0.000037   0.004519  -0.000855
     6  O   -0.000380  -0.000500   0.000016
     7  C    0.001607   0.000823  -0.000596
     8  C   -0.002007  -0.000007   0.000151
     9  H    0.000213  -0.000045  -0.000012
    10  H    0.000213  -0.000045  -0.000012
    11  H    0.000140  -0.000003  -0.000000
    12  H    0.000140  -0.000003  -0.000000
    13  H    0.000053   0.000002   0.000002
    14  O    0.000002   0.848758   0.007373
    15  H    0.000002   0.007373  -0.035151
 Mulliken charges and spin densities:
               1          2
     1  C   -1.857337  -0.989931
     2  H    0.209292   0.082743
     3  C    2.161974   1.139981
     4  C   -0.302920  -0.156050
     5  O   -0.342647   0.102709
     6  O   -0.089877   0.001692
     7  C   -0.005075  -0.001964
     8  C   -0.621154   0.002950
     9  H    0.181636   0.000110
    10  H    0.181636   0.000110
    11  H    0.154286   0.000035
    12  H    0.154286   0.000035
    13  H    0.142881  -0.000029
    14  O   -0.240545   0.850135
    15  H    0.273565  -0.032528
 Sum of Mulliken charges =  -0.00000   1.00000
 Mulliken charges and spin densities with hydrogens summed into heavy atoms:
               1          2
     1  C   -1.648045  -0.907188
     3  C    2.161974   1.139981
     4  C   -0.302920  -0.156050
     5  O   -0.342647   0.102709
     6  O   -0.089877   0.001692
     7  C    0.358197  -0.001743
     8  C   -0.169701   0.002991
    14  O    0.033021   0.817607
 Electronic spatial extent (au):  <R**2>=           1427.7358
 Charge=             -0.0000 electrons
 Dipole moment (field-independent basis, Debye):
    X=              2.7000    Y=             -1.0757    Z=             -0.0000  Tot=              2.9064
 Quadrupole moment (field-independent basis, Debye-Ang):
   XX=            -45.3215   YY=            -48.0101   ZZ=            -47.5890
   XY=              4.8814   XZ=              0.0001   YZ=              0.0000
 Traceless Quadrupole moment (field-independent basis, Debye-Ang):
   XX=              1.6520   YY=             -1.0366   ZZ=             -0.6155
   XY=              4.8814   XZ=              0.0001   YZ=              0.0000
 Octapole moment (field-independent basis, Debye-Ang**2):
  XXX=             40.7864  YYY=             -0.1156  ZZZ=              0.0000  XYY=            -15.5675
  XXY=             -6.0617  XXZ=             -0.0003  XZZ=              3.7654  YZZ=              3.3126
  YYZ=              0.0000  XYZ=             -0.0000
 Hexadecapole moment (field-independent basis, Debye-Ang**3):
 XXXX=          -1625.6442 YYYY=           -233.6161 ZZZZ=            -59.6094 XXXY=             50.0540
 XXXZ=              0.0010 YYYX=              2.1122 YYYZ=              0.0001 ZZZX=             -0.0000
 ZZZY=             -0.0000 XXYY=           -238.8869 XXZZ=           -278.6800 YYZZ=            -48.6430
 XXYZ=              0.0001 YYXZ=              0.0000 ZZXY=             -4.5561
 N-N= 3.453801367272D+02 E-N=-1.673575375082D+03  KE= 4.177268651047D+02
 1\1\GINC-AJ\SP\UCCSD(T)-FC\6-311++G(d,p)\C5H7O3(2)\AAYUSH\24-Apr-2025\
 0\\# ccsd(t)/6-311++g(d,p) sp\\Title Card Required\\0,2\C,0,2.284354,-
 1.151904,0.000005\H,0,3.072301,-1.874753,0.000008\C,0,1.130492,-0.7354
 43,0.000005\C,0,0.009411,0.19233,0.000005\O,0,0.167205,1.384564,0.0000
 09\O,0,-1.16212,-0.428666,-0.000001\C,0,-2.323864,0.428458,-0.000002\C
 ,0,-3.538283,-0.469559,-0.000005\H,0,-2.279782,1.067552,0.883984\H,0,-
 2.279778,1.067555,-0.883986\H,0,-3.546799,-1.105103,-0.886226\H,0,-3.5
 46802,-1.105107,0.886213\H,0,-4.443628,0.139603,-0.000006\O,0,3.466791
 ,0.390308,-0.000013\H,0,2.821554,1.116648,-0.000003\\Version=ES64L-G16
 RevA.03\State=2-A\HF=-417.9842012\MP2=-419.2335154\MP3=-419.2648317\MP
 4D=-419.2949738\MP4DQ=-419.2707903\PUHF=-418.0121191\PMP2-0=-419.25817
 07\PMP3-0=-419.2839256\MP4SDQ=-419.2929417\CCSD=-419.3018764\CCSD(T)=-
 419.3561923\S2=1.095797\S2-1=1.003895\S2A=0.830293\RMSD=5.013e-09\PG=C
 01 [X(C5H7O3)]\\@


 "MATHEMATICS IS THE ART OF GIVING THE SAME NAME
 TO DIFFERENT THINGS."
                    - H. POINCARE
 Job cpu time:       0 days 16 hours 49 minutes 44.4 seconds.
 Elapsed time:       0 days  0 hours 42 minutes 14.2 seconds.
 File lengths (MBytes):  RWF=  44733 Int=      0 D2E=      0 Chk=      7 Scr=      1
 Normal termination of Gaussian 16 at Thu Apr 24 05:03:53 2025.
