 Entering Gaussian System, Link 0=g16
 Initial command:
 /opt/g16/l1.exe "/home/aayush/scratches/g16/Gau-8515.inp" -scrdir="/home/aayush/scratches/g16/"
 Entering Link 1 = /opt/g16/l1.exe PID=      8518.
  
 Copyright (c) 1988,1990,1992,1993,1995,1998,2003,2009,2016,
            Gaussian, Inc.  All Rights Reserved.
  
 This is part of the Gaussian(R) 16 program.  It is based on
 the Gaussian(R) 09 system (copyright 2009, Gaussian, Inc.),
 the Gaussian(R) 03 system (copyright 2003, Gaussian, Inc.),
 the Gaussian(R) 98 system (copyright 1998, Gaussian, Inc.),
 the Gaussian(R) 94 system (copyright 1995, Gaussian, Inc.),
 the Gaussian 92(TM) system (copyright 1992, Gaussian, Inc.),
 the Gaussian 90(TM) system (copyright 1990, Gaussian, Inc.),
 the Gaussian 88(TM) system (copyright 1988, Gaussian, Inc.),
 the Gaussian 86(TM) system (copyright 1986, Carnegie Mellon
 University), and the Gaussian 82(TM) system (copyright 1983,
 Carnegie Mellon University). Gaussian is a federally registered
 trademark of Gaussian, Inc.
  
 This software contains proprietary and confidential information,
 including trade secrets, belonging to Gaussian, Inc.
  
 This software is provided under written license and may be
 used, copied, transmitted, or stored only in accord with that
 written license.
  
 The following legend is applicable only to US Government
 contracts under FAR:
  
                    RESTRICTED RIGHTS LEGEND
  
 Use, reproduction and disclosure by the US Government is
 subject to restrictions as set forth in subparagraphs (a)
 and (c) of the Commercial Computer Software - Restricted
 Rights clause in FAR 52.227-19.
  
 Gaussian, Inc.
 340 Quinnipiac St., Bldg. 40, Wallingford CT 06492
  
  
 ---------------------------------------------------------------
 Warning -- This program may not be used in any manner that
 competes with the business of Gaussian, Inc. or will provide
 assistance to any competitor of Gaussian, Inc.  The licensee
 of this program is prohibited from giving any competitor of
 Gaussian, Inc. access to this program.  By using this program,
 the user acknowledges that Gaussian, Inc. is engaged in the
 business of creating and licensing software in the field of
 computational chemistry and represents and warrants to the
 licensee that it is not a competitor of Gaussian, Inc. and that
 it will not use this program in any manner prohibited above.
 ---------------------------------------------------------------
  

 Cite this work as:
 Gaussian 16, Revision A.03,
 M. J. Frisch, G. W. Trucks, H. B. Schlegel, G. E. Scuseria, 
 M. A. Robb, J. R. Cheeseman, G. Scalmani, V. Barone, 
 G. A. Petersson, H. Nakatsuji, X. Li, M. Caricato, A. V. Marenich, 
 J. Bloino, B. G. Janesko, R. Gomperts, B. Mennucci, H. P. Hratchian, 
 J. V. Ortiz, A. F. Izmaylov, J. L. Sonnenberg, D. Williams-Young, 
 F. Ding, F. Lipparini, F. Egidi, J. Goings, B. Peng, A. Petrone, 
 T. Henderson, D. Ranasinghe, V. G. Zakrzewski, J. Gao, N. Rega, 
 G. Zheng, W. Liang, M. Hada, M. Ehara, K. Toyota, R. Fukuda, 
 J. Hasegawa, M. Ishida, T. Nakajima, Y. Honda, O. Kitao, H. Nakai, 
 T. Vreven, K. Throssell, J. A. Montgomery, Jr., J. E. Peralta, 
 F. Ogliaro, M. J. Bearpark, J. J. Heyd, E. N. Brothers, K. N. Kudin, 
 V. N. Staroverov, T. A. Keith, R. Kobayashi, J. Normand, 
 K. Raghavachari, A. P. Rendell, J. C. Burant, S. S. Iyengar, 
 J. Tomasi, M. Cossi, J. M. Millam, M. Klene, C. Adamo, R. Cammi, 
 J. W. Ochterski, R. L. Martin, K. Morokuma, O. Farkas, 
 J. B. Foresman, and D. J. Fox, Gaussian, Inc., Wallingford CT, 2016.
 
 ******************************************
 Gaussian 16:  ES64L-G16RevA.03 25-Dec-2016
                28-Apr-2025 
 ******************************************
 %chk=ethyl_propiolate.chk
 %nprocshared=24
 Will use up to   24 processors via shared memory.
 %mem=12GB
 --------------------------
 # ccsd(t)/6-311++g(d,p) sp
 --------------------------
 1/38=1,172=1/1;
 2/12=2,17=6,18=5,40=1/2;
 3/5=4,6=6,7=1111,11=9,25=1,30=1/1,2,3;
 4//1;
 5/5=2,38=5/2;
 8/6=4,9=120000,10=2/1,4;
 9/5=7,14=2/13;
 6/7=2,8=2,9=2,10=2/1;
 99/5=1,9=1/99;
 -------------------
 Title Card Required
 -------------------
 Symbolic Z-matrix:
 Charge =  0 Multiplicity = 2
 C                    -2.5277    0.21868  -1.13496 
 H                    -3.42228   0.48396  -1.6486 
 C                    -1.52115  -0.02871  -0.51629 
 C                    -0.25778  -0.59575  -0.03513 
 O                    -0.18272  -1.66046   0.50909 
 O                     0.76092   0.20564  -0.31644 
 C                     2.05251  -0.25527   0.12616 
 C                     3.05826   0.80256  -0.26244 
 H                     2.01006  -0.40967   1.20619 
 H                     2.25742  -1.21793  -0.34693 
 H                     3.06722   0.94687  -1.34345 
 H                     2.81689   1.75304   0.2145 
 H                     4.05581   0.49541   0.05604 
 O                    -1.70376   1.17279   1.19449 
 H                    -2.4964    0.73947   1.5494 
 
                          Input orientation:                          
 ---------------------------------------------------------------------
 Center     Atomic      Atomic             Coordinates (Angstroms)
 Number     Number       Type             X           Y           Z
 ---------------------------------------------------------------------
      1          6           0       -2.527704    0.218676   -1.134955
      2          1           0       -3.422275    0.483964   -1.648604
      3          6           0       -1.521150   -0.028711   -0.516293
      4          6           0       -0.257776   -0.595745   -0.035128
      5          8           0       -0.182720   -1.660461    0.509089
      6          8           0        0.760915    0.205636   -0.316435
      7          6           0        2.052509   -0.255265    0.126161
      8          6           0        3.058263    0.802560   -0.262438
      9          1           0        2.010059   -0.409668    1.206186
     10          1           0        2.257419   -1.217927   -0.346934
     11          1           0        3.067224    0.946869   -1.343445
     12          1           0        2.816885    1.753042    0.214500
     13          1           0        4.055805    0.495412    0.056040
     14          8           0       -1.703760    1.172788    1.194486
     15          1           0       -2.496396    0.739474    1.549395
 ---------------------------------------------------------------------
                    Distance matrix (angstroms):
                    1          2          3          4          5
     1  C    0.000000
     2  H    1.065115   0.000000
     3  C    1.207101   2.271396   0.000000
     4  C    2.650561   3.712564   1.466002   0.000000
     5  O    3.425345   4.443975   2.346361   1.198093   0.000000
     6  O    3.388976   4.399002   2.302755   1.326302   2.248167
     7  C    4.774242   5.802543   3.638009   2.340803   2.667857
     8  C    5.683769   6.634782   4.661167   3.605973   4.143151
     9  H    5.144614   6.201504   3.947341   2.592019   2.618913
    10  H    5.057886   6.070396   3.964909   2.609701   2.623526
    11  H    5.645968   6.513141   4.763309   3.891912   4.559845
    12  H    5.721883   6.633915   4.746288   3.877197   4.553725
    13  H    6.696092   7.669917   5.630692   4.450384   4.776833
    14  O    2.648681   3.392777   2.098502   2.594326   3.287952
    15  H    2.734583   3.339122   2.410037   3.050400   3.492137
                    6          7          8          9         10
     6  O    0.000000
     7  C    1.441019   0.000000
     8  C    2.374246   1.510478   0.000000
     9  H    2.063331   1.091832   2.173726   0.000000
    10  H    2.065668   1.092028   2.175054   1.768234   0.000000
    11  H    2.631204   2.152792   1.090634   3.075453   2.516974
    12  H    2.627426   2.150668   1.090481   2.512314   3.074877
    13  H    3.328514   2.140474   1.091264   2.515369   2.516369
    14  O    3.048424   4.158150   4.993652   4.036924   4.876724
    15  H    3.791620   4.869049   5.843026   4.663310   5.479620
                   11         12         13         14         15
    11  H    0.000000
    12  H    1.771942   0.000000
    13  H    1.771910   1.772474   0.000000
    14  O    5.408736   4.661899   5.909948   0.000000
    15  H    6.274185   5.571375   6.724657   0.970563   0.000000
 Stoichiometry    C5H7O3(2)
 Framework group  C1[X(C5H7O3)]
 Deg. of freedom    39
 Full point group                 C1      NOp   1
 Largest Abelian subgroup         C1      NOp   1
 Largest concise Abelian subgroup C1      NOp   1
                         Standard orientation:                         
 ---------------------------------------------------------------------
 Center     Atomic      Atomic             Coordinates (Angstroms)
 Number     Number       Type             X           Y           Z
 ---------------------------------------------------------------------
      1          6           0        2.594673   -0.144543   -1.141070
      2          1           0        3.489240   -0.386618   -1.666065
      3          6           0        1.588195    0.075023   -0.511875
      4          6           0        0.324512    0.619591   -0.006194
      5          8           0        0.248689    1.659866    0.583301
      6          8           0       -0.693535   -0.169988   -0.321191
      7          6           0       -1.985353    0.270174    0.141409
      8          6           0       -2.990266   -0.770989   -0.291805
      9          1           0       -1.942499    0.378074    1.227050
     10          1           0       -2.191454    1.252066   -0.289792
     11          1           0       -2.999642   -0.868729   -1.378010
     12          1           0       -2.747708   -1.740842    0.143741
     13          1           0       -3.987946   -0.478811    0.040047
     14          8           0        1.772869   -1.198685    1.145616
     15          1           0        2.565261   -0.780223    1.518440
 ---------------------------------------------------------------------
 Rotational constants (GHZ):           3.5175754           1.1423765           1.0695077
 Standard basis: 6-311++G(d,p) (5D, 7F)
 There are   233 symmetry adapted cartesian basis functions of A   symmetry.
 There are   225 symmetry adapted basis functions of A   symmetry.
   225 basis functions,   351 primitive gaussians,   233 cartesian basis functions
    31 alpha electrons       30 beta electrons
       nuclear repulsion energy       355.0758099691 Hartrees.
 NAtoms=   15 NActive=   15 NUniq=   15 SFac= 1.00D+00 NAtFMM=   60 NAOKFM=F Big=F
 Integral buffers will be    131072 words long.
 Raffenetti 2 integral format.
 Two-electron integral symmetry is turned on.
 One-electron integrals computed using PRISM.
 NBasis=   225 RedAO= T EigKep=  1.97D-06  NBF=   225
 NBsUse=   225 1.00D-06 EigRej= -1.00D+00 NBFU=   225
 ExpMin= 3.60D-02 ExpMax= 8.59D+03 ExpMxC= 1.30D+03 IAcc=3 IRadAn=         5 AccDes= 0.00D+00
 Harris functional with IExCor=  205 and IRadAn=       5 diagonalized for initial guess.
 HarFok:  IExCor=  205 AccDes= 0.00D+00 IRadAn=         5 IDoV= 1 UseB2=F ITyADJ=14
 ICtDFT=  3500011 ScaDFX=  1.000000  1.000000  1.000000  1.000000
 FoFCou: FMM=F IPFlag=           0 FMFlag=      100000 FMFlg1=           0
         NFxFlg=           0 DoJE=T BraDBF=F KetDBF=T FulRan=T
         wScrn=  0.000000 ICntrl=       500 IOpCl=  0 I1Cent=   200000004 NGrid=           0
         NMat0=    1 NMatS0=      1 NMatT0=    0 NMatD0=    1 NMtDS0=    0 NMtDT0=    0
 Petite list used in FoFCou.
 Initial guess <Sx>= 0.0000 <Sy>= 0.0000 <Sz>= 0.5000 <S**2>= 0.7500 S= 0.5000
 Requested convergence on RMS density matrix=1.00D-08 within 128 cycles.
 Requested convergence on MAX density matrix=1.00D-06.
 Requested convergence on             energy=1.00D-06.
 No special actions if energy rises.
 Restarting incremental Fock formation.
 Initial convergence to 1.0D-05 achieved.  Increase integral accuracy.
 SCF Done:  E(UHF) =  -417.984808042     A.U. after   38 cycles
            NFock= 38  Conv=0.33D-08     -V/T= 2.0006
 <Sx>= 0.0000 <Sy>= 0.0000 <Sz>= 0.5000 <S**2>= 0.9404 S= 0.5911
 <L.S>=  0.00000000000    
 Annihilation of the first spin contaminant:
 S**2 before annihilation     0.9404,   after     0.7710
 ExpMin= 3.60D-02 ExpMax= 8.59D+03 ExpMxC= 1.30D+03 IAcc=3 IRadAn=         5 AccDes= 0.00D+00
 HarFok:  IExCor=  205 AccDes= 0.00D+00 IRadAn=         5 IDoV=-2 UseB2=F ITyADJ=14
 ICtDFT= 12500011 ScaDFX=  1.000000  1.000000  1.000000  1.000000
 Range of M.O.s used for correlation:     9   225
 NBasis=   225 NAE=    31 NBE=    30 NFC=     8 NFV=     0
 NROrb=    217 NOA=    23 NOB=    22 NVA=   194 NVB=   195

 **** Warning!!: The largest alpha MO coefficient is  0.26113319D+03


 **** Warning!!: The largest beta MO coefficient is  0.21635347D+03

 Semi-Direct transformation.
 ModeAB=           4 MOrb=            23 LenV=    1609178448
 LASXX=    109339976 LTotXX=   109339976 LenRXX=   221407890
 LTotAB=   112067914 MaxLAS=   127050896 LenRXY=           0
 NonZer=   330747866 LenScr=   498067456 LnRSAI=   127050896
 LnScr1=   191340032 LExtra=           0 Total=   1037866274
 MaxDsk=          -1 SrtSym=           T ITran=            4
 JobTyp=1 Pass  1:  I=   1 to  23.
 (rs|ai) integrals will be sorted in core.
 ModeAB=           4 MOrb=            22 LenV=    1609178448
 LASXX=    104936601 LTotXX=   104936601 LenRXX=   190867446
 LTotAB=    85930845 MaxLAS=   121526944 LenRXY=           0
 NonZer=   295804047 LenScr=   445446144 LnRSAI=   121526944
 LnScr1=   183066624 LExtra=           0 Total=    940907158
 MaxDsk=          -1 SrtSym=           T ITran=            4
 JobTyp=2 Pass  1:  I=   1 to  22.
 (rs|ai) integrals will be sorted in core.
 SymMOI:  orbitals are not symmetric.
 Spin components of T(2) and E(2):
     alpha-alpha T2 =       0.5215142380D-01 E2=     -0.1695837282D+00
     alpha-beta  T2 =       0.2827453620D+00 E2=     -0.9311548156D+00
     beta-beta   T2 =       0.4950080725D-01 E2=     -0.1559455067D+00
 ANorm=    0.1176604264D+01
 E2 =    -0.1256684051D+01 EUMP2 =    -0.41924149209210D+03
 (S**2,0)=  0.94044D+00           (S**2,1)=  0.88735D+00
 E(PUHF)=      -0.41800047607D+03        E(PMP2)=      -0.41925510923D+03
 Keep R2 and R3 ints in memory in canonical form, NReq=652884060.
 CIDS: In Core Option IDoMem=           1.
 Iterations=  50 Convergence= 0.100D-06
 Produce multiple copies of IABC intergrals
 Iteration Nr.   1
 **********************
 DD1Dir will call FoFMem   1 times, MxPair=      1496
 NAB=   506 NAA=   253 NBB=   231.
 E(PMP3)=      -0.41928095941D+03
 MP4(R+Q)=  0.24603218D-01
 E3=       -0.29412231D-01        EUMP3=      -0.41927090432D+03
 E4(DQ)=   -0.58346935D-02        UMP4(DQ)=   -0.41927673902D+03
 E4(SDQ)=  -0.26123247D-01        UMP4(SDQ)=  -0.41929702757D+03
 DE(Corr)=  -1.2611095     E(Corr)=     -419.24591751    
 NORM(A)=   0.11854089D+01
 Iteration Nr.   2
 **********************
 DD1Dir will call FoFMem   1 times, MxPair=      1496
 NAB=   506 NAA=   253 NBB=   231.
 DE(Corr)=  -1.3039843     E(CORR)=     -419.28879238     Delta=-4.29D-02
 NORM(A)=   0.12060235D+01
 Iteration Nr.   3
 **********************
 DD1Dir will call FoFMem   1 times, MxPair=      1496
 NAB=   506 NAA=   253 NBB=   231.
 DE(Corr)=  -1.3068890     E(CORR)=     -419.29169708     Delta=-2.90D-03
 NORM(A)=   0.12169698D+01
 Iteration Nr.   4
 **********************
 DD1Dir will call FoFMem   1 times, MxPair=      1496
 NAB=   506 NAA=   253 NBB=   231.
 DE(Corr)=  -1.3136854     E(CORR)=     -419.29849348     Delta=-6.80D-03
 NORM(A)=   0.12238951D+01
 Iteration Nr.   5
 **********************
 DD1Dir will call FoFMem   1 times, MxPair=      1496
 NAB=   506 NAA=   253 NBB=   231.
 DE(Corr)=  -1.3155320     E(CORR)=     -419.30034008     Delta=-1.85D-03
 NORM(A)=   0.12273480D+01
 Iteration Nr.   6
 **********************
 DD1Dir will call FoFMem   1 times, MxPair=      1496
 NAB=   506 NAA=   253 NBB=   231.
 DE(Corr)=  -1.3160866     E(CORR)=     -419.30089464     Delta=-5.55D-04
 NORM(A)=   0.12279009D+01
 Iteration Nr.   7
 **********************
 DD1Dir will call FoFMem   1 times, MxPair=      1496
 NAB=   506 NAA=   253 NBB=   231.
 DE(Corr)=  -1.3161630     E(CORR)=     -419.30097100     Delta=-7.64D-05
 NORM(A)=   0.12280007D+01
 Iteration Nr.   8
 **********************
 DD1Dir will call FoFMem   1 times, MxPair=      1496
 NAB=   506 NAA=   253 NBB=   231.
 DE(Corr)=  -1.3161422     E(CORR)=     -419.30095019     Delta= 2.08D-05
 NORM(A)=   0.12280197D+01
 Iteration Nr.   9
 **********************
 DD1Dir will call FoFMem   1 times, MxPair=      1496
 NAB=   506 NAA=   253 NBB=   231.
 DE(Corr)=  -1.3161540     E(CORR)=     -419.30096206     Delta=-1.19D-05
 NORM(A)=   0.12279979D+01
 Iteration Nr.  10
 **********************
 DD1Dir will call FoFMem   1 times, MxPair=      1496
 NAB=   506 NAA=   253 NBB=   231.
 DE(Corr)=  -1.3161425     E(CORR)=     -419.30095053     Delta= 1.15D-05
 NORM(A)=   0.12279770D+01
 Iteration Nr.  11
 **********************
 DD1Dir will call FoFMem   1 times, MxPair=      1496
 NAB=   506 NAA=   253 NBB=   231.
 DE(Corr)=  -1.3161565     E(CORR)=     -419.30096456     Delta=-1.40D-05
 NORM(A)=   0.12279883D+01
 Iteration Nr.  12
 **********************
 DD1Dir will call FoFMem   1 times, MxPair=      1496
 NAB=   506 NAA=   253 NBB=   231.
 DE(Corr)=  -1.3161511     E(CORR)=     -419.30095917     Delta= 5.39D-06
 NORM(A)=   0.12280368D+01
 Iteration Nr.  13
 **********************
 DD1Dir will call FoFMem   1 times, MxPair=      1496
 NAB=   506 NAA=   253 NBB=   231.
 DE(Corr)=  -1.3161631     E(CORR)=     -419.30097112     Delta=-1.20D-05
 NORM(A)=   0.12281134D+01
 Iteration Nr.  14
 **********************
 DD1Dir will call FoFMem   1 times, MxPair=      1496
 NAB=   506 NAA=   253 NBB=   231.
 DE(Corr)=  -1.3161746     E(CORR)=     -419.30098269     Delta=-1.16D-05
 NORM(A)=   0.12281828D+01
 Iteration Nr.  15
 **********************
 DD1Dir will call FoFMem   1 times, MxPair=      1496
 NAB=   506 NAA=   253 NBB=   231.
 DE(Corr)=  -1.3161818     E(CORR)=     -419.30098984     Delta=-7.16D-06
 NORM(A)=   0.12282233D+01
 Iteration Nr.  16
 **********************
 DD1Dir will call FoFMem   1 times, MxPair=      1496
 NAB=   506 NAA=   253 NBB=   231.
 DE(Corr)=  -1.3161906     E(CORR)=     -419.30099868     Delta=-8.83D-06
 NORM(A)=   0.12282347D+01
 Iteration Nr.  17
 **********************
 DD1Dir will call FoFMem   1 times, MxPair=      1496
 NAB=   506 NAA=   253 NBB=   231.
 DE(Corr)=  -1.3161895     E(CORR)=     -419.30099753     Delta= 1.15D-06
 NORM(A)=   0.12282335D+01
 Iteration Nr.  18
 **********************
 DD1Dir will call FoFMem   1 times, MxPair=      1496
 NAB=   506 NAA=   253 NBB=   231.
 DE(Corr)=  -1.3161895     E(CORR)=     -419.30099758     Delta=-4.84D-08
 NORM(A)=   0.12282287D+01
 Iteration Nr.  19
 **********************
 DD1Dir will call FoFMem   1 times, MxPair=      1496
 NAB=   506 NAA=   253 NBB=   231.
 DE(Corr)=  -1.3161880     E(CORR)=     -419.30099600     Delta= 1.57D-06
 NORM(A)=   0.12282244D+01
 Iteration Nr.  20
 **********************
 DD1Dir will call FoFMem   1 times, MxPair=      1496
 NAB=   506 NAA=   253 NBB=   231.
 DE(Corr)=  -1.3161869     E(CORR)=     -419.30099494     Delta= 1.06D-06
 NORM(A)=   0.12282212D+01
 Iteration Nr.  21
 **********************
 DD1Dir will call FoFMem   1 times, MxPair=      1496
 NAB=   506 NAA=   253 NBB=   231.
 DE(Corr)=  -1.3161862     E(CORR)=     -419.30099429     Delta= 6.54D-07
 NORM(A)=   0.12282203D+01
 Iteration Nr.  22
 **********************
 DD1Dir will call FoFMem   1 times, MxPair=      1496
 NAB=   506 NAA=   253 NBB=   231.
 DE(Corr)=  -1.3161860     E(CORR)=     -419.30099400     Delta= 2.87D-07
 NORM(A)=   0.12282212D+01
 Iteration Nr.  23
 **********************
 DD1Dir will call FoFMem   1 times, MxPair=      1496
 NAB=   506 NAA=   253 NBB=   231.
 DE(Corr)=  -1.3161862     E(CORR)=     -419.30099419     Delta=-1.94D-07
 NORM(A)=   0.12282237D+01
 Iteration Nr.  24
 **********************
 DD1Dir will call FoFMem   1 times, MxPair=      1496
 NAB=   506 NAA=   253 NBB=   231.
 DE(Corr)=  -1.3161865     E(CORR)=     -419.30099456     Delta=-3.70D-07
 NORM(A)=   0.12282272D+01
 Iteration Nr.  25
 **********************
 DD1Dir will call FoFMem   1 times, MxPair=      1496
 NAB=   506 NAA=   253 NBB=   231.
 DE(Corr)=  -1.3161871     E(CORR)=     -419.30099517     Delta=-6.04D-07
 NORM(A)=   0.12282301D+01
 Iteration Nr.  26
 **********************
 DD1Dir will call FoFMem   1 times, MxPair=      1496
 NAB=   506 NAA=   253 NBB=   231.
 DE(Corr)=  -1.3161874     E(CORR)=     -419.30099549     Delta=-3.24D-07
 NORM(A)=   0.12282315D+01
 Iteration Nr.  27
 **********************
 DD1Dir will call FoFMem   1 times, MxPair=      1496
 NAB=   506 NAA=   253 NBB=   231.
 DE(Corr)=  -1.3161876     E(CORR)=     -419.30099562     Delta=-1.32D-07
 NORM(A)=   0.12282313D+01
 Iteration Nr.  28
 **********************
 DD1Dir will call FoFMem   1 times, MxPair=      1496
 NAB=   506 NAA=   253 NBB=   231.
 DE(Corr)=  -1.3161874     E(CORR)=     -419.30099544     Delta= 1.84D-07
 NORM(A)=   0.12282306D+01
 Iteration Nr.  29
 **********************
 DD1Dir will call FoFMem   1 times, MxPair=      1496
 NAB=   506 NAA=   253 NBB=   231.
 DE(Corr)=  -1.3161872     E(CORR)=     -419.30099523     Delta= 2.12D-07
 NORM(A)=   0.12282299D+01
 Iteration Nr.  30
 **********************
 DD1Dir will call FoFMem   1 times, MxPair=      1496
 NAB=   506 NAA=   253 NBB=   231.
 DE(Corr)=  -1.3161870     E(CORR)=     -419.30099507     Delta= 1.54D-07
 NORM(A)=   0.12282294D+01
 Iteration Nr.  31
 **********************
 DD1Dir will call FoFMem   1 times, MxPair=      1496
 NAB=   506 NAA=   253 NBB=   231.
 DE(Corr)=  -1.3161869     E(CORR)=     -419.30099496     Delta= 1.10D-07
 NORM(A)=   0.12282293D+01
 Iteration Nr.  32
 **********************
 DD1Dir will call FoFMem   1 times, MxPair=      1496
 NAB=   506 NAA=   253 NBB=   231.
 DE(Corr)=  -1.3161869     E(CORR)=     -419.30099495     Delta= 1.32D-08
 NORM(A)=   0.12282293D+01
 Wavefunction amplitudes converged. E(Corr)=     -419.30099495    
 Largest amplitude= 6.25D-02
 Time for triples=    37620.50 seconds.
 T4(CCSD)= -0.57114274D-01
 T5(CCSD)=  0.38655948D-02
 CCSD(T)= -0.41935424363D+03

 S**2, projected HF & approx projected MPn energies after annihilation of
 unwanted spin states (see manual for definitions):

 spins       (S**2,0) (S**2,1)    PUHF        PMP2        PMP3        PMP4
 annihilated
 s+1         0.73762  0.74550 -418.000476 -419.255109 -419.280959
 s+1,s+2     0.75017  0.74996 -417.999561 -419.254249 -419.280170
 s+1 to s+3  0.75000  0.75000 -417.999576 -419.254260 -419.280175
 s+1 to s+4  0.75000  0.75000 -417.999576 -419.254260 -419.280174
 s+1 to s+5  0.75000  0.75000 -417.999576
 s+1 to s+6  0.75000  0.75000 -417.999576

 Discarding MO integrals.

 **********************************************************************

            Population analysis using the SCF density.

 **********************************************************************

 Orbital symmetries:
 Alpha Orbitals:
       Occupied  (A) (A) (A) (A) (A) (A) (A) (A) (A) (A) (A) (A)
                 (A) (A) (A) (A) (A) (A) (A) (A) (A) (A) (A) (A)
                 (A) (A) (A) (A) (A) (A) (A)
       Virtual   (A) (A) (A) (A) (A) (A) (A) (A) (A) (A) (A) (A)
                 (A) (A) (A) (A) (A) (A) (A) (A) (A) (A) (A) (A)
                 (A) (A) (A) (A) (A) (A) (A) (A) (A) (A) (A) (A)
                 (A) (A) (A) (A) (A) (A) (A) (A) (A) (A) (A) (A)
                 (A) (A) (A) (A) (A) (A) (A) (A) (A) (A) (A) (A)
                 (A) (A) (A) (A) (A) (A) (A) (A) (A) (A) (A) (A)
                 (A) (A) (A) (A) (A) (A) (A) (A) (A) (A) (A) (A)
                 (A) (A) (A) (A) (A) (A) (A) (A) (A) (A) (A) (A)
                 (A) (A) (A) (A) (A) (A) (A) (A) (A) (A) (A) (A)
                 (A) (A) (A) (A) (A) (A) (A) (A) (A) (A) (A) (A)
                 (A) (A) (A) (A) (A) (A) (A) (A) (A) (A) (A) (A)
                 (A) (A) (A) (A) (A) (A) (A) (A) (A) (A) (A) (A)
                 (A) (A) (A) (A) (A) (A) (A) (A) (A) (A) (A) (A)
                 (A) (A) (A) (A) (A) (A) (A) (A) (A) (A) (A) (A)
                 (A) (A) (A) (A) (A) (A) (A) (A) (A) (A) (A) (A)
                 (A) (A) (A) (A) (A) (A) (A) (A) (A) (A) (A) (A)
                 (A) (A)
 Beta  Orbitals:
       Occupied  (A) (A) (A) (A) (A) (A) (A) (A) (A) (A) (A) (A)
                 (A) (A) (A) (A) (A) (A) (A) (A) (A) (A) (A) (A)
                 (A) (A) (A) (A) (A) (A)
       Virtual   (A) (A) (A) (A) (A) (A) (A) (A) (A) (A) (A) (A)
                 (A) (A) (A) (A) (A) (A) (A) (A) (A) (A) (A) (A)
                 (A) (A) (A) (A) (A) (A) (A) (A) (A) (A) (A) (A)
                 (A) (A) (A) (A) (A) (A) (A) (A) (A) (A) (A) (A)
                 (A) (A) (A) (A) (A) (A) (A) (A) (A) (A) (A) (A)
                 (A) (A) (A) (A) (A) (A) (A) (A) (A) (A) (A) (A)
                 (A) (A) (A) (A) (A) (A) (A) (A) (A) (A) (A) (A)
                 (A) (A) (A) (A) (A) (A) (A) (A) (A) (A) (A) (A)
                 (A) (A) (A) (A) (A) (A) (A) (A) (A) (A) (A) (A)
                 (A) (A) (A) (A) (A) (A) (A) (A) (A) (A) (A) (A)
                 (A) (A) (A) (A) (A) (A) (A) (A) (A) (A) (A) (A)
                 (A) (A) (A) (A) (A) (A) (A) (A) (A) (A) (A) (A)
                 (A) (A) (A) (A) (A) (A) (A) (A) (A) (A) (A) (A)
                 (A) (A) (A) (A) (A) (A) (A) (A) (A) (A) (A) (A)
                 (A) (A) (A) (A) (A) (A) (A) (A) (A) (A) (A) (A)
                 (A) (A) (A) (A) (A) (A) (A) (A) (A) (A) (A) (A)
                 (A) (A) (A)
 The electronic state is 2-A.
 Alpha  occ. eigenvalues --  -20.62606 -20.61050 -20.55558 -11.41295 -11.29509
 Alpha  occ. eigenvalues --  -11.26836 -11.25971 -11.22709  -1.48074  -1.38372
 Alpha  occ. eigenvalues --   -1.37643  -1.07896  -1.04595  -0.92016  -0.83217
 Alpha  occ. eigenvalues --   -0.77216  -0.72755  -0.69898  -0.68775  -0.67332
 Alpha  occ. eigenvalues --   -0.65669  -0.59419  -0.58599  -0.55657  -0.55002
 Alpha  occ. eigenvalues --   -0.51903  -0.51415  -0.47633  -0.46202  -0.42983
 Alpha  occ. eigenvalues --   -0.42161
 Alpha virt. eigenvalues --    0.03689   0.04492   0.05919   0.06559   0.07099
 Alpha virt. eigenvalues --    0.08131   0.09955   0.10206   0.11061   0.12030
 Alpha virt. eigenvalues --    0.12913   0.13818   0.14779   0.15243   0.16731
 Alpha virt. eigenvalues --    0.16959   0.17419   0.18713   0.18859   0.19866
 Alpha virt. eigenvalues --    0.20379   0.20764   0.21837   0.22341   0.23082
 Alpha virt. eigenvalues --    0.24560   0.25787   0.26825   0.26950   0.29244
 Alpha virt. eigenvalues --    0.29562   0.30532   0.31613   0.32031   0.32759
 Alpha virt. eigenvalues --    0.34285   0.35559   0.36107   0.37154   0.37934
 Alpha virt. eigenvalues --    0.38792   0.41039   0.42282   0.43333   0.44596
 Alpha virt. eigenvalues --    0.45591   0.46548   0.46940   0.47529   0.50556
 Alpha virt. eigenvalues --    0.51070   0.55442   0.57447   0.59024   0.61456
 Alpha virt. eigenvalues --    0.63550   0.67931   0.68565   0.68864   0.72248
 Alpha virt. eigenvalues --    0.73200   0.74750   0.81103   0.82872   0.83880
 Alpha virt. eigenvalues --    0.84769   0.85887   0.87010   0.87413   0.87684
 Alpha virt. eigenvalues --    0.90109   0.91172   0.92638   0.95767   0.97413
 Alpha virt. eigenvalues --    0.99517   1.04571   1.08963   1.10088   1.13163
 Alpha virt. eigenvalues --    1.21798   1.23748   1.25160   1.26363   1.29738
 Alpha virt. eigenvalues --    1.32838   1.37698   1.38016   1.40808   1.41379
 Alpha virt. eigenvalues --    1.44307   1.44807   1.49304   1.50252   1.51772
 Alpha virt. eigenvalues --    1.52384   1.55689   1.59486   1.61933   1.65075
 Alpha virt. eigenvalues --    1.66459   1.70954   1.71969   1.74376   1.78206
 Alpha virt. eigenvalues --    1.80496   1.82525   1.83408   1.85835   1.87398
 Alpha virt. eigenvalues --    1.89424   1.91485   1.93574   1.95721   1.99460
 Alpha virt. eigenvalues --    2.00984   2.02931   2.09820   2.12118   2.13833
 Alpha virt. eigenvalues --    2.18055   2.20779   2.27361   2.30048   2.34153
 Alpha virt. eigenvalues --    2.34673   2.41537   2.42186   2.48235   2.56893
 Alpha virt. eigenvalues --    2.65264   2.69086   2.78406   2.79543   2.81640
 Alpha virt. eigenvalues --    2.82700   2.86147   2.88656   2.89383   2.93324
 Alpha virt. eigenvalues --    2.96275   2.96818   2.98603   3.00030   3.06418
 Alpha virt. eigenvalues --    3.13150   3.14718   3.18003   3.19474   3.21433
 Alpha virt. eigenvalues --    3.24875   3.31098   3.33754   3.37246   3.40368
 Alpha virt. eigenvalues --    3.41058   3.44284   3.47868   3.49413   3.52076
 Alpha virt. eigenvalues --    3.59828   3.62510   3.65668   3.71554   3.72424
 Alpha virt. eigenvalues --    3.79571   3.87451   4.03460   4.15954   4.20500
 Alpha virt. eigenvalues --    4.22043   4.22351   4.23834   4.44377   4.53178
 Alpha virt. eigenvalues --    4.55388   4.71034   5.52966   5.54793   5.58459
 Alpha virt. eigenvalues --    5.65356   5.78416   5.93209   6.03164   6.23095
 Alpha virt. eigenvalues --    6.43468  24.70036  25.00884  25.01973  25.14306
 Alpha virt. eigenvalues --   26.20630  51.51848  51.61349  51.71958
  Beta  occ. eigenvalues --  -20.61058 -20.58657 -20.55939 -11.40985 -11.29510
  Beta  occ. eigenvalues --  -11.27511 -11.25036 -11.22709  -1.48228  -1.38267
  Beta  occ. eigenvalues --   -1.23999  -1.07915  -1.03925  -0.91100  -0.82969
  Beta  occ. eigenvalues --   -0.76975  -0.71939  -0.69560  -0.69098  -0.63723
  Beta  occ. eigenvalues --   -0.60104  -0.58807  -0.55704  -0.52683  -0.51948
  Beta  occ. eigenvalues --   -0.50091  -0.48442  -0.47144  -0.43590  -0.42309
  Beta virt. eigenvalues --    0.03755   0.04471   0.04916   0.06544   0.07086
  Beta virt. eigenvalues --    0.08003   0.08677   0.09918   0.10745   0.11614
  Beta virt. eigenvalues --    0.12637   0.13027   0.14031   0.15394   0.15785
  Beta virt. eigenvalues --    0.16922   0.17289   0.18006   0.18766   0.18919
  Beta virt. eigenvalues --    0.20078   0.20609   0.20810   0.22025   0.22400
  Beta virt. eigenvalues --    0.23582   0.24630   0.25755   0.26604   0.27531
  Beta virt. eigenvalues --    0.29514   0.29784   0.30639   0.32009   0.32711
  Beta virt. eigenvalues --    0.33422   0.35288   0.36227   0.36246   0.37500
  Beta virt. eigenvalues --    0.37961   0.39105   0.41027   0.42329   0.43333
  Beta virt. eigenvalues --    0.44770   0.45624   0.46443   0.46814   0.48225
  Beta virt. eigenvalues --    0.50564   0.51538   0.55168   0.57453   0.59079
  Beta virt. eigenvalues --    0.61987   0.63690   0.68070   0.68825   0.69217
  Beta virt. eigenvalues --    0.73126   0.75199   0.76718   0.81528   0.82948
  Beta virt. eigenvalues --    0.84315   0.85209   0.86018   0.86999   0.87506
  Beta virt. eigenvalues --    0.88328   0.89602   0.90288   0.92532   0.95865
  Beta virt. eigenvalues --    0.97398   0.99354   1.04691   1.09198   1.10898
  Beta virt. eigenvalues --    1.13219   1.21831   1.24256   1.25300   1.29115
  Beta virt. eigenvalues --    1.31979   1.34109   1.38160   1.39658   1.41493
  Beta virt. eigenvalues --    1.42792   1.44483   1.45345   1.49357   1.50745
  Beta virt. eigenvalues --    1.52070   1.53663   1.57131   1.61190   1.63518
  Beta virt. eigenvalues --    1.65469   1.68157   1.71675   1.72335   1.75423
  Beta virt. eigenvalues --    1.78948   1.80503   1.82523   1.83614   1.86004
  Beta virt. eigenvalues --    1.87128   1.89399   1.91103   1.93530   1.95651
  Beta virt. eigenvalues --    1.99760   2.00974   2.02823   2.10002   2.12379
  Beta virt. eigenvalues --    2.13759   2.18160   2.21286   2.27666   2.30062
  Beta virt. eigenvalues --    2.34602   2.35916   2.41592   2.42299   2.48242
  Beta virt. eigenvalues --    2.56894   2.65267   2.69199   2.78378   2.79566
  Beta virt. eigenvalues --    2.81529   2.82705   2.86159   2.88713   2.89832
  Beta virt. eigenvalues --    2.93393   2.96267   2.96826   2.99045   3.00025
  Beta virt. eigenvalues --    3.07199   3.14595   3.17607   3.19821   3.20857
  Beta virt. eigenvalues --    3.26458   3.27478   3.31411   3.36734   3.38437
  Beta virt. eigenvalues --    3.40414   3.44482   3.46937   3.49574   3.50731
  Beta virt. eigenvalues --    3.54322   3.61183   3.62790   3.65667   3.71602
  Beta virt. eigenvalues --    3.72652   3.78982   3.88289   4.03350   4.15712
  Beta virt. eigenvalues --    4.20506   4.22043   4.22337   4.27091   4.44291
  Beta virt. eigenvalues --    4.53101   4.55334   4.71030   5.55461   5.58381
  Beta virt. eigenvalues --    5.64751   5.66528   5.78314   5.93232   6.05667
  Beta virt. eigenvalues --    6.23010   6.43393  24.69979  25.01031  25.02068
  Beta virt. eigenvalues --   25.14306  26.20825  51.53986  51.61447  51.71755
          Condensed to atoms (all electrons):
               1          2          3          4          5          6
     1  C   24.001389   0.586728  -6.861914 -10.403583   0.064396   0.069648
     2  H    0.586728   0.404669  -0.161628  -0.031380  -0.001504  -0.002837
     3  C   -6.861914  -0.161628  17.002812  -5.113620   0.324572   0.040789
     4  C  -10.403583  -0.031380  -5.113620  21.704358   0.025116  -0.271601
     5  O    0.064396  -0.001504   0.324572   0.025116   8.062918  -0.106441
     6  O    0.069648  -0.002837   0.040789  -0.271601  -0.106441   8.400633
     7  C   -0.161356  -0.000135  -0.561935   0.320637  -0.059042   0.193768
     8  C   -0.048355   0.000673  -0.346512   0.401679   0.017420  -0.205902
     9  H    0.056605   0.000144   0.080663  -0.138603  -0.010902  -0.032948
    10  H   -0.038040  -0.000394  -0.040819   0.069639  -0.014244  -0.036982
    11  H    0.009643  -0.000016   0.018869  -0.021597  -0.001034  -0.007574
    12  H   -0.007433  -0.000012   0.011328   0.003243  -0.001123  -0.008987
    13  H   -0.005320  -0.000025  -0.006205   0.010392   0.001615   0.021991
    14  O   -0.105492   0.000537   0.193810  -0.185420  -0.013200  -0.004874
    15  H   -0.064295  -0.002131   0.058906   0.031639  -0.001038   0.000045
               7          8          9         10         11         12
     1  C   -0.161356  -0.048355   0.056605  -0.038040   0.009643  -0.007433
     2  H   -0.000135   0.000673   0.000144  -0.000394  -0.000016  -0.000012
     3  C   -0.561935  -0.346512   0.080663  -0.040819   0.018869   0.011328
     4  C    0.320637   0.401679  -0.138603   0.069639  -0.021597   0.003243
     5  O   -0.059042   0.017420  -0.010902  -0.014244  -0.001034  -0.001123
     6  O    0.193768  -0.205902  -0.032948  -0.036982  -0.007574  -0.008987
     7  C    5.475138   0.037585   0.446358   0.433598  -0.023566  -0.037496
     8  C    0.037585   5.690451  -0.075909  -0.045752   0.385610   0.396820
     9  H    0.446358  -0.075909   0.555565  -0.053759   0.004437  -0.005541
    10  H    0.433598  -0.045752  -0.053759   0.554478  -0.006221   0.004156
    11  H   -0.023566   0.385610   0.004437  -0.006221   0.565329  -0.039877
    12  H   -0.037496   0.396820  -0.005541   0.004156  -0.039877   0.560660
    13  H   -0.051395   0.415950  -0.005273  -0.003879  -0.034622  -0.033786
    14  O   -0.007382  -0.003225   0.000973   0.000093   0.000195   0.000492
    15  H   -0.000003   0.000142  -0.000700   0.000133  -0.000011  -0.000028
              13         14         15
     1  C   -0.005320  -0.105492  -0.064295
     2  H   -0.000025   0.000537  -0.002131
     3  C   -0.006205   0.193810   0.058906
     4  C    0.010392  -0.185420   0.031639
     5  O    0.001615  -0.013200  -0.001038
     6  O    0.021991  -0.004874   0.000045
     7  C   -0.051395  -0.007382  -0.000003
     8  C    0.415950  -0.003225   0.000142
     9  H   -0.005273   0.000973  -0.000700
    10  H   -0.003879   0.000093   0.000133
    11  H   -0.034622   0.000195  -0.000011
    12  H   -0.033786   0.000492  -0.000028
    13  H    0.552394  -0.000243   0.000061
    14  O   -0.000243   8.023866   0.258841
    15  H    0.000061   0.258841   0.475696
          Atomic-Atomic Spin Densities.
               1          2          3          4          5          6
     1  C   -0.092002  -0.047417   0.256477   0.982959   0.006913  -0.020373
     2  H   -0.047417  -0.058040   0.032138   0.012062   0.000129  -0.000565
     3  C    0.256477   0.032138  -1.131611  -0.047716   0.017867   0.044462
     4  C    0.982959   0.012062  -0.047716  -0.871605  -0.003883  -0.029499
     5  O    0.006913   0.000129   0.017867  -0.003883  -0.104163   0.000317
     6  O   -0.020373  -0.000565   0.044462  -0.029499   0.000317   0.007271
     7  C   -0.017040  -0.000183   0.000974   0.015865   0.004211  -0.003688
     8  C    0.019042   0.000139   0.010953  -0.032682  -0.001161   0.002579
     9  H   -0.002343  -0.000027  -0.001479   0.005105   0.000234  -0.000301
    10  H    0.001987   0.000018   0.002124  -0.003608  -0.000398   0.000380
    11  H   -0.000521  -0.000011  -0.000010   0.001064   0.000023   0.000025
    12  H   -0.001109  -0.000012  -0.000696   0.001940  -0.000017   0.000012
    13  H    0.000228   0.000003   0.001093  -0.001403   0.000051  -0.000049
    14  O   -0.317825  -0.004308   0.039761   0.221416   0.000955   0.000273
    15  H    0.046899   0.000873  -0.024633  -0.026596  -0.000076   0.000698
               7          8          9         10         11         12
     1  C   -0.017040   0.019042  -0.002343   0.001987  -0.000521  -0.001109
     2  H   -0.000183   0.000139  -0.000027   0.000018  -0.000011  -0.000012
     3  C    0.000974   0.010953  -0.001479   0.002124  -0.000010  -0.000696
     4  C    0.015865  -0.032682   0.005105  -0.003608   0.001064   0.001940
     5  O    0.004211  -0.001161   0.000234  -0.000398   0.000023  -0.000017
     6  O   -0.003688   0.002579  -0.000301   0.000380   0.000025   0.000012
     7  C    0.005011  -0.000638  -0.001781  -0.000379  -0.000581  -0.001337
     8  C   -0.000638  -0.000773   0.001347  -0.000350   0.000303   0.001351
     9  H   -0.001781   0.001347  -0.000106  -0.000160  -0.000035  -0.000012
    10  H   -0.000379  -0.000350  -0.000160   0.000186   0.000023   0.000080
    11  H   -0.000581   0.000303  -0.000035   0.000023  -0.000055  -0.000067
    12  H   -0.001337   0.001351  -0.000012   0.000080  -0.000067  -0.000020
    13  H    0.001524  -0.001425  -0.000083  -0.000096  -0.000100  -0.000133
    14  O   -0.002184   0.003181  -0.000623   0.000400  -0.000016   0.000032
    15  H    0.000551  -0.000346   0.000141  -0.000079   0.000001  -0.000027
              13         14         15
     1  C    0.000228  -0.317825   0.046899
     2  H    0.000003  -0.004308   0.000873
     3  C    0.001093   0.039761  -0.024633
     4  C   -0.001403   0.221416  -0.026596
     5  O    0.000051   0.000955  -0.000076
     6  O   -0.000049   0.000273   0.000698
     7  C    0.001524  -0.002184   0.000551
     8  C   -0.001425   0.003181  -0.000346
     9  H   -0.000083  -0.000623   0.000141
    10  H   -0.000096   0.000400  -0.000079
    11  H   -0.000100  -0.000016   0.000001
    12  H   -0.000133   0.000032  -0.000027
    13  H    0.000379  -0.000003   0.000009
    14  O   -0.000003   0.980120   0.015543
    15  H    0.000009   0.015543  -0.047904
 Mulliken charges and spin densities:
               1          2
     1  C   -1.092622   0.815876
     2  H    0.207310  -0.065200
     3  C    1.360885  -0.800295
     4  C   -0.400900   0.223420
     5  O   -0.287511  -0.078996
     6  O   -0.048729   0.001543
     7  C   -0.004774   0.000325
     8  C   -0.620674   0.001520
     9  H    0.178889  -0.000124
    10  H    0.177992   0.000129
    11  H    0.150434   0.000044
    12  H    0.157583  -0.000016
    13  H    0.138344  -0.000003
    14  O   -0.158973   0.936723
    15  H    0.242744  -0.034946
 Sum of Mulliken charges =  -0.00000   1.00000
 Mulliken charges and spin densities with hydrogens summed into heavy atoms:
               1          2
     1  C   -0.885311   0.750676
     3  C    1.360885  -0.800295
     4  C   -0.400900   0.223420
     5  O   -0.287511  -0.078996
     6  O   -0.048729   0.001543
     7  C    0.352107   0.000330
     8  C   -0.174313   0.001546
    14  O    0.083772   0.901777
 Electronic spatial extent (au):  <R**2>=           1175.5685
 Charge=             -0.0000 electrons
 Dipole moment (field-independent basis, Debye):
    X=              0.4822    Y=             -0.9583    Z=             -0.6035  Tot=              1.2308
 Quadrupole moment (field-independent basis, Debye-Ang):
   XX=            -29.9710   YY=            -55.5757   ZZ=            -44.5775
   XY=             -2.0496   XZ=             -1.4163   YZ=             -1.9491
 Traceless Quadrupole moment (field-independent basis, Debye-Ang):
   XX=             13.4037   YY=            -12.2010   ZZ=             -1.2027
   XY=             -2.0496   XZ=             -1.4163   YZ=             -1.9491
 Octapole moment (field-independent basis, Debye-Ang**2):
  XXX=             34.2981  YYY=             -6.9774  ZZZ=              9.6191  XYY=             -7.8453
  XXY=             -5.8001  XXZ=             -1.6465  XZZ=             12.9447  YZZ=             -3.3469
  YYZ=             -2.6568  XYZ=              1.1945
 Hexadecapole moment (field-independent basis, Debye-Ang**3):
 XXXX=           -907.9961 YYYY=           -275.3878 ZZZZ=           -177.3435 XXXY=            -41.9331
 XXXZ=            -20.8162 YYYX=             -4.3209 YYYZ=             -9.3262 ZZZX=             15.6861
 ZZZY=             -4.6158 XXYY=           -236.3930 XXZZ=           -163.6429 YYZZ=            -76.1470
 XXYZ=              3.3478 YYXZ=              2.8802 ZZXY=            -12.4290
 N-N= 3.550758099691D+02 E-N=-1.693362342138D+03  KE= 4.177400123207D+02
 1\1\GINC-AJ\SP\UCCSD(T)-FC\6-311++G(d,p)\C5H7O3(2)\AAYUSH\28-Apr-2025\
 0\\# ccsd(t)/6-311++g(d,p) sp\\Title Card Required\\0,2\C,0,-2.527704,
 0.218676,-1.134955\H,0,-3.422275,0.483964,-1.648604\C,0,-1.52115,-0.02
 8711,-0.516293\C,0,-0.257776,-0.595745,-0.035128\O,0,-0.18272,-1.66046
 1,0.509089\O,0,0.760915,0.205636,-0.316435\C,0,2.052509,-0.255265,0.12
 6161\C,0,3.058263,0.80256,-0.262438\H,0,2.010059,-0.409668,1.206186\H,
 0,2.257419,-1.217927,-0.346934\H,0,3.067224,0.946869,-1.343445\H,0,2.8
 16885,1.753042,0.2145\H,0,4.055805,0.495412,0.05604\O,0,-1.70376,1.172
 788,1.194486\H,0,-2.496396,0.739474,1.549395\\Version=ES64L-G16RevA.03
 \State=2-A\HF=-417.984808\MP2=-419.2414921\MP3=-419.2709043\MP4D=-419.
 3013422\MP4DQ=-419.276739\PUHF=-418.0004761\PMP2-0=-419.2551092\PMP3-0
 =-419.2809594\MP4SDQ=-419.2970276\CCSD=-419.300995\CCSD(T)=-419.354243
 6\S2=0.940444\S2-1=0.887346\S2A=0.771011\RMSD=3.268e-09\PG=C01 [X(C5H7
 O3)]\\@


 WHEN YOU REACH FOR THE STARS, YOU MAY NOT QUITE GET ONE,
 BUT YOU WON'T COME UP WITH A HANDFUL OF MUD, EITHER.

                                         -- LEO BURNETT (AD AGENCY HEAD)
 Job cpu time:       0 days 22 hours 14 minutes 34.0 seconds.
 Elapsed time:       0 days  0 hours 55 minutes 52.0 seconds.
 File lengths (MBytes):  RWF=  44733 Int=      0 D2E=      0 Chk=      7 Scr=      1
 Normal termination of Gaussian 16 at Mon Apr 28 14:09:46 2025.
