 Entering Link 1 = C:\G09W\l1.exe PID=      7832.
  
 Copyright (c) 1988,1990,1992,1993,1995,1998,2003,2009,2013,
            Gaussian, Inc.  All Rights Reserved.
  
 This is part of the Gaussian(R) 09 program.  It is based on
 the Gaussian(R) 03 system (copyright 2003, Gaussian, Inc.),
 the Gaussian(R) 98 system (copyright 1998, Gaussian, Inc.),
 the Gaussian(R) 94 system (copyright 1995, Gaussian, Inc.),
 the Gaussian 92(TM) system (copyright 1992, Gaussian, Inc.),
 the Gaussian 90(TM) system (copyright 1990, Gaussian, Inc.),
 the Gaussian 88(TM) system (copyright 1988, Gaussian, Inc.),
 the Gaussian 86(TM) system (copyright 1986, Carnegie Mellon
 University), and the Gaussian 82(TM) system (copyright 1983,
 Carnegie Mellon University). Gaussian is a federally registered
 trademark of Gaussian, Inc.
  
 This software contains proprietary and confidential information,
 including trade secrets, belonging to Gaussian, Inc.
  
 This software is provided under written license and may be
 used, copied, transmitted, or stored only in accord with that
 written license.
  
 The following legend is applicable only to US Government
 contracts under FAR:
  
                    RESTRICTED RIGHTS LEGEND
  
 Use, reproduction and disclosure by the US Government is
 subject to restrictions as set forth in subparagraphs (a)
 and (c) of the Commercial Computer Software - Restricted
 Rights clause in FAR 52.227-19.
  
 Gaussian, Inc.
 340 Quinnipiac St., Bldg. 40, Wallingford CT 06492
  
  
 ---------------------------------------------------------------
 Warning -- This program may not be used in any manner that
 competes with the business of Gaussian, Inc. or will provide
 assistance to any competitor of Gaussian, Inc.  The licensee
 of this program is prohibited from giving any competitor of
 Gaussian, Inc. access to this program.  By using this program,
 the user acknowledges that Gaussian, Inc. is engaged in the
 business of creating and licensing software in the field of
 computational chemistry and represents and warrants to the
 licensee that it is not a competitor of Gaussian, Inc. and that
 it will not use this program in any manner prohibited above.
 ---------------------------------------------------------------
  

 Cite this work as:
 Gaussian 09, Revision D.01,
 M. J. Frisch, G. W. Trucks, H. B. Schlegel, G. E. Scuseria, 
 M. A. Robb, J. R. Cheeseman, G. Scalmani, V. Barone, B. Mennucci, 
 G. A. Petersson, H. Nakatsuji, M. Caricato, X. Li, H. P. Hratchian, 
 A. F. Izmaylov, J. Bloino, G. Zheng, J. L. Sonnenberg, M. Hada, 
 M. Ehara, K. Toyota, R. Fukuda, J. Hasegawa, M. Ishida, T. Nakajima, 
 Y. Honda, O. Kitao, H. Nakai, T. Vreven, J. A. Montgomery, Jr., 
 J. E. Peralta, F. Ogliaro, M. Bearpark, J. J. Heyd, E. Brothers, 
 K. N. Kudin, V. N. Staroverov, T. Keith, R. Kobayashi, J. Normand, 
 K. Raghavachari, A. Rendell, J. C. Burant, S. S. Iyengar, J. Tomasi, 
 M. Cossi, N. Rega, J. M. Millam, M. Klene, J. E. Knox, J. B. Cross, 
 V. Bakken, C. Adamo, J. Jaramillo, R. Gomperts, R. E. Stratmann, 
 O. Yazyev, A. J. Austin, R. Cammi, C. Pomelli, J. W. Ochterski, 
 R. L. Martin, K. Morokuma, V. G. Zakrzewski, G. A. Voth, 
 P. Salvador, J. J. Dannenberg, S. Dapprich, A. D. Daniels, 
 O. Farkas, J. B. Foresman, J. V. Ortiz, J. Cioslowski, 
 and D. J. Fox, Gaussian, Inc., Wallingford CT, 2013.
 
 ******************************************
 Gaussian 09:  IA32W-G09RevD.01 24-Apr-2013
                28-Mar-2025 
 ******************************************
 %chk=ethyl_propiolate.chk
 %nprocshared=4
 Will use up to    4 processors via shared memory.
 %mem=1700MB
 --------------------------
 # freq 6-311++g(d,p) m062x
 --------------------------
 1/10=4,30=1,38=1/1,3;
 2/12=2,17=6,18=5,40=1/2;
 3/5=4,6=6,7=1111,11=2,16=1,25=1,30=1,71=2,74=-55,140=1/1,2,3;
 4//1;
 5/5=2,38=5,98=1/2;
 8/6=4,10=90,11=11/1;
 11/6=1,8=1,9=11,15=111,16=1/1,2,10;
 10/6=1/2;
 6/7=2,8=2,9=2,10=2,18=1,28=1/1;
 7/8=1,10=1,25=1/1,2,3,16;
 1/10=4,30=1/3;
 99//99;
 -------------------
 Title Card Required
 -------------------
 Symbolic Z-matrix:
 Charge =  0 Multiplicity = 2
 C                     2.36585  -1.02982   0. 
 H                     3.01073  -1.89452   0.00001 
 C                     1.11791  -0.75683   0.00001 
 C                     0.01255   0.19224   0.00001 
 O                     0.16846   1.38541   0.00001 
 O                    -1.1623   -0.42798  0. 
 C                    -2.32385   0.42852  0. 
 C                    -3.53836  -0.46959  -0.00001 
 H                    -2.28034   1.06782   0.88395 
 H                    -2.28034   1.06782  -0.88395 
 H                    -3.5468   -1.10515  -0.88624 
 H                    -3.54681  -1.10515   0.88623 
 H                    -4.44385   0.13939  -0.00001 
 O                     3.41681   0.31762  -0.00001 
 H                     2.80305   1.06712  0. 
 

 GradGradGradGradGradGradGradGradGradGradGradGradGradGradGradGradGradGrad
 Berny optimization.
 Initialization pass.
 Trust Radius=3.00D-01 FncErr=1.00D-07 GrdErr=1.00D-07
 Number of steps in this run=      2 maximum allowed number of steps=      2.
 GradGradGradGradGradGradGradGradGradGradGradGradGradGradGradGradGradGrad

                          Input orientation:                          
 ---------------------------------------------------------------------
 Center     Atomic      Atomic             Coordinates (Angstroms)
 Number     Number       Type             X           Y           Z
 ---------------------------------------------------------------------
      1          6           0        2.365853   -1.029823    0.000004
      2          1           0        3.010734   -1.894524    0.000008
      3          6           0        1.117914   -0.756829    0.000005
      4          6           0        0.012549    0.192237    0.000005
      5          8           0        0.168463    1.385412    0.000009
      6          8           0       -1.162297   -0.427984   -0.000001
      7          6           0       -2.323849    0.428515   -0.000002
      8          6           0       -3.538355   -0.469590   -0.000005
      9          1           0       -2.280340    1.067822    0.883947
     10          1           0       -2.280336    1.067824   -0.883948
     11          1           0       -3.546803   -1.105148   -0.886239
     12          1           0       -3.546806   -1.105151    0.886226
     13          1           0       -4.443846    0.139389   -0.000006
     14          8           0        3.416807    0.317620   -0.000012
     15          1           0        2.803052    1.067116   -0.000004
 ---------------------------------------------------------------------
                    Distance matrix (angstroms):
                    1          2          3          4          5
     1  C    0.000000
     2  H    1.078693   0.000000
     3  C    1.277450   2.208420   0.000000
     4  C    2.651692   3.652901   1.456900   0.000000
     5  O    3.265254   4.340102   2.343214   1.203319   0.000000
     6  O    3.579113   4.423226   2.303801   1.328509   2.249295
     7  C    4.911217   5.818444   3.640161   2.348315   2.669695
     8  C    5.930728   6.702313   4.665120   3.612054   4.145061
     9  H    5.173836   6.127994   3.957125   2.608705   2.622755
    10  H    5.173835   6.127994   3.957125   2.608706   2.622758
    11  H    5.979181   6.664071   4.760918   3.890710   4.559773
    12  H    5.979181   6.664070   4.760917   3.890708   4.559771
    13  H    6.909346   7.727067   5.633505   4.456708   4.777653
    14  O    1.708832   2.249106   2.537587   3.406566   3.419345
    15  H    2.142031   2.968913   2.483237   2.924435   2.653747
                    6          7          8          9         10
     6  O    0.000000
     7  C    1.443189   0.000000
     8  C    2.376422   1.510502   0.000000
     9  H    2.066112   1.091775   2.174306   0.000000
    10  H    2.066111   1.091774   2.174307   1.767895   0.000000
    11  H    2.632458   2.152476   1.090604   3.075595   2.515105
    12  H    2.632458   2.152477   1.090603   2.515105   3.075595
    13  H    3.330237   2.139622   1.091224   2.514780   2.514780
    14  O    4.639409   5.741727   6.999570   5.813920   5.813913
    15  H    4.237843   5.166520   6.524945   5.159675   5.159670
                   11         12         13         14         15
    11  H    0.000000
    12  H    1.772465   0.000000
    13  H    1.771713   1.771713   0.000000
    14  O    7.162509   7.162514   7.862673   0.000000
    15  H    6.769402   6.769405   7.306039   0.968731   0.000000
 Stoichiometry    C5H7O3(2)
 Framework group  C1[X(C5H7O3)]
 Deg. of freedom    39
 Full point group                 C1      NOp   1
 Largest Abelian subgroup         C1      NOp   1
 Largest concise Abelian subgroup C1      NOp   1
                         Standard orientation:                         
 ---------------------------------------------------------------------
 Center     Atomic      Atomic             Coordinates (Angstroms)
 Number     Number       Type             X           Y           Z
 ---------------------------------------------------------------------
      1          6           0       -2.454921   -1.010340   -0.000004
      2          1           0       -3.104494   -1.871522   -0.000008
      3          6           0       -1.205517   -0.744135   -0.000005
      4          6           0       -0.095008    0.198908   -0.000005
      5          8           0       -0.244433    1.392913   -0.000009
      6          8           0        1.076449   -0.427691    0.000001
      7          6           0        2.242640    0.422480    0.000002
      8          6           0        3.452245   -0.482214    0.000005
      9          1           0        2.202607    1.062014   -0.883947
     10          1           0        2.202603    1.062016    0.883948
     11          1           0        3.457238   -1.117809    0.886239
     12          1           0        3.457241   -1.117812   -0.886226
     13          1           0        4.361034    0.121833    0.000006
     14          8           0       -3.498534    0.342796    0.000012
     15          1           0       -2.880714    1.088945    0.000004
 ---------------------------------------------------------------------
 Rotational constants (GHZ):      6.9396261      0.8683925      0.7793290
 Standard basis: 6-311++G(d,p) (5D, 7F)
 There are   233 symmetry adapted cartesian basis functions of A   symmetry.
 There are   225 symmetry adapted basis functions of A   symmetry.
   225 basis functions,   351 primitive gaussians,   233 cartesian basis functions
    31 alpha electrons       30 beta electrons
       nuclear repulsion energy       347.1808485978 Hartrees.
 NAtoms=   15 NActive=   15 NUniq=   15 SFac= 1.00D+00 NAtFMM=   60 NAOKFM=F Big=F
 Integral buffers will be    262144 words long.
 Raffenetti 2 integral format.
 Two-electron integral symmetry is turned on.
 One-electron integrals computed using PRISM.
 NBasis=   225 RedAO= T EigKep=  7.81D-06  NBF=   225
 NBsUse=   225 1.00D-06 EigRej= -1.00D+00 NBFU=   225
 ExpMin= 3.60D-02 ExpMax= 8.59D+03 ExpMxC= 1.30D+03 IAcc=3 IRadAn=         5 AccDes= 0.00D+00
 Harris functional with IExCor= 1009 and IRadAn=       5 diagonalized for initial guess.
 HarFok:  IExCor= 1009 AccDes= 0.00D+00 IRadAn=         5 IDoV= 1 UseB2=F ITyADJ=14
 ICtDFT=  3500011 ScaDFX=  1.000000  1.000000  1.000000  1.000000
 FoFCou: FMM=F IPFlag=           0 FMFlag=      100000 FMFlg1=           0
         NFxFlg=           0 DoJE=T BraDBF=F KetDBF=T FulRan=T
         wScrn=  0.000000 ICntrl=     500 IOpCl=  0 I1Cent=   200000004 NGrid=           0
         NMat0=    1 NMatS0=      1 NMatT0=    0 NMatD0=    1 NMtDS0=    0 NMtDT0=    0
 Petite list used in FoFCou.
 Initial guess <Sx>= 0.0000 <Sy>= 0.0000 <Sz>= 0.5000 <S**2>= 0.7500 S= 0.5000
 Requested convergence on RMS density matrix=1.00D-08 within 128 cycles.
 Requested convergence on MAX density matrix=1.00D-06.
 Requested convergence on             energy=1.00D-06.
 No special actions if energy rises.
 SCF Done:  E(UM062X) =  -420.230331796     A.U. after   19 cycles
            NFock= 19  Conv=0.25D-08     -V/T= 2.0039
 <Sx>= 0.0000 <Sy>= 0.0000 <Sz>= 0.5000 <S**2>= 0.7766 S= 0.5132
 <L.S>= 0.000000000000E+00
 Annihilation of the first spin contaminant:
 S**2 before annihilation     0.7766,   after     0.7504
 DoSCS=F DFT=T ScalE2(SS,OS)=  1.000000  1.000000
 Range of M.O.s used for correlation:     1   225
 NBasis=   225 NAE=    31 NBE=    30 NFC=     0 NFV=     0
 NROrb=    225 NOA=    31 NOB=    30 NVA=   194 NVB=   195

 **** Warning!!: The largest alpha MO coefficient is  0.98099599D+02


 **** Warning!!: The largest beta MO coefficient is  0.11515771D+03

 Symmetrizing basis deriv contribution to polar:
 IMax=3 JMax=2 DiffMx= 0.00D+00
 G2DrvN: will do    16 centers at a time, making    1 passes.
 Calling FoFCou, ICntrl=  3107 FMM=F I1Cent=   0 AccDes= 0.00D+00.
 End of G2Drv F.D. properties file   721 does not exist.
 End of G2Drv F.D. properties file   722 does not exist.
 End of G2Drv F.D. properties file   788 does not exist.
          IDoAtm=111111111111111
          Differentiating once with respect to electric field.
                with respect to dipole field.
          Differentiating once with respect to nuclear coordinates.
          There are    48 degrees of freedom in the 1st order CPHF.  IDoFFX=6 NUNeed=     3.
     47 vectors produced by pass  0 Test12= 2.47D-14 2.08D-09 XBig12= 1.10D+02 4.20D+00.
 AX will form    47 AO Fock derivatives at one time.
     45 vectors produced by pass  1 Test12= 2.47D-14 2.08D-09 XBig12= 2.23D+01 9.47D-01.
     45 vectors produced by pass  2 Test12= 2.47D-14 2.08D-09 XBig12= 1.04D+00 1.72D-01.
     45 vectors produced by pass  3 Test12= 2.47D-14 2.08D-09 XBig12= 1.86D-02 2.34D-02.
     45 vectors produced by pass  4 Test12= 2.47D-14 2.08D-09 XBig12= 3.04D-04 4.16D-03.
     45 vectors produced by pass  5 Test12= 2.47D-14 2.08D-09 XBig12= 3.62D-06 2.77D-04.
     39 vectors produced by pass  6 Test12= 2.47D-14 2.08D-09 XBig12= 3.12D-08 2.05D-05.
     26 vectors produced by pass  7 Test12= 2.47D-14 2.08D-09 XBig12= 2.10D-10 1.46D-06.
      5 vectors produced by pass  8 Test12= 2.47D-14 2.08D-09 XBig12= 1.71D-12 1.25D-07.
      5 vectors produced by pass  9 Test12= 2.47D-14 2.08D-09 XBig12= 7.89D-14 4.56D-08.
      5 vectors produced by pass 10 Test12= 2.47D-14 2.08D-09 XBig12= 6.37D-15 1.40D-08.
      5 vectors produced by pass 11 Test12= 2.47D-14 2.08D-09 XBig12= 1.22D-15 5.99D-09.
      4 vectors produced by pass 12 Test12= 2.47D-14 2.08D-09 XBig12= 1.08D-15 4.28D-09.
      4 vectors produced by pass 13 Test12= 2.47D-14 2.08D-09 XBig12= 1.64D-15 5.96D-09.
      4 vectors produced by pass 14 Test12= 2.47D-14 2.08D-09 XBig12= 7.35D-16 3.11D-09.
      3 vectors produced by pass 15 Test12= 2.47D-14 2.08D-09 XBig12= 1.52D-15 5.28D-09.
      2 vectors produced by pass 16 Test12= 2.47D-14 2.08D-09 XBig12= 1.10D-15 4.49D-09.
      2 vectors produced by pass 17 Test12= 2.47D-14 2.08D-09 XBig12= 7.31D-16 3.76D-09.
      2 vectors produced by pass 18 Test12= 2.47D-14 2.08D-09 XBig12= 9.84D-16 4.26D-09.
      1 vectors produced by pass 19 Test12= 2.47D-14 2.08D-09 XBig12= 5.98D-16 2.17D-09.
 InvSVY:  IOpt=1 It=  1 EMax= 3.55D-15
 Solved reduced A of dimension   379 with    48 vectors.
 Isotropic polarizability for W=    0.000000       74.16 Bohr**3.
 End of Minotr F.D. properties file   721 does not exist.
 End of Minotr F.D. properties file   722 does not exist.
 End of Minotr F.D. properties file   788 does not exist.

 **********************************************************************

            Population analysis using the SCF density.

 **********************************************************************

 Orbital symmetries:
 Alpha Orbitals:
       Occupied  (A) (A) (A) (A) (A) (A) (A) (A) (A) (A) (A) (A)
                 (A) (A) (A) (A) (A) (A) (A) (A) (A) (A) (A) (A)
                 (A) (A) (A) (A) (A) (A) (A)
       Virtual   (A) (A) (A) (A) (A) (A) (A) (A) (A) (A) (A) (A)
                 (A) (A) (A) (A) (A) (A) (A) (A) (A) (A) (A) (A)
                 (A) (A) (A) (A) (A) (A) (A) (A) (A) (A) (A) (A)
                 (A) (A) (A) (A) (A) (A) (A) (A) (A) (A) (A) (A)
                 (A) (A) (A) (A) (A) (A) (A) (A) (A) (A) (A) (A)
                 (A) (A) (A) (A) (A) (A) (A) (A) (A) (A) (A) (A)
                 (A) (A) (A) (A) (A) (A) (A) (A) (A) (A) (A) (A)
                 (A) (A) (A) (A) (A) (A) (A) (A) (A) (A) (A) (A)
                 (A) (A) (A) (A) (A) (A) (A) (A) (A) (A) (A) (A)
                 (A) (A) (A) (A) (A) (A) (A) (A) (A) (A) (A) (A)
                 (A) (A) (A) (A) (A) (A) (A) (A) (A) (A) (A) (A)
                 (A) (A) (A) (A) (A) (A) (A) (A) (A) (A) (A) (A)
                 (A) (A) (A) (A) (A) (A) (A) (A) (A) (A) (A) (A)
                 (A) (A) (A) (A) (A) (A) (A) (A) (A) (A) (A) (A)
                 (A) (A) (A) (A) (A) (A) (A) (A) (A) (A) (A) (A)
                 (A) (A) (A) (A) (A) (A) (A) (A) (A) (A) (A) (A)
                 (A) (A)
 Beta  Orbitals:
       Occupied  (A) (A) (A) (A) (A) (A) (A) (A) (A) (A) (A) (A)
                 (A) (A) (A) (A) (A) (A) (A) (A) (A) (A) (A) (A)
                 (A) (A) (A) (A) (A) (A)
       Virtual   (A) (A) (A) (A) (A) (A) (A) (A) (A) (A) (A) (A)
                 (A) (A) (A) (A) (A) (A) (A) (A) (A) (A) (A) (A)
                 (A) (A) (A) (A) (A) (A) (A) (A) (A) (A) (A) (A)
                 (A) (A) (A) (A) (A) (A) (A) (A) (A) (A) (A) (A)
                 (A) (A) (A) (A) (A) (A) (A) (A) (A) (A) (A) (A)
                 (A) (A) (A) (A) (A) (A) (A) (A) (A) (A) (A) (A)
                 (A) (A) (A) (A) (A) (A) (A) (A) (A) (A) (A) (A)
                 (A) (A) (A) (A) (A) (A) (A) (A) (A) (A) (A) (A)
                 (A) (A) (A) (A) (A) (A) (A) (A) (A) (A) (A) (A)
                 (A) (A) (A) (A) (A) (A) (A) (A) (A) (A) (A) (A)
                 (A) (A) (A) (A) (A) (A) (A) (A) (A) (A) (A) (A)
                 (A) (A) (A) (A) (A) (A) (A) (A) (A) (A) (A) (A)
                 (A) (A) (A) (A) (A) (A) (A) (A) (A) (A) (A) (A)
                 (A) (A) (A) (A) (A) (A) (A) (A) (A) (A) (A) (A)
                 (A) (A) (A) (A) (A) (A) (A) (A) (A) (A) (A) (A)
                 (A) (A) (A) (A) (A) (A) (A) (A) (A) (A) (A) (A)
                 (A) (A) (A)
 The electronic state is 2-A.
 Alpha  occ. eigenvalues --  -19.69468 -19.64524 -19.64346 -10.71557 -10.64067
 Alpha  occ. eigenvalues --  -10.61503 -10.59698 -10.54777  -1.26912  -1.17663
 Alpha  occ. eigenvalues --   -1.10870  -0.92320  -0.88796  -0.78786  -0.71375
 Alpha  occ. eigenvalues --   -0.67077  -0.61552  -0.60291  -0.59111  -0.52987
 Alpha  occ. eigenvalues --   -0.52760  -0.50421  -0.49115  -0.47641  -0.45257
 Alpha  occ. eigenvalues --   -0.44398  -0.42581  -0.40578  -0.39856  -0.35575
 Alpha  occ. eigenvalues --   -0.31646
 Alpha virt. eigenvalues --   -0.03160  -0.00691   0.00719   0.01540   0.01792
 Alpha virt. eigenvalues --    0.02467   0.03272   0.05167   0.06342   0.06533
 Alpha virt. eigenvalues --    0.06543   0.06953   0.08584   0.08748   0.10348
 Alpha virt. eigenvalues --    0.11145   0.12029   0.12063   0.12422   0.12634
 Alpha virt. eigenvalues --    0.13067   0.13473   0.13803   0.14456   0.15273
 Alpha virt. eigenvalues --    0.16178   0.17302   0.18070   0.18583   0.19917
 Alpha virt. eigenvalues --    0.19934   0.22308   0.22948   0.22994   0.23586
 Alpha virt. eigenvalues --    0.24918   0.25442   0.26164   0.28160   0.29606
 Alpha virt. eigenvalues --    0.30714   0.31195   0.31349   0.31619   0.32214
 Alpha virt. eigenvalues --    0.34252   0.34620   0.36176   0.38140   0.39108
 Alpha virt. eigenvalues --    0.40115   0.42051   0.44487   0.45124   0.48980
 Alpha virt. eigenvalues --    0.50313   0.52067   0.52612   0.55292   0.58772
 Alpha virt. eigenvalues --    0.60257   0.61260   0.62401   0.62576   0.65991
 Alpha virt. eigenvalues --    0.67989   0.68342   0.68827   0.68849   0.70100
 Alpha virt. eigenvalues --    0.70342   0.73388   0.75162   0.79570   0.82172
 Alpha virt. eigenvalues --    0.84562   0.86078   0.89617   0.92432   0.97254
 Alpha virt. eigenvalues --    1.00711   1.02335   1.06566   1.06725   1.09760
 Alpha virt. eigenvalues --    1.14133   1.14747   1.17677   1.17817   1.20828
 Alpha virt. eigenvalues --    1.21456   1.23259   1.27193   1.28509   1.29723
 Alpha virt. eigenvalues --    1.32088   1.34056   1.36762   1.43829   1.45405
 Alpha virt. eigenvalues --    1.49265   1.51534   1.52304   1.53182   1.54268
 Alpha virt. eigenvalues --    1.55966   1.57326   1.58836   1.59274   1.63362
 Alpha virt. eigenvalues --    1.65800   1.68497   1.69794   1.72560   1.75799
 Alpha virt. eigenvalues --    1.76878   1.78928   1.84993   1.86785   1.88965
 Alpha virt. eigenvalues --    1.90784   1.95177   1.97558   2.01110   2.07636
 Alpha virt. eigenvalues --    2.12514   2.12872   2.19224   2.21745   2.22156
 Alpha virt. eigenvalues --    2.26691   2.30109   2.36095   2.48366   2.50397
 Alpha virt. eigenvalues --    2.53271   2.57726   2.57828   2.61338   2.62152
 Alpha virt. eigenvalues --    2.62871   2.65786   2.66049   2.67621   2.68722
 Alpha virt. eigenvalues --    2.76579   2.78472   2.78644   2.85656   2.88701
 Alpha virt. eigenvalues --    2.90060   2.94376   2.96620   2.97500   2.97937
 Alpha virt. eigenvalues --    3.06585   3.10942   3.14006   3.19706   3.26769
 Alpha virt. eigenvalues --    3.27039   3.28769   3.33632   3.36978   3.42285
 Alpha virt. eigenvalues --    3.63404   3.63910   3.68133   3.75079   3.83093
 Alpha virt. eigenvalues --    3.84837   3.84923   3.93510   4.05554   4.11770
 Alpha virt. eigenvalues --    4.19491   4.29249   5.09720   5.10987   5.14633
 Alpha virt. eigenvalues --    5.21467   5.32530   5.44096   5.60918   5.73849
 Alpha virt. eigenvalues --    5.93748  23.61983  23.91482  23.93571  24.04715
 Alpha virt. eigenvalues --   24.55207  49.98215  49.99362  50.10459
  Beta  occ. eigenvalues --  -19.69443 -19.64386 -19.63851 -10.71597 -10.64212
  Beta  occ. eigenvalues --  -10.61499 -10.59004 -10.54777  -1.26753  -1.17324
  Beta  occ. eigenvalues --   -1.09059  -0.90893  -0.87645  -0.78522  -0.70934
  Beta  occ. eigenvalues --   -0.66794  -0.60941  -0.60166  -0.58598  -0.52485
  Beta  occ. eigenvalues --   -0.51596  -0.49922  -0.47812  -0.45052  -0.44404
  Beta  occ. eigenvalues --   -0.44240  -0.42007  -0.39697  -0.38983  -0.34045
  Beta virt. eigenvalues --   -0.08543  -0.02916  -0.00717   0.00728   0.01693
  Beta virt. eigenvalues --    0.01781   0.02660   0.03703   0.05186   0.06116
  Beta virt. eigenvalues --    0.06533   0.06597   0.07289   0.08918   0.09036
  Beta virt. eigenvalues --    0.10409   0.11222   0.12018   0.12238   0.12315
  Beta virt. eigenvalues --    0.12604   0.13533   0.13587   0.14147   0.14813
  Beta virt. eigenvalues --    0.15717   0.16682   0.17161   0.18045   0.18635
  Beta virt. eigenvalues --    0.19866   0.19869   0.22642   0.22960   0.23422
  Beta virt. eigenvalues --    0.23530   0.25104   0.25603   0.26331   0.28154
  Beta virt. eigenvalues --    0.29323   0.30416   0.31184   0.31304   0.31644
  Beta virt. eigenvalues --    0.32289   0.34163   0.34626   0.36523   0.38046
  Beta virt. eigenvalues --    0.39123   0.39929   0.42011   0.45045   0.45119
  Beta virt. eigenvalues --    0.49441   0.50376   0.52298   0.52595   0.55287
  Beta virt. eigenvalues --    0.58825   0.61144   0.61878   0.62354   0.62784
  Beta virt. eigenvalues --    0.66376   0.67926   0.68440   0.68855   0.68891
  Beta virt. eigenvalues --    0.69822   0.70415   0.72361   0.75197   0.79588
  Beta virt. eigenvalues --    0.82142   0.84320   0.86091   0.90259   0.92859
  Beta virt. eigenvalues --    0.97139   1.01166   1.02462   1.06567   1.07026
  Beta virt. eigenvalues --    1.10650   1.14403   1.15472   1.18346   1.18572
  Beta virt. eigenvalues --    1.21404   1.21601   1.23440   1.26884   1.28528
  Beta virt. eigenvalues --    1.29569   1.32298   1.34455   1.38475   1.44106
  Beta virt. eigenvalues --    1.46942   1.49265   1.51483   1.52582   1.53867
  Beta virt. eigenvalues --    1.55390   1.56232   1.57326   1.58991   1.59399
  Beta virt. eigenvalues --    1.63600   1.65950   1.68521   1.69822   1.73579
  Beta virt. eigenvalues --    1.75806   1.76792   1.79191   1.84954   1.87330
  Beta virt. eigenvalues --    1.89101   1.91395   1.96085   1.98033   2.01111
  Beta virt. eigenvalues --    2.07955   2.12537   2.13223   2.19253   2.22188
  Beta virt. eigenvalues --    2.22312   2.26710   2.31206   2.36108   2.48370
  Beta virt. eigenvalues --    2.50412   2.53410   2.57835   2.58971   2.61856
  Beta virt. eigenvalues --    2.62232   2.62859   2.65973   2.65978   2.67367
  Beta virt. eigenvalues --    2.68626   2.77646   2.78482   2.78836   2.85890
  Beta virt. eigenvalues --    2.88737   2.90519   2.95017   2.97010   2.99269
  Beta virt. eigenvalues --    2.99699   3.07207   3.11090   3.14567   3.20251
  Beta virt. eigenvalues --    3.27030   3.27210   3.30014   3.34252   3.37846
  Beta virt. eigenvalues --    3.42402   3.63259   3.64051   3.67792   3.75384
  Beta virt. eigenvalues --    3.83107   3.84838   3.84930   3.94531   4.05706
  Beta virt. eigenvalues --    4.11910   4.20236   4.29325   5.10583   5.11064
  Beta virt. eigenvalues --    5.14833   5.23742   5.33153   5.44234   5.61875
  Beta virt. eigenvalues --    5.74104   5.93827  23.62187  23.91508  23.93600
  Beta virt. eigenvalues --   24.04716  24.55785  49.97683  49.99338  50.10347
          Condensed to atoms (all electrons):
               1          2          3          4          5          6
     1  C   10.511498   0.487096  -2.375471  -2.234000   0.180602   0.211018
     2  H    0.487096   0.446537  -0.084744  -0.030017  -0.000197   0.002765
     3  C   -2.375471  -0.084744   9.795704  -1.987312   0.112583  -0.218162
     4  C   -2.234000  -0.030017  -1.987312  10.797388   0.049934  -0.330395
     5  O    0.180602  -0.000197   0.112583   0.049934   8.087545  -0.138972
     6  O    0.211018   0.002765  -0.218162  -0.330395  -0.138972   8.504548
     7  C    0.092759   0.001609  -0.234083  -0.150619  -0.035853   0.212367
     8  C   -0.000552  -0.000360  -0.040223   0.121600   0.017197  -0.180498
     9  H   -0.002028   0.000003  -0.018584   0.001001  -0.013274  -0.030835
    10  H   -0.002029   0.000003  -0.018585   0.001002  -0.013274  -0.030835
    11  H   -0.001406  -0.000012   0.003042  -0.002635  -0.001171  -0.008811
    12  H   -0.001406  -0.000012   0.003042  -0.002636  -0.001171  -0.008811
    13  H   -0.000001   0.000012   0.005014   0.000415   0.001117   0.021811
    14  O    0.109528  -0.049597  -0.085399   0.038766   0.002296  -0.006079
    15  H    0.079023   0.012643  -0.020910  -0.082184   0.011607   0.001055
               7          8          9         10         11         12
     1  C    0.092759  -0.000552  -0.002028  -0.002029  -0.001406  -0.001406
     2  H    0.001609  -0.000360   0.000003   0.000003  -0.000012  -0.000012
     3  C   -0.234083  -0.040223  -0.018584  -0.018585   0.003042   0.003042
     4  C   -0.150619   0.121600   0.001001   0.001002  -0.002635  -0.002636
     5  O   -0.035853   0.017197  -0.013274  -0.013274  -0.001171  -0.001171
     6  O    0.212367  -0.180498  -0.030835  -0.030835  -0.008811  -0.008811
     7  C    5.383784   0.127395   0.429667   0.429667  -0.025143  -0.025143
     8  C    0.127395   5.443818  -0.046116  -0.046116   0.397853   0.397852
     9  H    0.429667  -0.046116   0.532117  -0.049828   0.006926  -0.010823
    10  H    0.429667  -0.046116  -0.049828   0.532117  -0.010823   0.006926
    11  H   -0.025143   0.397853   0.006926  -0.010823   0.536638  -0.040091
    12  H   -0.025143   0.397852  -0.010823   0.006926  -0.040091   0.536638
    13  H   -0.053540   0.408419  -0.004401  -0.004401  -0.031136  -0.031136
    14  O   -0.001204   0.000236  -0.000069  -0.000069  -0.000004  -0.000004
    15  H   -0.001570   0.000309  -0.000104  -0.000104  -0.000027  -0.000027
              13         14         15
     1  C   -0.000001   0.109528   0.079023
     2  H    0.000012  -0.049597   0.012643
     3  C    0.005014  -0.085399  -0.020910
     4  C    0.000415   0.038766  -0.082184
     5  O    0.001117   0.002296   0.011607
     6  O    0.021811  -0.006079   0.001055
     7  C   -0.053540  -0.001204  -0.001570
     8  C    0.408419   0.000236   0.000309
     9  H   -0.004401  -0.000069  -0.000104
    10  H   -0.004401  -0.000069  -0.000104
    11  H   -0.031136  -0.000004  -0.000027
    12  H   -0.031136  -0.000004  -0.000027
    13  H    0.520558  -0.000017   0.000009
    14  O   -0.000017   8.044550   0.257946
    15  H    0.000009   0.257946   0.488393
          Atomic-Atomic Spin Densities.
               1          2          3          4          5          6
     1  C   -0.158306   0.010767  -0.143391   0.051007   0.026239  -0.020146
     2  H    0.010767   0.026999   0.000068   0.006017  -0.001011  -0.000369
     3  C   -0.143391   0.000068   1.150382   0.006224  -0.060663   0.005764
     4  C    0.051007   0.006017   0.006224  -0.056488  -0.027283   0.050359
     5  O    0.026239  -0.001011  -0.060663  -0.027283   0.097574  -0.005197
     6  O   -0.020146  -0.000369   0.005764   0.050359  -0.005197  -0.021030
     7  C    0.000424  -0.000462  -0.013653  -0.000052  -0.001821  -0.011285
     8  C    0.003912   0.000065   0.004794  -0.004305   0.002480   0.004925
     9  H    0.000692  -0.000016   0.000669  -0.000270   0.000452  -0.000199
    10  H    0.000692  -0.000016   0.000669  -0.000270   0.000452  -0.000199
    11  H   -0.000307   0.000005  -0.000598   0.001156  -0.000076  -0.000318
    12  H   -0.000307   0.000005  -0.000598   0.001156  -0.000076  -0.000318
    13  H   -0.000340  -0.000005  -0.000093   0.000612  -0.000086  -0.000386
    14  O    0.070163  -0.010733  -0.127962  -0.010414   0.008819  -0.001918
    15  H   -0.011369  -0.000078   0.007054   0.005633  -0.001939   0.000251
               7          8          9         10         11         12
     1  C    0.000424   0.003912   0.000692   0.000692  -0.000307  -0.000307
     2  H   -0.000462   0.000065  -0.000016  -0.000016   0.000005   0.000005
     3  C   -0.013653   0.004794   0.000669   0.000669  -0.000598  -0.000598
     4  C   -0.000052  -0.004305  -0.000270  -0.000270   0.001156   0.001156
     5  O   -0.001821   0.002480   0.000452   0.000452  -0.000076  -0.000076
     6  O   -0.011285   0.004925  -0.000199  -0.000199  -0.000318  -0.000318
     7  C    0.033429  -0.017248  -0.002227  -0.002227  -0.000113  -0.000113
     8  C   -0.017248   0.013110   0.001296   0.001296  -0.000137  -0.000137
     9  H   -0.002227   0.001296   0.000953  -0.000787   0.000104  -0.000223
    10  H   -0.002227   0.001296  -0.000787   0.000953  -0.000223   0.000104
    11  H   -0.000113  -0.000137   0.000104  -0.000223   0.000194  -0.000095
    12  H   -0.000113  -0.000137  -0.000223   0.000104  -0.000095   0.000194
    13  H    0.000882  -0.001207  -0.000074  -0.000074   0.000066   0.000066
    14  O    0.000964  -0.000030   0.000042   0.000042  -0.000002  -0.000002
    15  H   -0.000145   0.000090  -0.000009  -0.000009   0.000000   0.000000
              13         14         15
     1  C   -0.000340   0.070163  -0.011369
     2  H   -0.000005  -0.010733  -0.000078
     3  C   -0.000093  -0.127962   0.007054
     4  C    0.000612  -0.010414   0.005633
     5  O   -0.000086   0.008819  -0.001939
     6  O   -0.000386  -0.001918   0.000251
     7  C    0.000882   0.000964  -0.000145
     8  C   -0.001207  -0.000030   0.000090
     9  H   -0.000074   0.000042  -0.000009
    10  H   -0.000074   0.000042  -0.000009
    11  H    0.000066  -0.000002   0.000000
    12  H    0.000066  -0.000002   0.000000
    13  H    0.000263  -0.000007   0.000003
    14  O   -0.000007   0.325315   0.005922
    15  H    0.000003   0.005922  -0.011116
 Mulliken charges and spin densities:
               1          2
     1  C   -1.054631  -0.170269
     2  H    0.214269   0.031236
     3  C    1.164087   0.828665
     4  C   -0.190308   0.023084
     5  O   -0.258968   0.037863
     6  O   -0.000167  -0.000066
     7  C   -0.150094  -0.013645
     8  C   -0.600816   0.008906
     9  H    0.206346   0.000404
    10  H    0.206347   0.000404
    11  H    0.176800  -0.000343
    12  H    0.176800  -0.000343
    13  H    0.167276  -0.000379
    14  O   -0.310881   0.260197
    15  H    0.253940  -0.005713
 Sum of Mulliken charges =   0.00000   1.00000
 Mulliken charges and spin densities with hydrogens summed into heavy atoms:
               1          2
     1  C   -0.840361  -0.139033
     3  C    1.164087   0.828665
     4  C   -0.190308   0.023084
     5  O   -0.258968   0.037863
     6  O   -0.000167  -0.000066
     7  C    0.262599  -0.012837
     8  C   -0.079940   0.007840
    14  O   -0.056941   0.254484
 APT charges:
               1
     1  C    0.335565
     2  H    0.142231
     3  C   -0.450552
     4  C    1.526042
     5  O   -0.791169
     6  O   -1.005326
     7  C    0.559876
     8  C    0.005551
     9  H   -0.027316
    10  H   -0.027321
    11  H    0.013189
    12  H    0.013191
    13  H    0.007364
    14  O   -0.545354
    15  H    0.244029
 Sum of APT charges =   0.00000
 APT charges with hydrogens summed into heavy atoms:
               1
     1  C    0.477796
     3  C   -0.450552
     4  C    1.526042
     5  O   -0.791169
     6  O   -1.005326
     7  C    0.505239
     8  C    0.039295
    14  O   -0.301325
 Electronic spatial extent (au):  <R**2>=           1419.8099
 Charge=              0.0000 electrons
 Dipole moment (field-independent basis, Debye):
    X=              3.4917    Y=             -1.4687    Z=              0.0000  Tot=              3.7880
 Quadrupole moment (field-independent basis, Debye-Ang):
   XX=            -49.2570   YY=            -47.4239   ZZ=            -47.7659
   XY=              5.9275   XZ=              0.0001   YZ=              0.0000
 Traceless Quadrupole moment (field-independent basis, Debye-Ang):
   XX=             -1.1080   YY=              0.7250   ZZ=              0.3830
   XY=              5.9275   XZ=              0.0001   YZ=              0.0000
 Octapole moment (field-independent basis, Debye-Ang**2):
  XXX=             63.3506  YYY=             -1.6754  ZZZ=              0.0000  XYY=            -14.1485
  XXY=            -10.3133  XXZ=             -0.0003  XZZ=              4.1599  YZZ=              3.0445
  YYZ=              0.0000  XYZ=              0.0000
 Hexadecapole moment (field-independent basis, Debye-Ang**3):
 XXXX=          -1711.8388 YYYY=           -223.4240 ZZZZ=            -60.9865 XXXY=             61.4482
 XXXZ=              0.0012 YYYX=              6.0098 YYYZ=              0.0002 ZZZX=              0.0000
 ZZZY=              0.0000 XXYY=           -246.0821 XXZZ=           -280.2423 YYZZ=            -47.2328
 XXYZ=              0.0001 YYXZ=              0.0000 ZZXY=             -4.0069
 N-N= 3.471808485978D+02 E-N=-1.678389970593D+03  KE= 4.185944097922D+02
  Exact polarizability: 105.655  -0.666  68.875  -0.001   0.001  47.960
 Approx polarizability: 106.159  -1.981  87.697   0.000   0.000  57.516
                          Isotropic Fermi Contact Couplings
        Atom                 a.u.       MegaHertz       Gauss      10(-4) cm-1
     1  C(13)             -0.01003     -11.27313      -4.02253      -3.76031
     2  H(1)               0.01259      56.28855      20.08515      18.77584
     3  C(13)              0.21457     241.21623      86.07195      80.46107
     4  C(13)             -0.02343     -26.34191      -9.39945      -8.78671
     5  O(17)              0.02579     -15.63285      -5.57819      -5.21456
     6  O(17)              0.02202     -13.34920      -4.76333      -4.45281
     7  C(13)              0.00331       3.72634       1.32965       1.24297
     8  C(13)              0.00000      -0.00006      -0.00002      -0.00002
     9  H(1)               0.00004       0.15846       0.05654       0.05286
    10  H(1)               0.00004       0.15847       0.05655       0.05286
    11  H(1)              -0.00002      -0.07130      -0.02544      -0.02378
    12  H(1)              -0.00002      -0.07130      -0.02544      -0.02378
    13  H(1)               0.00000      -0.00692      -0.00247      -0.00231
    14  O(17)              0.03887     -23.56382      -8.40816      -7.86005
    15  H(1)              -0.00421     -18.81768      -6.71462      -6.27690
 --------------------------------------------------------
       Center         ----  Spin Dipole Couplings  ----
                      3XX-RR        3YY-RR        3ZZ-RR
 --------------------------------------------------------
     1   Atom        0.094368      0.012316     -0.106684
     2   Atom        0.008281     -0.003365     -0.004916
     3   Atom       -0.260023      0.627661     -0.367638
     4   Atom        0.020842      0.009281     -0.030124
     5   Atom        0.081851     -0.022077     -0.059774
     6   Atom        0.008078      0.003756     -0.011834
     7   Atom        0.007055     -0.002827     -0.004228
     8   Atom        0.003010     -0.001374     -0.001636
     9   Atom        0.002486     -0.000627     -0.001859
    10   Atom        0.002486     -0.000627     -0.001859
    11   Atom        0.002419     -0.001222     -0.001197
    12   Atom        0.002419     -0.001222     -0.001197
    13   Atom        0.001517     -0.000678     -0.000839
    14   Atom        0.508867      0.099541     -0.608408
    15   Atom        0.012064      0.031245     -0.043309
 --------------------------------------------------------
                        XY            XZ            YZ
 --------------------------------------------------------
     1   Atom        0.101204      0.000000      0.000000
     2   Atom       -0.003731      0.000000      0.000000
     3   Atom       -0.595351     -0.000005      0.000009
     4   Atom        0.018916      0.000000      0.000000
     5   Atom        0.150986     -0.000006     -0.000003
     6   Atom        0.029649      0.000000      0.000001
     7   Atom        0.003753      0.000000      0.000000
     8   Atom        0.000077      0.000000      0.000000
     9   Atom        0.002154     -0.001525     -0.000813
    10   Atom        0.002154      0.001525      0.000813
    11   Atom       -0.000234      0.000763     -0.000075
    12   Atom       -0.000234     -0.000763      0.000075
    13   Atom        0.000353      0.000000      0.000000
    14   Atom       -0.844090     -0.000013      0.000011
    15   Atom        0.023806     -0.000001      0.000000
 --------------------------------------------------------


 ---------------------------------------------------------------------------------
              Anisotropic Spin Dipole Couplings in Principal Axis System
 ---------------------------------------------------------------------------------

       Atom             a.u.   MegaHertz   Gauss  10(-4) cm-1        Axes

              Baa    -0.1067   -14.316    -5.108    -4.775  0.0000  0.0000  1.0000
     1 C(13)  Bbb    -0.0559    -7.496    -2.675    -2.500 -0.5587  0.8294  0.0000
              Bcc     0.1625    21.812     7.783     7.276  0.8294  0.5587  0.0000
 
              Baa    -0.0049    -2.623    -0.936    -0.875  0.0000  0.0000  1.0000
     2 H(1)   Bbb    -0.0045    -2.379    -0.849    -0.793  0.2811  0.9597  0.0000
              Bcc     0.0094     5.001     1.785     1.668  0.9597 -0.2811  0.0000
 
              Baa    -0.5588   -74.982   -26.755   -25.011  0.8938  0.4485  0.0000
     3 C(13)  Bbb    -0.3676   -49.333   -17.603   -16.456  0.0000  0.0000  1.0000
              Bcc     0.9264   124.315    44.359    41.467 -0.4485  0.8938  0.0000
 
              Baa    -0.0301    -4.042    -1.442    -1.348  0.0000  0.0000  1.0000
     4 C(13)  Bbb    -0.0047    -0.633    -0.226    -0.211 -0.5949  0.8038  0.0000
              Bcc     0.0348     4.675     1.668     1.560  0.8038  0.5949  0.0000
 
              Baa    -0.1298     9.392     3.351     3.133 -0.5808  0.8141  0.0000
     5 O(17)  Bbb    -0.0598     4.325     1.543     1.443  0.0000  0.0000  1.0000
              Bcc     0.1896   -13.717    -4.894    -4.575  0.8141  0.5808  0.0000
 
              Baa    -0.0238     1.723     0.615     0.575 -0.6809  0.7324 -0.0001
     6 O(17)  Bbb    -0.0118     0.856     0.306     0.286 -0.0001  0.0000  1.0000
              Bcc     0.0356    -2.579    -0.920    -0.860  0.7324  0.6809  0.0000
 
              Baa    -0.0042    -0.567    -0.202    -0.189  0.0000  0.0000  1.0000
     7 C(13)  Bbb    -0.0041    -0.549    -0.196    -0.183 -0.3191  0.9477  0.0000
              Bcc     0.0083     1.116     0.398     0.372  0.9477  0.3191  0.0000
 
              Baa    -0.0016    -0.220    -0.078    -0.073  0.0000  0.0000  1.0000
     8 C(13)  Bbb    -0.0014    -0.184    -0.066    -0.062 -0.0175  0.9998  0.0000
              Bcc     0.0030     0.404     0.144     0.135  0.9998  0.0175  0.0000
 
              Baa    -0.0024    -1.260    -0.450    -0.420  0.2272  0.1676  0.9593
     9 H(1)   Bbb    -0.0017    -0.921    -0.329    -0.307 -0.4673  0.8830 -0.0436
              Bcc     0.0041     2.182     0.779     0.728  0.8544  0.4384 -0.2789
 
              Baa    -0.0024    -1.260    -0.450    -0.420 -0.2272 -0.1676  0.9593
    10 H(1)   Bbb    -0.0017    -0.921    -0.329    -0.307 -0.4673  0.8830  0.0436
              Bcc     0.0041     2.182     0.778     0.728  0.8544  0.4384  0.2790
 
              Baa    -0.0014    -0.724    -0.258    -0.242 -0.1799  0.2210  0.9585
    11 H(1)   Bbb    -0.0012    -0.657    -0.234    -0.219  0.1052  0.9732 -0.2046
              Bcc     0.0026     1.381     0.493     0.461  0.9780 -0.0641  0.1984
 
              Baa    -0.0014    -0.724    -0.258    -0.242  0.1799 -0.2210  0.9585
    12 H(1)   Bbb    -0.0012    -0.657    -0.234    -0.219  0.1052  0.9732  0.2046
              Bcc     0.0026     1.381     0.493     0.461  0.9780 -0.0641 -0.1984
 
              Baa    -0.0008    -0.448    -0.160    -0.149  0.0000  0.0000  1.0000
    13 H(1)   Bbb    -0.0007    -0.391    -0.140    -0.130 -0.1549  0.9879  0.0000
              Bcc     0.0016     0.839     0.299     0.280  0.9879  0.1549  0.0000
 
              Baa    -0.6084    44.024    15.709    14.685  0.0000  0.0000  1.0000
    14 O(17)  Bbb    -0.5643    40.835    14.571    13.621  0.6182  0.7860  0.0000
              Bcc     1.1728   -84.859   -30.280   -28.306  0.7860 -0.6182  0.0000
 
              Baa    -0.0433   -23.108    -8.245    -7.708  0.0000  0.0000  1.0000
    15 H(1)   Bbb    -0.0040    -2.140    -0.764    -0.714  0.8288 -0.5596  0.0000
              Bcc     0.0473    25.248     9.009     8.422  0.5596  0.8288  0.0000
 

 ---------------------------------------------------------------------------------

 Calling FoFJK, ICntrl=    100127 FMM=F ISym2X=0 I1Cent= 0 IOpClX= 1 NMat=1 NMatS=1 NMatT=0.
 Full mass-weighted force constant matrix:
 Low frequencies --- -509.3659   -0.0005   -0.0001    0.0002    4.7922    6.7664
 Low frequencies ---   36.8535   77.8430  116.7279
 ******    1 imaginary frequencies (negative Signs) ****** 
 Diagonal vibrational polarizability:
       32.1867107       8.6387001      32.1515397
 Harmonic frequencies (cm**-1), IR intensities (KM/Mole), Raman scattering
 activities (A**4/AMU), depolarization ratios for plane and unpolarized
 incident light, reduced masses (AMU), force constants (mDyne/A),
 and normal coordinates:
                      1                      2                      3
                      A                      A                      A
 Frequencies --   -509.3641                77.5654               102.5093
 Red. masses --     11.9229                 3.3880                 4.0572
 Frc consts  --      1.8226                 0.0120                 0.0251
 IR Inten    --     93.3802                 0.0032                 1.0946
  Atom  AN      X      Y      Z        X      Y      Z        X      Y      Z
     1   6    -0.38   0.67   0.00     0.00   0.00  -0.04     0.00   0.00  -0.06
     2   1     0.16   0.22   0.00     0.00   0.00  -0.08     0.00   0.00  -0.13
     3   6     0.03  -0.12   0.00     0.00   0.00   0.05     0.00   0.00   0.20
     4   6    -0.05  -0.02   0.00     0.00   0.00   0.07     0.00   0.00   0.18
     5   8    -0.02   0.00   0.00     0.00   0.00  -0.10     0.00   0.00   0.22
     6   8    -0.01   0.01   0.00     0.00   0.00   0.26     0.00   0.00   0.06
     7   6    -0.01   0.00   0.00     0.00   0.00   0.15     0.00   0.00  -0.24
     8   6    -0.01   0.00   0.00     0.00   0.00  -0.26     0.00   0.00  -0.07
     9   1     0.00   0.01   0.00    -0.18   0.15   0.27    -0.06  -0.24  -0.41
    10   1     0.00   0.01   0.00     0.18  -0.15   0.27     0.06   0.24  -0.41
    11   1    -0.01   0.00   0.00     0.19  -0.16  -0.38     0.06   0.26   0.11
    12   1    -0.01   0.00   0.00    -0.19   0.16  -0.38    -0.06  -0.26   0.11
    13   1    -0.01   0.00   0.00     0.00   0.00  -0.35     0.00   0.00  -0.31
    14   8     0.34  -0.41   0.00     0.00   0.00  -0.08     0.00   0.00  -0.22
    15   1     0.05  -0.19   0.00     0.00   0.00  -0.11     0.00   0.00  -0.12
                      4                      5                      6
                      A                      A                      A
 Frequencies --    126.7282               186.6062               196.4500
 Red. masses --      5.9536                 4.9895                 2.7640
 Frc consts  --      0.0563                 0.1024                 0.0628
 IR Inten    --      0.0867                 4.4480                 2.7716
  Atom  AN      X      Y      Z        X      Y      Z        X      Y      Z
     1   6     0.05  -0.05   0.00    -0.12   0.11   0.00     0.00   0.00   0.12
     2   1     0.25  -0.20   0.00    -0.05   0.05   0.00     0.00   0.00   0.24
     3   6    -0.01   0.23   0.00    -0.12   0.13   0.00     0.00   0.00   0.23
     4   6     0.03   0.21   0.00     0.07  -0.08   0.00     0.00   0.00   0.00
     5   8     0.14   0.22   0.00     0.25  -0.06   0.00     0.00   0.00   0.03
     6   8    -0.03   0.10   0.00     0.03  -0.18   0.00     0.00   0.00  -0.20
     7   6     0.08  -0.05   0.00    -0.04  -0.06   0.00     0.00   0.00   0.09
     8   6    -0.05  -0.24   0.00     0.16   0.21   0.00     0.00   0.00  -0.04
     9   1     0.17  -0.05   0.00    -0.14  -0.06   0.01     0.07   0.23   0.25
    10   1     0.17  -0.05   0.00    -0.14  -0.06  -0.01    -0.07  -0.23   0.25
    11   1    -0.15  -0.24   0.00     0.33   0.22   0.00    -0.16  -0.32  -0.27
    12   1    -0.15  -0.24   0.00     0.33   0.21   0.00     0.16   0.32  -0.27
    13   1     0.04  -0.38   0.00    -0.01   0.46   0.00     0.00   0.00   0.34
    14   8    -0.18  -0.31   0.00    -0.24  -0.04   0.00     0.00   0.00  -0.15
    15   1    -0.36  -0.17   0.00    -0.35   0.04   0.00     0.00   0.00  -0.22
                      7                      8                      9
                      A                      A                      A
 Frequencies --    281.7669               322.0722               328.2965
 Red. masses --      1.2276                 1.3915                 5.9727
 Frc consts  --      0.0574                 0.0850                 0.3793
 IR Inten    --      0.0032                47.3152                16.7798
  Atom  AN      X      Y      Z        X      Y      Z        X      Y      Z
     1   6     0.00   0.00   0.05     0.00   0.00  -0.08     0.09  -0.13   0.00
     2   1     0.00   0.00   0.15     0.00   0.00  -0.32     0.09  -0.13   0.00
     3   6     0.00   0.00  -0.02     0.00   0.00   0.13     0.01   0.07   0.00
     4   6     0.00   0.00  -0.03     0.00   0.00   0.01    -0.03   0.06   0.00
     5   8     0.00   0.00   0.03     0.00   0.00  -0.07     0.28   0.10   0.00
     6   8     0.00   0.00  -0.07     0.00   0.00  -0.05    -0.15  -0.13   0.00
     7   6     0.00   0.00   0.09     0.00   0.00   0.02    -0.28  -0.03   0.00
     8   6     0.00   0.00  -0.01     0.00   0.00   0.02    -0.24   0.10   0.00
     9   1     0.03   0.11   0.16     0.03   0.04   0.05    -0.36  -0.02   0.01
    10   1    -0.03  -0.11   0.16    -0.03  -0.04   0.05    -0.36  -0.02  -0.01
    11   1     0.34   0.31   0.21     0.08   0.08   0.07    -0.19   0.10   0.00
    12   1    -0.34  -0.31   0.21    -0.08  -0.08   0.07    -0.19   0.10   0.00
    13   1     0.00   0.00  -0.58     0.00   0.00  -0.12    -0.28   0.17   0.00
    14   8     0.00   0.00  -0.03     0.00   0.00   0.00     0.26  -0.03   0.00
    15   1     0.00   0.00  -0.16     0.00   0.00   0.90     0.36  -0.11   0.00
                     10                     11                     12
                      A                      A                      A
 Frequencies --    378.3257               402.4389               567.0382
 Red. masses --      2.0737                 3.4091                 5.3924
 Frc consts  --      0.1749                 0.3253                 1.0215
 IR Inten    --     66.8083                 5.9963                 4.9696
  Atom  AN      X      Y      Z        X      Y      Z        X      Y      Z
     1   6     0.00   0.00   0.18     0.00   0.07   0.00     0.30   0.23   0.00
     2   1     0.00   0.00   0.47     0.00   0.07   0.00     0.37   0.18   0.00
     3   6     0.00   0.00  -0.17     0.04  -0.06   0.00     0.35  -0.08   0.00
     4   6     0.00   0.00  -0.05     0.10  -0.12   0.00     0.06   0.05   0.00
     5   8     0.00   0.00   0.07     0.12  -0.12   0.00    -0.13   0.03   0.00
     6   8     0.00   0.00   0.05     0.14   0.02   0.00    -0.05  -0.10   0.00
     7   6     0.00   0.00  -0.01    -0.02   0.22   0.00    -0.15  -0.15   0.00
     8   6     0.00   0.00  -0.03    -0.24  -0.01   0.00    -0.08   0.02   0.00
     9   1    -0.03  -0.03  -0.02    -0.05   0.20  -0.01    -0.18  -0.14   0.01
    10   1     0.03   0.03  -0.02    -0.05   0.20   0.01    -0.18  -0.14  -0.01
    11   1    -0.03  -0.05  -0.06    -0.51  -0.03  -0.01     0.05   0.02   0.00
    12   1     0.03   0.05  -0.06    -0.51  -0.03   0.01     0.05   0.02   0.00
    13   1     0.00   0.00   0.05     0.00  -0.38   0.00    -0.19   0.19   0.00
    14   8     0.00   0.00  -0.14    -0.10   0.01   0.00    -0.15   0.00   0.00
    15   1     0.00   0.00   0.82    -0.17   0.06   0.00    -0.45   0.25   0.00
                     13                     14                     15
                      A                      A                      A
 Frequencies --    623.4326               765.0458               816.8661
 Red. masses --      9.8246                 6.4054                 1.1182
 Frc consts  --      2.2498                 2.2089                 0.4396
 IR Inten    --     13.5103                13.0269                 4.3687
  Atom  AN      X      Y      Z        X      Y      Z        X      Y      Z
     1   6     0.14   0.04   0.00     0.00   0.00   0.17     0.00   0.00  -0.05
     2   1     0.35  -0.11   0.00     0.00   0.00  -0.54     0.00   0.00   0.26
     3   6    -0.12   0.66   0.00     0.00   0.00  -0.24     0.00   0.00   0.02
     4   6     0.14  -0.13   0.00     0.00   0.00   0.58     0.00   0.00  -0.02
     5   8    -0.32  -0.19   0.00     0.00   0.00  -0.16     0.00   0.00   0.00
     6   8     0.12  -0.18   0.00     0.00   0.00  -0.14     0.00   0.00   0.03
     7   6    -0.02   0.01   0.00     0.00   0.00  -0.04     0.00   0.00  -0.07
     8   6    -0.07   0.02   0.00     0.00   0.00  -0.01     0.00   0.00  -0.04
     9   1    -0.11   0.00  -0.01    -0.03   0.25   0.14    -0.23   0.38   0.22
    10   1    -0.11   0.00   0.01     0.03  -0.25   0.14     0.23  -0.38   0.22
    11   1    -0.17   0.01  -0.01    -0.11   0.11   0.07    -0.30   0.29   0.18
    12   1    -0.17   0.01   0.01     0.11  -0.11   0.07     0.30  -0.29   0.18
    13   1     0.01  -0.11   0.00     0.00   0.00   0.06     0.00   0.00   0.18
    14   8     0.14  -0.07   0.00     0.00   0.00  -0.04     0.00   0.00   0.01
    15   1     0.17  -0.10   0.00     0.00   0.00  -0.02     0.00   0.00   0.02
                     16                     17                     18
                      A                      A                      A
 Frequencies --    829.1669               902.8862               951.8431
 Red. masses --      1.4755                 2.4673                 5.3001
 Frc consts  --      0.5977                 1.1851                 2.8292
 IR Inten    --     38.5299                 6.9929                 1.7069
  Atom  AN      X      Y      Z        X      Y      Z        X      Y      Z
     1   6     0.00   0.00  -0.16     0.02   0.01   0.00    -0.17  -0.08   0.00
     2   1     0.00   0.00   0.93     0.05  -0.01   0.00    -0.33   0.02   0.00
     3   6     0.00   0.00   0.00    -0.01   0.05   0.00    -0.04  -0.10   0.00
     4   6     0.00   0.00   0.12     0.02  -0.08   0.00     0.22   0.16   0.00
     5   8     0.00   0.00  -0.04     0.05  -0.12   0.00    -0.11   0.18   0.00
     6   8     0.00   0.00  -0.03     0.02   0.22   0.00     0.29  -0.11   0.00
     7   6     0.00   0.00   0.02    -0.05  -0.11   0.00     0.04  -0.17   0.00
     8   6     0.00   0.00   0.02    -0.12  -0.05   0.00    -0.22   0.07   0.00
     9   1     0.08  -0.10  -0.06     0.20  -0.07   0.01     0.12  -0.17  -0.01
    10   1    -0.08   0.10  -0.06     0.20  -0.07  -0.01     0.12  -0.17   0.01
    11   1     0.09  -0.09  -0.05     0.32   0.03   0.05    -0.05   0.13   0.03
    12   1    -0.09   0.09  -0.05     0.32   0.03  -0.05    -0.05   0.13  -0.03
    13   1     0.00   0.00  -0.05    -0.52   0.56   0.00    -0.44   0.40   0.00
    14   8     0.00   0.00   0.02     0.00   0.00   0.00    -0.01   0.01   0.00
    15   1     0.00   0.00   0.08     0.01   0.00   0.00     0.19  -0.17   0.00
                     19                     20                     21
                      A                      A                      A
 Frequencies --   1023.5713              1078.6544              1153.9049
 Red. masses --      1.1091                 3.2273                 2.2148
 Frc consts  --      0.6846                 2.2123                 1.7375
 IR Inten    --     47.8518                34.6891                12.5183
  Atom  AN      X      Y      Z        X      Y      Z        X      Y      Z
     1   6    -0.04   0.03   0.00     0.05   0.02   0.00     0.00   0.00   0.00
     2   1     0.65  -0.50   0.00     0.15  -0.05   0.00    -0.05   0.03   0.00
     3   6     0.01  -0.02   0.00     0.01   0.01   0.00     0.01  -0.01   0.00
     4   6     0.00   0.00   0.00    -0.11  -0.02   0.00     0.02   0.01   0.00
     5   8     0.00   0.00   0.00     0.01  -0.01   0.00    -0.02   0.04   0.00
     6   8     0.00   0.00   0.00    -0.14  -0.13   0.00     0.00  -0.11   0.00
     7   6     0.00   0.00   0.00     0.32   0.05   0.00    -0.04   0.23   0.00
     8   6     0.00   0.00   0.00    -0.16   0.07   0.00    -0.01  -0.19   0.00
     9   1    -0.01   0.00   0.00     0.50  -0.03  -0.05    -0.09   0.22  -0.01
    10   1    -0.01   0.00   0.00     0.50  -0.03   0.05    -0.09   0.22   0.01
    11   1     0.00   0.00   0.00    -0.07   0.17   0.06     0.52  -0.07   0.08
    12   1     0.00   0.00   0.00    -0.07   0.17  -0.06     0.52  -0.07  -0.08
    13   1     0.01  -0.01   0.00    -0.31   0.31   0.00    -0.32   0.31   0.00
    14   8    -0.05   0.04   0.00     0.01   0.00   0.00    -0.01   0.00   0.00
    15   1     0.44  -0.36   0.00    -0.11   0.10   0.00     0.06  -0.05   0.00
                     22                     23                     24
                      A                      A                      A
 Frequencies --   1188.5450              1191.5383              1314.0802
 Red. masses --      1.5662                 1.1958                 5.8044
 Frc consts  --      1.3036                 1.0003                 5.9054
 IR Inten    --      4.7856               135.8955               743.4396
  Atom  AN      X      Y      Z        X      Y      Z        X      Y      Z
     1   6     0.00   0.00   0.00     0.04   0.03   0.00    -0.13  -0.05   0.00
     2   1     0.00   0.00   0.00    -0.44   0.39   0.00     0.12  -0.26   0.00
     3   6     0.00   0.00   0.00     0.04   0.02   0.00    -0.01  -0.04   0.00
     4   6     0.00   0.00   0.01     0.04  -0.01   0.00     0.51   0.03   0.00
     5   8     0.00   0.00   0.00     0.00  -0.02   0.00    -0.04  -0.05   0.00
     6   8     0.00   0.00  -0.05    -0.06   0.01   0.00    -0.30   0.07   0.00
     7   6     0.00   0.00   0.17     0.03   0.00   0.00     0.13   0.02   0.00
     8   6     0.00   0.00  -0.13     0.00   0.01   0.00     0.00   0.00   0.00
     9   1    -0.17  -0.45  -0.14     0.00  -0.01   0.00    -0.40  -0.04   0.00
    10   1     0.17   0.45  -0.14     0.00  -0.01   0.00    -0.40  -0.04   0.00
    11   1    -0.26   0.32   0.11    -0.03   0.01   0.00    -0.03   0.07   0.05
    12   1     0.26  -0.32   0.11    -0.03   0.01   0.00    -0.03   0.07  -0.05
    13   1     0.00   0.00   0.27     0.02  -0.01   0.00    -0.02   0.02   0.00
    14   8     0.00   0.00   0.00    -0.06  -0.02   0.00     0.03   0.01   0.00
    15   1     0.00   0.00   0.00     0.58  -0.55   0.00    -0.31   0.29   0.00
                     25                     26                     27
                      A                      A                      A
 Frequencies --   1316.4619              1407.3550              1446.0857
 Red. masses --      1.0856                 1.2807                 1.4587
 Frc consts  --      1.1085                 1.4945                 1.7972
 IR Inten    --      1.7304                12.7883                 7.8152
  Atom  AN      X      Y      Z        X      Y      Z        X      Y      Z
     1   6     0.00   0.00   0.00    -0.02  -0.01   0.00    -0.01  -0.01   0.00
     2   1     0.00   0.00   0.00     0.00  -0.02   0.00     0.00  -0.02   0.00
     3   6     0.00   0.00   0.00     0.00   0.00   0.00     0.01   0.00   0.00
     4   6     0.00   0.00   0.00     0.06   0.02   0.00     0.05   0.02   0.00
     5   8     0.00   0.00   0.00    -0.01  -0.01   0.00    -0.01  -0.01   0.00
     6   8     0.00   0.00   0.04    -0.03  -0.02   0.00    -0.03  -0.02   0.00
     7   6     0.00   0.00   0.00    -0.09   0.02   0.00    -0.12   0.05   0.00
     8   6     0.00   0.00  -0.07    -0.06   0.08   0.00     0.13  -0.05   0.00
     9   1     0.67   0.07   0.02     0.45  -0.06  -0.08     0.44  -0.02  -0.07
    10   1    -0.67  -0.07   0.02     0.45  -0.06   0.08     0.44  -0.02   0.07
    11   1    -0.12   0.16   0.04     0.32  -0.17  -0.17    -0.42   0.01   0.04
    12   1     0.12  -0.16   0.04     0.32  -0.17   0.17    -0.42   0.01  -0.04
    13   1     0.00   0.00   0.10     0.26  -0.40   0.00    -0.18   0.41   0.00
    14   8     0.00   0.00   0.00     0.00   0.00   0.00     0.00   0.00   0.00
    15   1     0.00   0.00   0.00    -0.02   0.02   0.00    -0.01   0.01   0.00
                     28                     29                     30
                      A                      A                      A
 Frequencies --   1498.8205              1506.7241              1529.5176
 Red. masses --      1.0370                 1.0515                 1.0868
 Frc consts  --      1.3726                 1.4065                 1.4980
 IR Inten    --      8.6605                 3.0900                 8.9681
  Atom  AN      X      Y      Z        X      Y      Z        X      Y      Z
     1   6     0.00   0.00   0.00     0.00   0.00   0.00    -0.01   0.00   0.00
     2   1     0.00   0.00   0.00     0.00   0.00   0.00     0.00  -0.01   0.00
     3   6     0.00   0.00   0.00     0.00   0.00   0.00     0.00   0.00   0.00
     4   6     0.00   0.00   0.00     0.00   0.00   0.00     0.02   0.01   0.00
     5   8     0.00   0.00   0.00     0.00   0.00   0.00     0.00  -0.01   0.00
     6   8     0.00   0.00   0.00     0.01   0.01   0.00    -0.01  -0.01   0.00
     7   6     0.00   0.00  -0.02    -0.03   0.02   0.00    -0.02  -0.07   0.00
     8   6     0.00   0.00  -0.05    -0.01  -0.05   0.00    -0.01  -0.02   0.00
     9   1    -0.02   0.04   0.00     0.05  -0.24  -0.18     0.15   0.49   0.38
    10   1     0.02  -0.04   0.00     0.05  -0.24   0.18     0.15   0.49  -0.38
    11   1     0.49   0.11   0.04     0.07   0.47   0.36     0.02   0.22   0.16
    12   1    -0.49  -0.11   0.04     0.07   0.47  -0.36     0.02   0.22  -0.16
    13   1     0.00   0.00   0.70     0.14  -0.25   0.00     0.08  -0.14   0.00
    14   8     0.00   0.00   0.00     0.00   0.00   0.00     0.00   0.00   0.00
    15   1     0.00   0.00   0.00     0.00   0.00   0.00     0.00   0.00   0.00
                     31                     32                     33
                      A                      A                      A
 Frequencies --   1795.1041              1851.5275              3079.1404
 Red. masses --     10.3891                 9.1500                 1.0356
 Frc consts  --     19.7246                18.4812                 5.7851
 IR Inten    --    237.4920               214.9223                 9.6615
  Atom  AN      X      Y      Z        X      Y      Z        X      Y      Z
     1   6    -0.30  -0.11   0.00    -0.35  -0.14   0.00     0.00   0.00   0.00
     2   1    -0.31  -0.26   0.00    -0.39  -0.32   0.00     0.00   0.00   0.00
     3   6     0.40   0.14   0.00     0.51   0.21   0.00     0.00   0.00   0.00
     4   6    -0.16   0.55   0.00    -0.05  -0.45   0.00     0.00   0.00   0.00
     5   8     0.04  -0.41   0.00    -0.02   0.24   0.00     0.00   0.00   0.00
     6   8     0.03  -0.04   0.00    -0.03   0.03   0.00     0.00   0.00   0.00
     7   6     0.03   0.02   0.00     0.00  -0.01   0.00     0.00   0.00   0.00
     8   6    -0.01  -0.01   0.00     0.00   0.01   0.00     0.04  -0.03   0.00
     9   1    -0.13  -0.01  -0.04     0.05  -0.01   0.01     0.00  -0.01   0.02
    10   1    -0.13  -0.01   0.04     0.05  -0.01  -0.01     0.00  -0.01  -0.02
    11   1     0.03  -0.01   0.00    -0.01   0.01   0.00     0.01   0.33  -0.46
    12   1     0.03  -0.01   0.00    -0.01   0.01   0.00     0.01   0.33   0.46
    13   1    -0.03   0.04   0.00     0.02  -0.01   0.00    -0.49  -0.33   0.00
    14   8     0.00   0.03   0.00    -0.01   0.03   0.00     0.00   0.00   0.00
    15   1    -0.05   0.04   0.00    -0.09   0.12   0.00     0.00   0.00   0.00
                     34                     35                     36
                      A                      A                      A
 Frequencies --   3096.7995              3141.2134              3158.2372
 Red. masses --      1.0582                 1.1083                 1.1021
 Frc consts  --      5.9793                 6.4435                 6.4769
 IR Inten    --      9.1186                 2.5740                11.7444
  Atom  AN      X      Y      Z        X      Y      Z        X      Y      Z
     1   6     0.00   0.00   0.00     0.00   0.00   0.00     0.00   0.00   0.00
     2   1     0.00   0.00   0.00     0.00   0.00   0.00     0.00   0.00   0.00
     3   6     0.00   0.00   0.00     0.00   0.00   0.00     0.00   0.00   0.00
     4   6     0.00   0.00   0.00     0.00   0.00   0.00     0.00   0.00   0.00
     5   8     0.00   0.00   0.00     0.00   0.00   0.00     0.00   0.00   0.00
     6   8     0.00   0.00   0.00     0.00   0.00   0.00     0.00   0.00   0.00
     7   6    -0.01   0.07   0.00     0.00   0.00   0.09     0.00  -0.01   0.00
     8   6    -0.01  -0.01   0.00     0.00   0.00  -0.04    -0.05  -0.08   0.00
     9   1     0.02  -0.40   0.58    -0.03   0.37  -0.51     0.00   0.04  -0.06
    10   1     0.02  -0.40  -0.58     0.03  -0.37  -0.51     0.00   0.04   0.06
    11   1     0.00   0.01  -0.02     0.00  -0.19   0.26    -0.01   0.23  -0.35
    12   1     0.00   0.01   0.02     0.00   0.19   0.26    -0.01   0.23   0.35
    13   1     0.08   0.06   0.00     0.00   0.00  -0.01     0.66   0.43   0.00
    14   8     0.00   0.00   0.00     0.00   0.00   0.00     0.00   0.00   0.00
    15   1     0.00   0.00   0.00     0.00   0.00   0.00     0.00   0.00   0.00
                     37                     38                     39
                      A                      A                      A
 Frequencies --   3168.3299              3293.2925              3807.5929
 Red. masses --      1.1056                 1.1104                 1.0681
 Frc consts  --      6.5388                 7.0957                 9.1239
 IR Inten    --     19.2530                14.2147                46.8373
  Atom  AN      X      Y      Z        X      Y      Z        X      Y      Z
     1   6     0.00   0.00   0.00    -0.06  -0.07   0.00     0.00   0.00   0.00
     2   1     0.00   0.00   0.00     0.60   0.79   0.00     0.00  -0.01   0.00
     3   6     0.00   0.00   0.00     0.01   0.00   0.00     0.00   0.00   0.00
     4   6     0.00   0.00   0.00     0.00   0.00   0.00     0.00   0.00   0.00
     5   8     0.00   0.00   0.00     0.00   0.00   0.00     0.00   0.00   0.00
     6   8     0.00   0.00   0.00     0.00   0.00   0.00     0.00   0.00   0.00
     7   6     0.00   0.00   0.04     0.00   0.00   0.00     0.00   0.00   0.00
     8   6     0.00   0.00   0.08     0.00   0.00   0.00     0.00   0.00   0.00
     9   1    -0.02   0.19  -0.26     0.00   0.00   0.00     0.00   0.00   0.00
    10   1     0.02  -0.19  -0.26     0.00   0.00   0.00     0.00   0.00   0.00
    11   1     0.00   0.37  -0.50     0.00   0.00   0.00     0.00   0.00   0.00
    12   1     0.00  -0.37  -0.50     0.00   0.00   0.00     0.00   0.00   0.00
    13   1     0.00   0.00   0.01     0.00   0.00   0.00     0.00   0.00   0.00
    14   8     0.00   0.00   0.00     0.00   0.00   0.00     0.04   0.05   0.00
    15   1     0.00   0.00   0.00    -0.01   0.00   0.00    -0.64  -0.77   0.00

 -------------------
 - Thermochemistry -
 -------------------
 Temperature   298.150 Kelvin.  Pressure   1.00000 Atm.
 Atom     1 has atomic number  6 and mass  12.00000
 Atom     2 has atomic number  1 and mass   1.00783
 Atom     3 has atomic number  6 and mass  12.00000
 Atom     4 has atomic number  6 and mass  12.00000
 Atom     5 has atomic number  8 and mass  15.99491
 Atom     6 has atomic number  8 and mass  15.99491
 Atom     7 has atomic number  6 and mass  12.00000
 Atom     8 has atomic number  6 and mass  12.00000
 Atom     9 has atomic number  1 and mass   1.00783
 Atom    10 has atomic number  1 and mass   1.00783
 Atom    11 has atomic number  1 and mass   1.00783
 Atom    12 has atomic number  1 and mass   1.00783
 Atom    13 has atomic number  1 and mass   1.00783
 Atom    14 has atomic number  8 and mass  15.99491
 Atom    15 has atomic number  1 and mass   1.00783
 Molecular mass:   115.03952 amu.
 Principal axes and moments of inertia in atomic units:
                           1         2         3
     Eigenvalues --   260.063182078.255092315.76298
           X            1.00000   0.00016   0.00000
           Y           -0.00016   1.00000   0.00000
           Z            0.00000   0.00000   1.00000
 This molecule is an asymmetric top.
 Rotational symmetry number  1.
 Rotational temperatures (Kelvin)      0.33305     0.04168     0.03740
 Rotational constants (GHZ):           6.93963     0.86839     0.77933
    1 imaginary frequencies ignored.
 Zero-point vibrational energy     298501.4 (Joules/Mol)
                                   71.34354 (Kcal/Mol)
 Warning -- explicit consideration of  11 degrees of freedom as
           vibrations may cause significant error
 Vibrational temperatures:    111.60   147.49   182.33   268.48   282.65
          (Kelvin)            405.40   463.39   472.34   544.33   579.02
                              815.84   896.98  1100.73  1175.29  1192.98
                             1299.05  1369.49  1472.69  1551.94  1660.21
                             1710.05  1714.36  1890.67  1894.09  2024.87
                             2080.59  2156.47  2167.84  2200.63  2582.75
                             2663.93  4430.19  4455.60  4519.50  4543.99
                             4558.51  4738.31  5478.27
 
 Zero-point correction=                           0.113693 (Hartree/Particle)
 Thermal correction to Energy=                    0.122552
 Thermal correction to Enthalpy=                  0.123496
 Thermal correction to Gibbs Free Energy=         0.079213
 Sum of electronic and zero-point Energies=           -420.116639
 Sum of electronic and thermal Energies=              -420.107780
 Sum of electronic and thermal Enthalpies=            -420.106836
 Sum of electronic and thermal Free Energies=         -420.151119
 
                     E (Thermal)             CV                S
                      KCal/Mol        Cal/Mol-Kelvin    Cal/Mol-Kelvin
 Total                   76.903             30.442             93.202
 Electronic               0.000              0.000              1.377
 Translational            0.889              2.981             40.136
 Rotational               0.889              2.981             28.617
 Vibrational             75.125             24.480             23.072
 Vibration     1          0.599              1.964              3.952
 Vibration     2          0.605              1.947              3.406
 Vibration     3          0.611              1.926              2.995
 Vibration     4          0.632              1.858              2.261
 Vibration     5          0.636              1.845              2.166
 Vibration     6          0.681              1.707              1.523
 Vibration     7          0.707              1.631              1.300
 Vibration     8          0.712              1.619              1.268
 Vibration     9          0.749              1.516              1.046
 Vibration    10          0.768              1.465              0.954
 Vibration    11          0.923              1.103              0.510
                       Q            Log10(Q)             Ln(Q)
 Total Bot       0.366944D-36        -36.435401        -83.895610
 Total V=0       0.723964D+16         15.859717         36.518348
 Vib (Bot)       0.944629D-50        -50.024739       -115.186218
 Vib (Bot)    1  0.265608D+01          0.424242          0.976853
 Vib (Bot)    2  0.200106D+01          0.301260          0.693676
 Vib (Bot)    3  0.160999D+01          0.206822          0.476225
 Vib (Bot)    4  0.107384D+01          0.030940          0.071242
 Vib (Bot)    5  0.101636D+01          0.007047          0.016227
 Vib (Bot)    6  0.681706D+00         -0.166403         -0.383157
 Vib (Bot)    7  0.582941D+00         -0.234375         -0.539669
 Vib (Bot)    8  0.569734D+00         -0.244328         -0.562586
 Vib (Bot)    9  0.478469D+00         -0.320147         -0.737165
 Vib (Bot)   10  0.442099D+00         -0.354481         -0.816222
 Vib (Bot)   11  0.272213D+00         -0.565090         -1.301169
 Vib (V=0)       0.186371D+03          2.270379          5.227740
 Vib (V=0)    1  0.320274D+01          0.505521          1.164005
 Vib (V=0)    2  0.256258D+01          0.408677          0.941014
 Vib (V=0)    3  0.218584D+01          0.339618          0.782000
 Vib (V=0)    4  0.168454D+01          0.226481          0.521492
 Vib (V=0)    5  0.163269D+01          0.212904          0.490229
 Vib (V=0)    6  0.134541D+01          0.128856          0.296701
 Vib (V=0)    7  0.126800D+01          0.103118          0.237439
 Vib (V=0)    8  0.125802D+01          0.099688          0.229540
 Vib (V=0)    9  0.119205D+01          0.076294          0.175674
 Vib (V=0)   10  0.116742D+01          0.067228          0.154797
 Vib (V=0)   11  0.106930D+01          0.029099          0.067002
 Electronic      0.200000D+01          0.301030          0.693147
 Translational   0.484982D+08          7.685726         17.697038
 Rotational      0.400481D+06          5.602582         12.900423
 ***** Axes restored to original set *****
 -------------------------------------------------------------------
 Center     Atomic                   Forces (Hartrees/Bohr)
 Number     Number              X              Y              Z
 -------------------------------------------------------------------
      1        6           0.044163550    0.072007430   -0.000000916
      2        1          -0.002848173    0.000725262   -0.000000001
      3        6          -0.004436080   -0.014549424    0.000000320
      4        6           0.003229904   -0.000712766   -0.000000247
      5        8           0.001025128    0.001309572    0.000000066
      6        8          -0.000139293    0.000968245    0.000000079
      7        6           0.000285615    0.000001608    0.000000675
      8        6          -0.000007553    0.000037483   -0.000000523
      9        1          -0.000043054    0.000025370   -0.000009988
     10        1          -0.000043141    0.000025765    0.000009402
     11        1           0.000001162   -0.000005991    0.000004183
     12        1           0.000001186   -0.000006159   -0.000003818
     13        1          -0.000012116   -0.000010744    0.000000042
     14        8          -0.040589551   -0.057667873    0.000000748
     15        1          -0.000587583   -0.002147777   -0.000000022
 -------------------------------------------------------------------
 Cartesian Forces:  Max     0.072007430 RMS     0.016578632

 GradGradGradGradGradGradGradGradGradGradGradGradGradGradGradGradGradGrad
 Berny optimization.
 Search for a local minimum.
 Step number   1 out of a maximum of    2
 All quantities printed in internal units (Hartrees-Bohrs-Radians)
 Second derivative matrix not updated -- analytic derivatives used.
 ITU=  0
     Eigenvalues ---   -0.12311   0.00105   0.00171   0.00382   0.00393
     Eigenvalues ---    0.00535   0.00713   0.01541   0.02171   0.02424
     Eigenvalues ---    0.02716   0.03123   0.05191   0.05675   0.07179
     Eigenvalues ---    0.08021   0.08610   0.11042   0.11576   0.12953
     Eigenvalues ---    0.13821   0.14882   0.16031   0.19670   0.20616
     Eigenvalues ---    0.28899   0.29976   0.45276   0.47825   0.63263
     Eigenvalues ---    0.69853   0.74743   0.80018   0.88929   0.90074
     Eigenvalues ---    0.91740   1.00697   1.66920   1.75171
 Eigenvalue     1 is  -1.23D-01 should be greater than     0.000000 Eigenvector:
                          Y1        Y14       X14       X1        Y2
   1                    0.63456  -0.45588  -0.40218   0.39535   0.14995
                          Y3        Y15       X2        X4        X5
   1                   -0.13697  -0.11387  -0.10807   0.05957   0.02592
 Quadratic step=1.085D+00 exceeds max=3.000D-01 adjusted using Lamda=-2.432D-01.
 Angle between NR and scaled steps=  32.02 degrees.
 Angle between quadratic step and forces=   6.20 degrees.
 Linear search not attempted -- first point.
 TrRot= -0.000908 -0.001798  0.000000 -0.000148  0.000000 -0.000148
 Variable       Old X    -DE/DX   Delta X   Delta X   Delta X     New X
                                 (Linear)    (Quad)   (Total)
    X1        4.47081   0.04416   0.00000   0.12884   0.12741   4.59822
    Y1       -1.94608   0.07201   0.00000   0.19021   0.18704  -1.75904
    Z1        0.00001   0.00000   0.00000   0.00000   0.00000   0.00001
    X2        5.68946  -0.00285   0.00000  -0.01735  -0.01931   5.67015
    Y2       -3.58013   0.00073   0.00000   0.01621   0.01273  -3.56740
    Z2        0.00002   0.00000   0.00000   0.00000   0.00000   0.00002
    X3        2.11255  -0.00444   0.00000  -0.00293  -0.00427   2.10828
    Y3       -1.43020  -0.01455   0.00000  -0.03780  -0.04022  -1.47042
    Z3        0.00001   0.00000   0.00000   0.00000   0.00000   0.00001
    X4        0.02371   0.00323   0.00000   0.01290   0.01210   0.03581
    Y4        0.36328  -0.00071   0.00000  -0.00028  -0.00209   0.36119
    Z4        0.00001   0.00000   0.00000   0.00000   0.00000   0.00001
    X5        0.31835   0.00103   0.00000  -0.00063  -0.00076   0.31759
    Y5        2.61805   0.00131   0.00000   0.00648   0.00459   2.62264
    Z5        0.00002   0.00000   0.00000   0.00000   0.00000   0.00002
    X6       -2.19642  -0.00014   0.00000   0.00124   0.00009  -2.19633
    Y6       -0.80877   0.00097   0.00000   0.00425   0.00310  -0.80567
    Z6        0.00000   0.00000   0.00000   0.00000   0.00000   0.00000
    X7       -4.39144   0.00029   0.00000   0.00107   0.00040  -4.39103
    Y7        0.80978   0.00000   0.00000   0.00034  -0.00015   0.80962
    Z7        0.00000   0.00000   0.00000   0.00000   0.00000   0.00000
    X8       -6.68652  -0.00001   0.00000   0.00020  -0.00097  -6.68749
    Y8       -0.88740   0.00004   0.00000  -0.00031  -0.00013  -0.88752
    Z8       -0.00001   0.00000   0.00000   0.00000   0.00000  -0.00001
    X9       -4.30922  -0.00004   0.00000  -0.00081  -0.00112  -4.31034
    Y9        2.01789   0.00003   0.00000   0.00033  -0.00019   2.01770
    Z9        1.67042  -0.00001   0.00000   0.00006   0.00006   1.67048
   X10       -4.30921  -0.00004   0.00000  -0.00081  -0.00112  -4.31033
   Y10        2.01789   0.00003   0.00000   0.00033  -0.00019   2.01770
   Z10       -1.67042   0.00001   0.00000  -0.00006  -0.00006  -1.67048
   X11       -6.70249   0.00000   0.00000   0.00027  -0.00126  -6.70374
   Y11       -2.08843  -0.00001   0.00000  -0.00028  -0.00009  -2.08852
   Z11       -1.67475   0.00000   0.00000  -0.00005  -0.00005  -1.67480
   X12       -6.70249   0.00000   0.00000   0.00027  -0.00126  -6.70375
   Y12       -2.08843  -0.00001   0.00000  -0.00028  -0.00009  -2.08852
   Z12        1.67472   0.00000   0.00000   0.00005   0.00005   1.67478
   X13       -8.39765  -0.00001   0.00000  -0.00056  -0.00139  -8.39904
   Y13        0.26341  -0.00001   0.00000  -0.00072  -0.00002   0.26338
   Z13       -0.00001   0.00000   0.00000   0.00000   0.00000  -0.00001
   X14        6.45683  -0.04059   0.00000  -0.11945  -0.12022   6.33661
   Y14        0.60021  -0.05767   0.00000  -0.14298  -0.14666   0.45356
   Z14       -0.00002   0.00000   0.00000   0.00000   0.00000  -0.00002
   X15        5.29700  -0.00059   0.00000   0.01198   0.01167   5.30867
   Y15        2.01656  -0.00215   0.00000  -0.01426  -0.01764   1.99892
   Z15       -0.00001   0.00000   0.00000   0.00000   0.00000  -0.00001
         Item               Value     Threshold  Converged?
 Maximum Force            0.072007     0.000450     NO 
 RMS     Force            0.016579     0.000300     NO 
 Maximum Displacement     0.187045     0.001800     NO 
 RMS     Displacement     0.044718     0.001200     NO 
 Predicted change in Energy=-3.839651D-02
 GradGradGradGradGradGradGradGradGradGradGradGradGradGradGradGradGradGrad

 1|1|UNPC-DIT|Freq|UM062X|6-311++G(d,p)|C5H7O3(2)|NDITM|28-Mar-2025|0||
 # freq 6-311++g(d,p) m062x||Title Card Required||0,2|C,2.365853,-1.029
 823,0.000004|H,3.010734,-1.894524,0.000008|C,1.117914,-0.756829,0.0000
 05|C,0.012549,0.192237,0.000005|O,0.168463,1.385412,0.000009|O,-1.1622
 97,-0.427984,-0.000001|C,-2.323849,0.428515,-0.000002|C,-3.538355,-0.4
 6959,-0.000005|H,-2.28034,1.067822,0.883947|H,-2.280336,1.067824,-0.88
 3948|H,-3.546803,-1.105148,-0.886239|H,-3.546806,-1.105151,0.886226|H,
 -4.443846,0.139389,-0.000006|O,3.416807,0.31762,-0.000012|H,2.803052,1
 .067116,-0.000004||Version=IA32W-G09RevD.01|State=2-A|HF=-420.2303318|
 S2=0.776612|S2-1=0.|S2A=0.750448|RMSD=2.470e-009|RMSF=1.658e-002|ZeroP
 oint=0.1136932|Thermal=0.1225521|Dipole=-1.3768588,-0.5703531,0.000007
 2|DipoleDeriv=0.6461518,0.008022,0.0000523,0.4276021,0.3403118,-0.0000
 028,0.0000381,0.0000475,0.020231,0.1322247,-0.0267842,-0.0000084,-0.06
 34254,0.1092213,0.0000075,0.0000038,-0.0000023,0.1852485,-0.8918482,0.
 2399481,-0.0000064,0.21997,-0.3416151,0.0000004,-0.0001093,-0.0000484,
 -0.1181927,2.6773293,0.0261609,-0.00003,0.1767635,1.4838124,0.0000116,
 0.0000857,-0.0000194,0.4169832,-0.8884751,0.0253974,0.0000077,-0.00678
 09,-1.1256227,-0.0000073,-0.0000148,0.000018,-0.35941,-2.1458701,-0.17
 98362,-0.0000093,-0.1472836,-0.5905244,-0.000006,-0.0000101,-0.0000114
 ,-0.279582,1.0550638,-0.0658367,0.0000097,-0.2849143,0.3213164,-0.0000
 117,-0.000012,0.0000246,0.3032471,-0.0665311,-0.0368386,-0.0000202,-0.
 0384102,0.0263337,0.0000204,0.0000238,-0.0000094,0.0568511,-0.051035,-
 0.0337854,-0.0416367,0.052894,0.0080624,-0.048122,-0.003364,-0.0705347
 ,-0.0389767,-0.0510393,-0.0337899,0.0416376,0.052888,0.0080652,0.04813
 2,0.0033752,0.0705294,-0.0389882,0.065143,0.003617,0.0269676,-0.048373
 8,0.0138382,-0.0654974,-0.0044278,-0.0823586,-0.0394157,0.0651462,0.00
 36252,-0.0269639,-0.0483674,0.0138327,0.0654873,0.0044149,0.0823634,-0
 .0394058,-0.0719714,0.0489222,0.0000096,0.0785789,0.0033871,-0.0000071
 ,-0.0000063,-0.0000056,0.090677,-0.6140591,-0.0025118,-0.0000234,-0.49
 82152,-0.5431569,0.000011,0.0000106,0.0000094,-0.4788466,0.1397706,0.0
 236899,0.0000138,0.1270741,0.2727378,-0.0000161,-0.0000078,-0.0000025,
 0.3195798|Polar=105.6612766,0.4656351,68.8687988,-0.0005446,-0.0006631
 ,47.9602223|PG=C01 [X(C5H7O3)]|NImag=1||0.72162517,-0.47890691,0.31801
 278,0.00000523,0.00000251,0.10915137,-0.14724318,0.16906448,-0.0000010
 5,0.16443579,0.17585008,-0.23834254,0.00000105,-0.16167881,0.25584332,
 -0.00000079,0.00000070,-0.03351290,0.00000053,-0.00000108,0.01916361,-
 0.56817177,0.24084847,-0.00000160,-0.01807660,-0.01328337,0.00000026,0
 .87229460,0.20333268,-0.08824825,-0.00000155,0.01307200,0.00546840,-0.
 00000010,-0.30841538,0.25232630,-0.00000428,-0.00000279,-0.03418999,0.
 00000093,-0.00000093,0.00279511,-0.00000059,0.00000239,0.05026002,-0.0
 3184663,0.00030413,-0.00000075,0.00112729,0.00105783,-0.00000019,-0.15
 708246,0.09592208,0.00000332,0.61929703,-0.00375443,0.01064233,0.00000
 052,0.00056209,-0.00026949,0.00000001,0.09863821,-0.10826809,-0.000000
 21,0.02921817,0.97891472,-0.00000036,-0.00000035,-0.00106394,-0.000000
 68,0.00000108,0.00787069,0.00000258,-0.00000090,-0.06663846,-0.0000016
 3,0.00000175,0.20664553,0.00442426,-0.00066826,0.00000021,-0.00038411,
 -0.00031787,0.00000004,0.00599542,0.02781954,-0.00000075,-0.11403297,-
 0.05091609,0.00000042,0.11882578,-0.02008035,-0.00753243,0.00000019,0.
 00151540,0.00102580,0.00000003,0.04013363,-0.06421848,-0.00000071,-0.0
 7802720,-0.73851753,-0.00000149,0.10562373,0.86411845,0.00000101,0.000
 00078,0.00067781,0.00000013,-0.00000030,-0.00146450,-0.00000113,-0.000
 00036,0.02045291,0.00000040,-0.00000164,-0.07888406,0.00000040,0.00000
 261,0.03301852,0.00165142,0.00452722,-0.00000029,-0.00015303,-0.000719
 27,0.00000007,-0.06480775,0.00273678,-0.00000034,-0.27222443,-0.087225
 99,-0.00000029,-0.01920789,-0.06718049,-0.00000058,0.56154286,0.003296
 69,-0.00377628,-0.00000023,0.00024284,0.00012323,0.00000001,0.01847631
 ,0.00953727,0.00000027,-0.05503528,-0.15054549,-0.00000027,-0.07232388
 ,-0.05874263,-0.00000063,0.03178514,0.36932812,-0.00000058,-0.00000051
 ,0.00114819,0.,0.00000005,-0.00047897,0.00000020,0.00000035,0.01047768
 ,-0.00000084,-0.00000081,-0.06940676,-0.00000035,-0.00000047,0.0312102
 2,0.00000167,0.00000104,0.08080315,-0.00207857,-0.00131234,0.00000002,
 0.00001144,0.00022645,0.00000002,0.00237357,-0.00211255,-0.00000013,-0
 .06654766,0.00274129,-0.00000013,0.00571248,0.01611156,0.00000005,-0.1
 2727388,0.04229853,-0.00000004,0.46468251,0.00025328,0.00131892,-0.000
 00028,-0.00012941,-0.00011013,-0.00000002,-0.00626096,-0.00001515,0.00
 000061,0.00213933,0.02487965,-0.00000027,-0.00761478,-0.00926983,0.000
 00003,0.06738784,-0.14610825,-0.00000002,0.05491208,0.55933235,0.00000
 142,0.00000044,0.00005986,0.00000008,-0.00000025,-0.00037326,-0.000001
 20,0.00000007,0.00618250,0.00000017,0.00000060,0.00196304,-0.00000004,
 -0.00000024,-0.00622102,-0.00000039,-0.00000023,-0.06919508,-0.0000002
 8,-0.00000115,0.62945721,-0.00007840,0.00029454,-0.00000001,-0.0000275
 2,-0.00002430,0.00000001,-0.00144865,-0.00017166,-0.00000015,-0.001009
 94,0.00583511,0.00000046,0.00086761,-0.00212374,-0.00000011,-0.0462764
 6,-0.01432668,-0.00000024,-0.15783389,-0.06953508,-0.00000058,0.536994
 04,0.00004563,-0.00041104,0.,0.00003500,0.00003895,0.00000006,0.001459
 20,0.00028498,-0.00000010,0.00129001,-0.00707780,-0.00000002,-0.001343
 27,0.00298291,-0.00000006,0.03015438,0.01487683,0.00000018,-0.08600324
 ,-0.14358133,0.00000014,-0.04140278,0.56520315,-0.00000023,-0.00000031
 ,-0.00003939,-0.00000025,0.00000036,-0.00000111,0.00000096,-0.00000013
 ,0.00011057,-0.00000104,-0.00000035,-0.00024444,0.00000023,0.00000020,
 0.00105212,0.00000015,0.00000005,0.00173869,-0.00000020,-0.00000030,-0
 .08670584,-0.00000008,-0.00000090,0.59013083,0.00016349,0.00028000,0.0
 0002036,0.00000471,-0.00003463,0.00008940,-0.00055777,0.00006257,-0.00
 127036,0.00478565,0.00709586,0.00167007,-0.00016113,-0.00340363,0.0001
 0438,-0.01517528,0.02381573,0.02590271,-0.04972657,-0.01187153,-0.0178
 9897,-0.00006764,-0.01586511,-0.02363223,0.06177548,-0.00018661,-0.000
 10281,0.00002599,0.00001317,0.00001712,-0.00002668,0.00059142,-0.00020
 590,0.00021634,-0.00402504,-0.00161849,-0.00022341,0.00046333,0.001289
 82,0.00021114,0.01287919,-0.01804127,-0.01608740,-0.00794588,-0.135459
 66,-0.12163308,-0.00198407,-0.00941357,-0.01472351,0.00247286,0.151692
 35,-0.00002137,0.00002358,0.00000909,-0.00000384,-0.00000468,0.0000224
 6,0.00014243,0.00008431,-0.00045101,-0.00174692,-0.00263931,0.00055166
 ,-0.00100208,0.00161362,0.00027633,0.00429680,0.00129963,0.00623041,-0
 .01001577,-0.12517892,-0.23790059,-0.00063766,0.00233471,0.00301927,0.
 01140287,0.13713271,0.24688225,0.00016323,0.00027979,-0.00002032,0.000
 00472,-0.00003463,-0.00008940,-0.00055767,0.00006272,0.00127031,0.0047
 8570,0.00709579,-0.00167001,-0.00016113,-0.00340364,-0.00010440,-0.015
 17518,0.02381589,-0.02590279,-0.04972638,-0.01187221,0.01789992,-0.000
 06776,-0.01586514,0.02363221,0.00178699,-0.00026908,-0.00202729,0.0617
 7529,-0.00018633,-0.00010326,-0.00002570,0.00001313,0.00001714,0.00002
 670,0.00059137,-0.00020554,-0.00021707,-0.00402528,-0.00161846,0.00022
 382,0.00046340,0.00128969,-0.00021120,0.01287908,-0.01804136,0.0160874
 1,-0.00794636,-0.13546096,0.12163435,-0.00198451,-0.00941318,0.0147236
 3,-0.00026902,0.01197006,-0.01500366,0.00247349,0.15169368,0.00002109,
 -0.00002331,0.00000889,0.00000380,0.00000476,0.00002241,-0.00014212,-0
 .00008462,-0.00045025,0.00174682,0.00263918,0.00055105,0.00100210,-0.0
 0161347,0.00027649,-0.00429668,-0.00129958,0.00623029,0.01001656,0.125
 18029,-0.23790070,0.00063794,-0.00233515,0.00301918,0.00202738,0.01500
 378,-0.02076175,-0.01140380,-0.13713401,0.24688232,-0.00006357,-0.0000
 4096,0.00000406,-0.00000396,0.00000488,-0.00000775,0.00009164,-0.00001
 114,0.00003184,-0.00066815,-0.00112527,0.00000158,-0.00030792,0.000795
 02,0.00015548,0.00337299,0.00060819,0.00021595,-0.00166677,-0.01782271
 ,-0.02564488,-0.04788488,0.00134104,0.00166939,-0.00440233,-0.00295630
 ,0.00063982,0.00114130,0.00098810,0.00040323,0.05013052,0.00003348,0.0
 0004715,0.00000117,0.00000061,-0.00000669,-0.00000052,-0.00009015,0.00
 003319,-0.00007568,0.00021501,-0.00023152,0.00006173,-0.00027466,0.000
 18369,0.00015671,0.00084162,0.00127724,0.00108623,0.00102895,-0.013877
 41,-0.01815308,-0.00105612,-0.13947019,-0.12803260,-0.00359087,-0.0009
 9407,0.00093255,0.00066340,0.00027811,0.00011979,0.00353667,0.15025572
 ,-0.00002258,0.00000085,0.00000107,-0.00000514,-0.00000359,-0.00000405
 ,-0.00004115,-0.00000358,0.00000769,-0.00021149,-0.00003438,0.00003180
 ,0.00013145,0.00026057,-0.00005437,-0.00037999,0.00029834,0.00012150,-
 0.00022995,0.00091436,0.00150873,0.00004545,-0.12924684,-0.23253969,0.
 00081685,0.00018365,0.00143990,-0.00065294,0.00010081,0.00074381,-0.00
 029230,0.14147655,0.24717351,-0.00006301,-0.00004071,-0.00000397,-0.00
 000399,0.00000487,0.00000776,0.00009139,-0.00001126,-0.00003212,-0.000
 66824,-0.00112515,-0.00000138,-0.00030790,0.00079499,-0.00015552,0.003
 37292,0.00060814,-0.00021592,-0.00166681,-0.01782283,0.02564480,-0.047
 88478,0.00134069,-0.00166867,0.00114130,0.00098810,-0.00040321,-0.0044
 0232,-0.00295626,-0.00063988,-0.00110567,-0.00000271,0.00042968,0.0501
 3035,0.00003339,0.00004663,-0.00000125,0.00000047,-0.00000650,0.000000
 46,-0.00008964,0.00003341,0.00007607,0.00021438,-0.00023170,-0.0000621
 1,-0.00027450,0.00018371,-0.00015658,0.00084168,0.00127727,-0.00108625
 ,0.00102904,-0.01387760,0.01815294,-0.00105681,-0.13947125,0.12803352,
 0.00066340,0.00027826,-0.00011964,-0.00359085,-0.00099408,-0.00093263,
 -0.00000261,0.01259343,-0.01590896,0.00353715,0.15025696,0.00002265,-0
 .00000055,0.00000103,0.00000531,0.00000336,-0.00000399,0.00004059,0.00
 000356,0.00000762,0.00021217,0.00003458,0.00003193,-0.00013162,-0.0002
 6066,-0.00005447,0.00037991,-0.00029836,0.00012151,0.00022987,-0.00091
 437,0.00150904,-0.00004471,0.12924775,-0.23253933,0.00065294,-0.000100
 97,0.00074364,-0.00081689,-0.00018364,0.00143990,-0.00042967,0.0159090
 5,-0.01948788,0.00029163,-0.14147745,0.24717302,0.00008073,0.00018385,
 -0.00000005,-0.00000932,-0.00002549,-0.00000004,-0.00062784,-0.0000202
 4,0.00000045,0.00102337,0.00227052,-0.00000068,-0.00009316,-0.00099873
 ,0.00000019,-0.00709303,-0.00462474,0.00000003,-0.01732772,0.01862297,
 0.00000031,-0.23518498,0.12466927,-0.00000033,0.00059348,-0.00016004,-
 0.00062928,0.00059351,-0.00015981,0.00062906,0.00132532,-0.00127128,0.
 00040112,0.00132544,-0.00127125,-0.00040110,0.25549668,-0.00007436,0.0
 0009855,0.00000010,-0.00001487,-0.00000883,0.00000002,-0.00042014,-0.0
 0010146,-0.00000039,-0.00068131,0.00160403,0.00000047,0.00027776,-0.00
 037602,-0.00000010,-0.00654187,-0.00194735,-0.00000008,-0.01397240,0.0
 1257381,-0.00000021,0.12762116,-0.13467416,0.00000025,0.00082171,0.000
 49196,-0.00046814,0.00082167,0.00049176,0.00046832,0.01464977,-0.01005
 679,0.00195015,0.01464983,-0.01005690,-0.00195016,-0.13712255,0.141975
 39,-0.00000039,-0.00000031,-0.00002272,0.00000003,-0.00000001,0.000004
 84,0.00000013,0.00000022,-0.00002402,0.00000009,-0.00000007,0.00049031
 ,-0.00000002,-0.00000003,-0.00016101,0.,0.00000001,0.00098894,-0.00000
 003,0.00000007,-0.00231885,-0.00000024,0.00000019,-0.04700031,0.000108
 36,0.00002787,-0.00005274,-0.00010836,-0.00002789,-0.00005273,0.023248
 95,-0.01348214,0.00105669,-0.02324891,0.01348209,0.00105667,0.00000025
 ,-0.00000019,0.04603375,0.01051344,0.08296144,-0.00000246,0.00331899,0
 .00282604,0.,-0.06804434,-0.03149854,0.00000327,0.01381316,-0.00088143
 ,-0.00000051,-0.00376275,0.00547738,-0.00000031,-0.00389552,-0.0002462
 6,0.00000030,0.00150684,-0.00063682,-0.00000044,-0.00009946,0.00015563
 ,-0.00000007,-0.00014184,0.00014992,-0.00002046,-0.00014168,0.00014996
 ,0.00002041,0.00003304,-0.00004952,0.00000660,0.00003279,-0.00004944,-
 0.00000656,-0.00013069,-0.00001755,0.00000024,0.29021732,0.10311636,0.
 02177429,-0.00000163,-0.01952866,-0.02118754,0.00000038,-0.07084045,-0
 .00723653,0.00000090,0.01501928,-0.01060882,0.00000038,-0.00177640,0.0
 1077062,-0.00000033,-0.00347824,0.00146314,0.00000021,0.00136235,-0.00
 061454,-0.00000013,-0.00013325,0.00018766,0.00000025,-0.00023305,0.000
 12576,0.00000288,-0.00023297,0.00012605,-0.00000304,0.00005263,-0.0000
 4519,0.00001847,0.00005256,-0.00004486,-0.00001868,-0.00013811,-0.0000
 2192,0.00000012,-0.28000484,0.32003819,-0.00000040,-0.00000081,-0.0401
 2705,0.00000002,0.00000014,0.00434947,0.00000075,0.00000012,0.01158328
 ,-0.00000034,0.00000012,-0.00252889,0.00000009,-0.00000007,0.00125364,
 0.,-0.00000005,-0.00019358,-0.00000003,-0.00000004,-0.00011591,0.00000
 002,-0.00000004,-0.00001179,-0.00000603,0.00000585,0.00001778,0.000006
 05,-0.00000581,0.00001775,0.00001009,0.00001460,0.00000528,-0.00001007
 ,-0.00001459,0.00000524,-0.00000002,0.00000003,0.00000442,-0.00000355,
 0.00000361,0.02890522,0.01092338,-0.01777475,0.00000062,-0.00300123,-0
 .00385179,0.00000009,-0.00147177,-0.00076761,-0.00000141,-0.00075171,-
 0.00842870,0.00000056,0.00259339,0.00476608,0.,0.00134225,0.00160939,-
 0.00000008,-0.00043861,0.00025084,0.00000008,0.00000268,-0.00001134,0.
 00000017,-0.00001857,-0.00003097,0.00002597,-0.00001863,-0.00003096,-0
 .00002593,0.00000845,0.00001555,0.00000439,0.00000855,0.00001560,-0.00
 000450,0.00002823,0.00000316,-0.00000009,-0.24321930,0.25676280,0.0000
 0345,0.23401288,0.01722740,-0.01342404,-0.00000090,-0.00316744,-0.0026
 0226,0.00000004,-0.00133853,0.00081585,0.00000131,-0.00358612,0.002946
 66,-0.00000042,0.00086195,-0.00318776,-0.00000005,0.00111294,-0.000680
 47,0.00000007,-0.00041747,0.00027013,-0.00000017,0.00004820,-0.0000619
 6,-0.00000015,0.00005571,-0.00002956,-0.00000965,0.00005575,-0.0000296
 5,0.00000968,-0.00001731,0.00001332,-0.00000641,-0.00001742,0.00001322
 ,0.00000653,0.00004562,0.00000792,0.00000008,0.22166404,-0.31472631,-0
 .00000306,-0.23252730,0.33067491,-0.00000042,0.00000009,-0.00210132,0.
 00000015,0.00000003,0.00161018,-0.00000009,0.00000023,-0.00012363,0.00
 000023,0.00000001,0.00063053,-0.00000007,-0.00000008,-0.00137861,-0.00
 000004,0.,0.00020380,0.00000003,0.00000002,0.00005085,-0.00000010,0.00
 000007,0.00001124,0.00001227,-0.00001229,-0.00002671,-0.00001228,0.000
 01226,-0.00002668,-0.00000578,-0.00001437,-0.00000397,0.00000577,0.000
 01437,-0.00000394,0.00000009,-0.00000007,-0.00000323,0.00000356,-0.000
 00337,-0.00316486,-0.00000333,0.00000310,0.00432633||-0.04416355,-0.07
 200743,0.00000092,0.00284817,-0.00072526,0.,0.00443608,0.01454942,-0.0
 0000032,-0.00322990,0.00071277,0.00000025,-0.00102513,-0.00130957,-0.0
 0000007,0.00013929,-0.00096824,-0.00000008,-0.00028561,-0.00000161,-0.
 00000067,0.00000755,-0.00003748,0.00000052,0.00004305,-0.00002537,0.00
 000999,0.00004314,-0.00002577,-0.00000940,-0.00000116,0.00000599,-0.00
 000418,-0.00000119,0.00000616,0.00000382,0.00001212,0.00001074,-0.0000
 0004,0.04058955,0.05766787,-0.00000075,0.00058758,0.00214778,0.0000000
 2|||@


 EDUCATION DOESN'T COST 
           ... IT PAYS!

 -- POSTMARK, UNIV. OF MISSISSIPPI, DEC 78
 Job cpu time:       0 days  0 hours 19 minutes 20.0 seconds.
 File lengths (MBytes):  RWF=    153 Int=      0 D2E=      0 Chk=      9 Scr=      1
 Normal termination of Gaussian 09 at Fri Mar 28 02:56:36 2025.
