 Entering Link 1 = C:\G09W\l1.exe PID=      1920.
  
 Copyright (c) 1988,1990,1992,1993,1995,1998,2003,2009,2013,
            Gaussian, Inc.  All Rights Reserved.
  
 This is part of the Gaussian(R) 09 program.  It is based on
 the Gaussian(R) 03 system (copyright 2003, Gaussian, Inc.),
 the Gaussian(R) 98 system (copyright 1998, Gaussian, Inc.),
 the Gaussian(R) 94 system (copyright 1995, Gaussian, Inc.),
 the Gaussian 92(TM) system (copyright 1992, Gaussian, Inc.),
 the Gaussian 90(TM) system (copyright 1990, Gaussian, Inc.),
 the Gaussian 88(TM) system (copyright 1988, Gaussian, Inc.),
 the Gaussian 86(TM) system (copyright 1986, Carnegie Mellon
 University), and the Gaussian 82(TM) system (copyright 1983,
 Carnegie Mellon University). Gaussian is a federally registered
 trademark of Gaussian, Inc.
  
 This software contains proprietary and confidential information,
 including trade secrets, belonging to Gaussian, Inc.
  
 This software is provided under written license and may be
 used, copied, transmitted, or stored only in accord with that
 written license.
  
 The following legend is applicable only to US Government
 contracts under FAR:
  
                    RESTRICTED RIGHTS LEGEND
  
 Use, reproduction and disclosure by the US Government is
 subject to restrictions as set forth in subparagraphs (a)
 and (c) of the Commercial Computer Software - Restricted
 Rights clause in FAR 52.227-19.
  
 Gaussian, Inc.
 340 Quinnipiac St., Bldg. 40, Wallingford CT 06492
  
  
 ---------------------------------------------------------------
 Warning -- This program may not be used in any manner that
 competes with the business of Gaussian, Inc. or will provide
 assistance to any competitor of Gaussian, Inc.  The licensee
 of this program is prohibited from giving any competitor of
 Gaussian, Inc. access to this program.  By using this program,
 the user acknowledges that Gaussian, Inc. is engaged in the
 business of creating and licensing software in the field of
 computational chemistry and represents and warrants to the
 licensee that it is not a competitor of Gaussian, Inc. and that
 it will not use this program in any manner prohibited above.
 ---------------------------------------------------------------
  

 Cite this work as:
 Gaussian 09, Revision D.01,
 M. J. Frisch, G. W. Trucks, H. B. Schlegel, G. E. Scuseria, 
 M. A. Robb, J. R. Cheeseman, G. Scalmani, V. Barone, B. Mennucci, 
 G. A. Petersson, H. Nakatsuji, M. Caricato, X. Li, H. P. Hratchian, 
 A. F. Izmaylov, J. Bloino, G. Zheng, J. L. Sonnenberg, M. Hada, 
 M. Ehara, K. Toyota, R. Fukuda, J. Hasegawa, M. Ishida, T. Nakajima, 
 Y. Honda, O. Kitao, H. Nakai, T. Vreven, J. A. Montgomery, Jr., 
 J. E. Peralta, F. Ogliaro, M. Bearpark, J. J. Heyd, E. Brothers, 
 K. N. Kudin, V. N. Staroverov, T. Keith, R. Kobayashi, J. Normand, 
 K. Raghavachari, A. Rendell, J. C. Burant, S. S. Iyengar, J. Tomasi, 
 M. Cossi, N. Rega, J. M. Millam, M. Klene, J. E. Knox, J. B. Cross, 
 V. Bakken, C. Adamo, J. Jaramillo, R. Gomperts, R. E. Stratmann, 
 O. Yazyev, A. J. Austin, R. Cammi, C. Pomelli, J. W. Ochterski, 
 R. L. Martin, K. Morokuma, V. G. Zakrzewski, G. A. Voth, 
 P. Salvador, J. J. Dannenberg, S. Dapprich, A. D. Daniels, 
 O. Farkas, J. B. Foresman, J. V. Ortiz, J. Cioslowski, 
 and D. J. Fox, Gaussian, Inc., Wallingford CT, 2013.
 
 ******************************************
 Gaussian 09:  IA32W-G09RevD.01 24-Apr-2013
                28-Mar-2025 
 ******************************************
 %chk=ethyl_propiolate.chk
 %nprocshared=4
 Will use up to    4 processors via shared memory.
 %mem=1700MB
 --------------------------
 # freq 6-311++g(d,p) m062x
 --------------------------
 1/10=4,30=1,38=1/1,3;
 2/12=2,17=6,18=5,40=1/2;
 3/5=4,6=6,7=1111,11=2,16=1,25=1,30=1,71=2,74=-55,140=1/1,2,3;
 4//1;
 5/5=2,38=5,98=1/2;
 8/6=4,10=90,11=11/1;
 11/6=1,8=1,9=11,15=111,16=1/1,2,10;
 10/6=1/2;
 6/7=2,8=2,9=2,10=2,18=1,28=1/1;
 7/8=1,10=1,25=1/1,2,3,16;
 1/10=4,30=1/3;
 99//99;
 -------------------
 Title Card Required
 -------------------
 Symbolic Z-matrix:
 Charge =  0 Multiplicity = 2
 C                     2.23881  -1.22108   0. 
 H                     3.09216  -1.86032   0.00001 
 C                     1.13382  -0.72931   0.00001 
 C                     0.00955   0.19251   0.00001 
 O                     0.16618   1.38531   0.00001 
 O                    -1.1621   -0.42855  0. 
 C                    -2.32359   0.42836  0. 
 C                    -3.53819  -0.46958  -0.00001 
 H                    -2.2798    1.06763   0.88391 
 H                    -2.2798    1.06763  -0.88391 
 H                    -3.54661  -1.10522  -0.88617 
 H                    -3.54662  -1.10522   0.88616 
 H                    -4.4436    0.13952  -0.00001 
 O                     3.49726   0.43416  -0.00001 
 H                     2.83054   1.14267  -0.00001 
 

 GradGradGradGradGradGradGradGradGradGradGradGradGradGradGradGradGradGrad
 Berny optimization.
 Initialization pass.
 Trust Radius=3.00D-01 FncErr=1.00D-07 GrdErr=1.00D-07
 Number of steps in this run=      2 maximum allowed number of steps=      2.
 GradGradGradGradGradGradGradGradGradGradGradGradGradGradGradGradGradGrad

                          Input orientation:                          
 ---------------------------------------------------------------------
 Center     Atomic      Atomic             Coordinates (Angstroms)
 Number     Number       Type             X           Y           Z
 ---------------------------------------------------------------------
      1          6           0        2.238805   -1.221078    0.000004
      2          1           0        3.092161   -1.860316    0.000005
      3          6           0        1.133816   -0.729309    0.000005
      4          6           0        0.009550    0.192509    0.000005
      5          8           0        0.166178    1.385306    0.000009
      6          8           0       -1.162103   -0.428550   -0.000001
      7          6           0       -2.323589    0.428362   -0.000002
      8          6           0       -3.538189   -0.469583   -0.000005
      9          1           0       -2.279799    1.067626    0.883909
     10          1           0       -2.279796    1.067627   -0.883912
     11          1           0       -3.546612   -1.105215   -0.886170
     12          1           0       -3.546615   -1.105216    0.886160
     13          1           0       -4.443598    0.139524   -0.000006
     14          8           0        3.497257    0.434160   -0.000012
     15          1           0        2.830540    1.142671   -0.000010
 ---------------------------------------------------------------------
                    Distance matrix (angstroms):
                    1          2          3          4          5
     1  C    0.000000
     2  H    1.066228   0.000000
     3  C    1.209478   2.261480   0.000000
     4  C    2.639660   3.703590   1.453865   0.000000
     5  O    3.330018   4.369833   2.325493   1.203037   0.000000
     6  O    3.492030   4.488732   2.315535   1.326079   2.248200
     7  C    4.851401   5.879489   3.646073   2.345030   2.667336
     8  C    5.825668   6.774635   4.679219   3.608991   4.142819
     9  H    5.141715   6.181592   3.957654   2.605424   2.620115
    10  H    5.141715   6.181592   3.957655   2.605426   2.620119
    11  H    5.854039   6.740088   4.778391   3.887889   4.557721
    12  H    5.854040   6.740089   4.778390   3.887888   4.557718
    13  H    6.819512   7.796603   5.644680   4.453463   4.775145
    14  O    2.079306   2.329962   2.634296   3.496069   3.464212
    15  H    2.436690   3.014362   2.526496   2.976708   2.675387
                    6          7          8          9         10
     6  O    0.000000
     7  C    1.443381   0.000000
     8  C    2.376440   1.510483   0.000000
     9  H    2.066176   1.091730   2.174364   0.000000
    10  H    2.066176   1.091730   2.174364   1.767821   0.000000
    11  H    2.632310   2.152426   1.090590   3.075587   2.515168
    12  H    2.632310   2.152426   1.090591   2.515168   3.075586
    13  H    3.330303   2.139595   1.091227   2.514897   2.514896
    14  O    4.738555   5.820849   7.093254   5.878518   5.878512
    15  H    4.290680   5.203391   6.569633   5.186763   5.186757
                   11         12         13         14         15
    11  H    0.000000
    12  H    1.772330   0.000000
    13  H    1.771792   1.771792   0.000000
    14  O    7.264368   7.264373   7.946319   0.000000
    15  H    6.819556   6.819560   7.342982   0.972882   0.000000
 Stoichiometry    C5H7O3(2)
 Framework group  C1[X(C5H7O3)]
 Deg. of freedom    39
 Full point group                 C1      NOp   1
 Largest Abelian subgroup         C1      NOp   1
 Largest concise Abelian subgroup C1      NOp   1
                         Standard orientation:                         
 ---------------------------------------------------------------------
 Center     Atomic      Atomic             Coordinates (Angstroms)
 Number     Number       Type             X           Y           Z
 ---------------------------------------------------------------------
      1          6           0       -2.319623   -1.219285   -0.000004
      2          1           0       -3.172024   -1.859796   -0.000005
      3          6           0       -1.215369   -0.725868   -0.000005
      4          6           0       -0.092479    0.197626   -0.000005
      5          8           0       -0.250887    1.390188   -0.000009
      6          8           0        1.080099   -0.421684    0.000001
      7          6           0        2.240305    0.436960    0.000002
      8          6           0        3.456243   -0.459171    0.000005
      9          1           0        2.195561    1.076158   -0.883909
     10          1           0        2.195558    1.076159    0.883912
     11          1           0        3.465615   -1.094790    0.886170
     12          1           0        3.465618   -1.094791   -0.886160
     13          1           0        4.360743    0.151286    0.000006
     14          8           0       -3.580543    0.434073    0.000012
     15          1           0       -2.914884    1.143578    0.000010
 ---------------------------------------------------------------------
 Rotational constants (GHZ):      6.4009115      0.8640982      0.7686352
 Standard basis: 6-311++G(d,p) (5D, 7F)
 There are   233 symmetry adapted cartesian basis functions of A   symmetry.
 There are   225 symmetry adapted basis functions of A   symmetry.
   225 basis functions,   351 primitive gaussians,   233 cartesian basis functions
    31 alpha electrons       30 beta electrons
       nuclear repulsion energy       344.3060252709 Hartrees.
 NAtoms=   15 NActive=   15 NUniq=   15 SFac= 1.00D+00 NAtFMM=   60 NAOKFM=F Big=F
 Integral buffers will be    262144 words long.
 Raffenetti 2 integral format.
 Two-electron integral symmetry is turned on.
 One-electron integrals computed using PRISM.
 NBasis=   225 RedAO= T EigKep=  2.17D-06  NBF=   225
 NBsUse=   225 1.00D-06 EigRej= -1.00D+00 NBFU=   225
 ExpMin= 3.60D-02 ExpMax= 8.59D+03 ExpMxC= 1.30D+03 IAcc=3 IRadAn=         5 AccDes= 0.00D+00
 Harris functional with IExCor= 1009 and IRadAn=       5 diagonalized for initial guess.
 HarFok:  IExCor= 1009 AccDes= 0.00D+00 IRadAn=         5 IDoV= 1 UseB2=F ITyADJ=14
 ICtDFT=  3500011 ScaDFX=  1.000000  1.000000  1.000000  1.000000
 FoFCou: FMM=F IPFlag=           0 FMFlag=      100000 FMFlg1=           0
         NFxFlg=           0 DoJE=T BraDBF=F KetDBF=T FulRan=T
         wScrn=  0.000000 ICntrl=     500 IOpCl=  0 I1Cent=   200000004 NGrid=           0
         NMat0=    1 NMatS0=      1 NMatT0=    0 NMatD0=    1 NMtDS0=    0 NMtDT0=    0
 Petite list used in FoFCou.
 Initial guess <Sx>= 0.0000 <Sy>= 0.0000 <Sz>= 0.5000 <S**2>= 0.7500 S= 0.5000
 Requested convergence on RMS density matrix=1.00D-08 within 128 cycles.
 Requested convergence on MAX density matrix=1.00D-06.
 Requested convergence on             energy=1.00D-06.
 No special actions if energy rises.
 SCF Done:  E(UM062X) =  -420.206008228     A.U. after   20 cycles
            NFock= 20  Conv=0.90D-08     -V/T= 2.0032
 <Sx>= 0.0000 <Sy>= 0.0000 <Sz>= 0.5000 <S**2>= 0.7669 S= 0.5084
 <L.S>= 0.000000000000E+00
 Annihilation of the first spin contaminant:
 S**2 before annihilation     0.7669,   after     0.7501
 DoSCS=F DFT=T ScalE2(SS,OS)=  1.000000  1.000000
 Range of M.O.s used for correlation:     1   225
 NBasis=   225 NAE=    31 NBE=    30 NFC=     0 NFV=     0
 NROrb=    225 NOA=    31 NOB=    30 NVA=   194 NVB=   195

 **** Warning!!: The largest alpha MO coefficient is  0.20349975D+03


 **** Warning!!: The largest beta MO coefficient is  0.19754641D+03

 Symmetrizing basis deriv contribution to polar:
 IMax=3 JMax=2 DiffMx= 0.00D+00
 G2DrvN: will do    16 centers at a time, making    1 passes.
 Calling FoFCou, ICntrl=  3107 FMM=F I1Cent=   0 AccDes= 0.00D+00.
 End of G2Drv F.D. properties file   721 does not exist.
 End of G2Drv F.D. properties file   722 does not exist.
 End of G2Drv F.D. properties file   788 does not exist.
          IDoAtm=111111111111111
          Differentiating once with respect to electric field.
                with respect to dipole field.
          Differentiating once with respect to nuclear coordinates.
          There are    48 degrees of freedom in the 1st order CPHF.  IDoFFX=6 NUNeed=     3.
     48 vectors produced by pass  0 Test12= 2.47D-14 2.08D-09 XBig12= 1.11D+02 4.46D+00.
 AX will form    48 AO Fock derivatives at one time.
     45 vectors produced by pass  1 Test12= 2.47D-14 2.08D-09 XBig12= 2.87D+01 9.99D-01.
     45 vectors produced by pass  2 Test12= 2.47D-14 2.08D-09 XBig12= 1.09D+00 1.40D-01.
     45 vectors produced by pass  3 Test12= 2.47D-14 2.08D-09 XBig12= 1.45D-02 1.90D-02.
     45 vectors produced by pass  4 Test12= 2.47D-14 2.08D-09 XBig12= 1.88D-04 2.40D-03.
     45 vectors produced by pass  5 Test12= 2.47D-14 2.08D-09 XBig12= 2.82D-06 2.92D-04.
     38 vectors produced by pass  6 Test12= 2.47D-14 2.08D-09 XBig12= 2.07D-08 1.32D-05.
     23 vectors produced by pass  7 Test12= 2.47D-14 2.08D-09 XBig12= 1.23D-10 1.19D-06.
      7 vectors produced by pass  8 Test12= 2.47D-14 2.08D-09 XBig12= 2.33D-12 2.29D-07.
      6 vectors produced by pass  9 Test12= 2.47D-14 2.08D-09 XBig12= 4.25D-13 9.37D-08.
      6 vectors produced by pass 10 Test12= 2.47D-14 2.08D-09 XBig12= 8.05D-14 4.46D-08.
      6 vectors produced by pass 11 Test12= 2.47D-14 2.08D-09 XBig12= 1.05D-14 1.16D-08.
      6 vectors produced by pass 12 Test12= 2.47D-14 2.08D-09 XBig12= 1.78D-15 6.08D-09.
      6 vectors produced by pass 13 Test12= 2.47D-14 2.08D-09 XBig12= 2.50D-15 6.58D-09.
      6 vectors produced by pass 14 Test12= 2.47D-14 2.08D-09 XBig12= 1.06D-15 4.37D-09.
      6 vectors produced by pass 15 Test12= 2.47D-14 2.08D-09 XBig12= 9.46D-16 4.23D-09.
      6 vectors produced by pass 16 Test12= 2.47D-14 2.08D-09 XBig12= 8.13D-16 4.32D-09.
      6 vectors produced by pass 17 Test12= 2.47D-14 2.08D-09 XBig12= 1.57D-15 6.91D-09.
      6 vectors produced by pass 18 Test12= 2.47D-14 2.08D-09 XBig12= 1.45D-15 5.15D-09.
      6 vectors produced by pass 19 Test12= 2.47D-14 2.08D-09 XBig12= 9.87D-16 3.73D-09.
      5 vectors produced by pass 20 Test12= 2.47D-14 2.08D-09 XBig12= 6.39D-16 3.69D-09.
      4 vectors produced by pass 21 Test12= 2.47D-14 2.08D-09 XBig12= 5.82D-16 2.76D-09.
      4 vectors produced by pass 22 Test12= 2.47D-14 2.08D-09 XBig12= 8.37D-16 4.38D-09.
      4 vectors produced by pass 23 Test12= 2.47D-14 2.08D-09 XBig12= 7.05D-16 3.90D-09.
      4 vectors produced by pass 24 Test12= 2.47D-14 2.08D-09 XBig12= 9.44D-16 3.33D-09.
      3 vectors produced by pass 25 Test12= 2.47D-14 2.08D-09 XBig12= 5.55D-16 2.85D-09.
      2 vectors produced by pass 26 Test12= 2.47D-14 2.08D-09 XBig12= 5.80D-16 2.95D-09.
      2 vectors produced by pass 27 Test12= 2.47D-14 2.08D-09 XBig12= 3.99D-16 2.47D-09.
      1 vectors produced by pass 28 Test12= 2.47D-14 2.08D-09 XBig12= 4.70D-16 2.39D-09.
 InvSVY:  IOpt=1 It=  1 EMax= 5.33D-15
 Solved reduced A of dimension   436 with    48 vectors.
 Isotropic polarizability for W=    0.000000       75.54 Bohr**3.
 End of Minotr F.D. properties file   721 does not exist.
 End of Minotr F.D. properties file   722 does not exist.
 End of Minotr F.D. properties file   788 does not exist.

 **********************************************************************

            Population analysis using the SCF density.

 **********************************************************************

 Orbital symmetries:
 Alpha Orbitals:
       Occupied  (A) (A) (A) (A) (A) (A) (A) (A) (A) (A) (A) (A)
                 (A) (A) (A) (A) (A) (A) (A) (A) (A) (A) (A) (A)
                 (A) (A) (A) (A) (A) (A) (A)
       Virtual   (A) (A) (A) (A) (A) (A) (A) (A) (A) (A) (A) (A)
                 (A) (A) (A) (A) (A) (A) (A) (A) (A) (A) (A) (A)
                 (A) (A) (A) (A) (A) (A) (A) (A) (A) (A) (A) (A)
                 (A) (A) (A) (A) (A) (A) (A) (A) (A) (A) (A) (A)
                 (A) (A) (A) (A) (A) (A) (A) (A) (A) (A) (A) (A)
                 (A) (A) (A) (A) (A) (A) (A) (A) (A) (A) (A) (A)
                 (A) (A) (A) (A) (A) (A) (A) (A) (A) (A) (A) (A)
                 (A) (A) (A) (A) (A) (A) (A) (A) (A) (A) (A) (A)
                 (A) (A) (A) (A) (A) (A) (A) (A) (A) (A) (A) (A)
                 (A) (A) (A) (A) (A) (A) (A) (A) (A) (A) (A) (A)
                 (A) (A) (A) (A) (A) (A) (A) (A) (A) (A) (A) (A)
                 (A) (A) (A) (A) (A) (A) (A) (A) (A) (A) (A) (A)
                 (A) (A) (A) (A) (A) (A) (A) (A) (A) (A) (A) (A)
                 (A) (A) (A) (A) (A) (A) (A) (A) (A) (A) (A) (A)
                 (A) (A) (A) (A) (A) (A) (A) (A) (A) (A) (A) (A)
                 (A) (A) (A) (A) (A) (A) (A) (A) (A) (A) (A) (A)
                 (A) (A)
 Beta  Orbitals:
       Occupied  (A) (A) (A) (A) (A) (A) (A) (A) (A) (A) (A) (A)
                 (A) (A) (A) (A) (A) (A) (A) (A) (A) (A) (A) (A)
                 (A) (A) (A) (A) (A) (A)
       Virtual   (A) (A) (A) (A) (A) (A) (A) (A) (A) (A) (A) (A)
                 (A) (A) (A) (A) (A) (A) (A) (A) (A) (A) (A) (A)
                 (A) (A) (A) (A) (A) (A) (A) (A) (A) (A) (A) (A)
                 (A) (A) (A) (A) (A) (A) (A) (A) (A) (A) (A) (A)
                 (A) (A) (A) (A) (A) (A) (A) (A) (A) (A) (A) (A)
                 (A) (A) (A) (A) (A) (A) (A) (A) (A) (A) (A) (A)
                 (A) (A) (A) (A) (A) (A) (A) (A) (A) (A) (A) (A)
                 (A) (A) (A) (A) (A) (A) (A) (A) (A) (A) (A) (A)
                 (A) (A) (A) (A) (A) (A) (A) (A) (A) (A) (A) (A)
                 (A) (A) (A) (A) (A) (A) (A) (A) (A) (A) (A) (A)
                 (A) (A) (A) (A) (A) (A) (A) (A) (A) (A) (A) (A)
                 (A) (A) (A) (A) (A) (A) (A) (A) (A) (A) (A) (A)
                 (A) (A) (A) (A) (A) (A) (A) (A) (A) (A) (A) (A)
                 (A) (A) (A) (A) (A) (A) (A) (A) (A) (A) (A) (A)
                 (A) (A) (A) (A) (A) (A) (A) (A) (A) (A) (A) (A)
                 (A) (A) (A) (A) (A) (A) (A) (A) (A) (A) (A) (A)
                 (A) (A) (A)
 The electronic state is 2-A.
 Alpha  occ. eigenvalues --  -19.69525 -19.65421 -19.64407 -10.71716 -10.61511
 Alpha  occ. eigenvalues --  -10.59267 -10.57942 -10.54754  -1.26948  -1.17578
 Alpha  occ. eigenvalues --   -1.11375  -0.91729  -0.88503  -0.78491  -0.70955
 Alpha  occ. eigenvalues --   -0.66785  -0.61883  -0.60286  -0.58848  -0.53153
 Alpha  occ. eigenvalues --   -0.52640  -0.50267  -0.49478  -0.47708  -0.45078
 Alpha  occ. eigenvalues --   -0.44374  -0.41674  -0.40246  -0.39801  -0.37321
 Alpha  occ. eigenvalues --   -0.34085
 Alpha virt. eigenvalues --   -0.02338  -0.00652   0.00791   0.01616   0.01839
 Alpha virt. eigenvalues --    0.02520   0.03401   0.05248   0.05316   0.06366
 Alpha virt. eigenvalues --    0.06648   0.06899   0.08071   0.08785   0.09962
 Alpha virt. eigenvalues --    0.10305   0.12354   0.12369   0.12626   0.12908
 Alpha virt. eigenvalues --    0.13033   0.13970   0.14351   0.14523   0.15653
 Alpha virt. eigenvalues --    0.17330   0.17465   0.17902   0.18725   0.20119
 Alpha virt. eigenvalues --    0.20565   0.22466   0.22501   0.23092   0.23200
 Alpha virt. eigenvalues --    0.23737   0.24988   0.26112   0.28242   0.29460
 Alpha virt. eigenvalues --    0.30639   0.30722   0.31235   0.31551   0.32033
 Alpha virt. eigenvalues --    0.33245   0.34862   0.35282   0.37794   0.38741
 Alpha virt. eigenvalues --    0.40307   0.43201   0.45146   0.45321   0.49741
 Alpha virt. eigenvalues --    0.51048   0.52561   0.54075   0.55564   0.57977
 Alpha virt. eigenvalues --    0.61892   0.63028   0.63127   0.65594   0.67227
 Alpha virt. eigenvalues --    0.67462   0.68743   0.68882   0.68907   0.70041
 Alpha virt. eigenvalues --    0.70531   0.74281   0.75975   0.80187   0.81788
 Alpha virt. eigenvalues --    0.85892   0.88753   0.90337   0.95058   0.99705
 Alpha virt. eigenvalues --    1.02521   1.04570   1.07575   1.07779   1.10721
 Alpha virt. eigenvalues --    1.12257   1.15027   1.16664   1.18645   1.19755
 Alpha virt. eigenvalues --    1.21973   1.23456   1.28191   1.28544   1.29635
 Alpha virt. eigenvalues --    1.32051   1.34011   1.37307   1.42905   1.43114
 Alpha virt. eigenvalues --    1.46327   1.48998   1.49298   1.51039   1.54349
 Alpha virt. eigenvalues --    1.57278   1.58171   1.58488   1.61345   1.62256
 Alpha virt. eigenvalues --    1.65478   1.68786   1.69245   1.70035   1.75851
 Alpha virt. eigenvalues --    1.77184   1.81739   1.84591   1.85809   1.87408
 Alpha virt. eigenvalues --    1.92873   1.95260   2.01146   2.01547   2.03813
 Alpha virt. eigenvalues --    2.12672   2.13344   2.15443   2.19486   2.26518
 Alpha virt. eigenvalues --    2.35585   2.38639   2.43417   2.48490   2.50557
 Alpha virt. eigenvalues --    2.53778   2.57919   2.60349   2.61895   2.63934
 Alpha virt. eigenvalues --    2.64691   2.66874   2.66966   2.71043   2.71884
 Alpha virt. eigenvalues --    2.80049   2.83536   2.86306   2.87530   2.88471
 Alpha virt. eigenvalues --    2.95258   2.95305   2.96855   3.00311   3.03950
 Alpha virt. eigenvalues --    3.10262   3.11287   3.14949   3.18392   3.20014
 Alpha virt. eigenvalues --    3.24124   3.27228   3.30104   3.34399   3.39354
 Alpha virt. eigenvalues --    3.42267   3.52507   3.66359   3.74472   3.83084
 Alpha virt. eigenvalues --    3.84861   3.84959   3.89903   4.07087   4.12604
 Alpha virt. eigenvalues --    4.16910   4.29461   5.06577   5.10857   5.13003
 Alpha virt. eigenvalues --    5.14798   5.32640   5.44634   5.58092   5.73081
 Alpha virt. eigenvalues --    5.93985  23.63014  23.91468  23.94279  24.04884
 Alpha virt. eigenvalues --   25.04588  49.95302  49.99353  50.11285
  Beta  occ. eigenvalues --  -19.69514 -19.64370 -19.63961 -10.71734 -10.61509
  Beta  occ. eigenvalues --  -10.59316 -10.57733 -10.54754  -1.26899  -1.17477
  Beta  occ. eigenvalues --   -1.04888  -0.91267  -0.88041  -0.78375  -0.70818
  Beta  occ. eigenvalues --   -0.66683  -0.61503  -0.60243  -0.58710  -0.52549
  Beta  occ. eigenvalues --   -0.50439  -0.50155  -0.47886  -0.45006  -0.44344
  Beta  occ. eigenvalues --   -0.40965  -0.39788  -0.39614  -0.37574  -0.35702
  Beta virt. eigenvalues --   -0.08728  -0.02293  -0.00635   0.00976   0.01710
  Beta virt. eigenvalues --    0.01840   0.02701   0.03763   0.05259   0.06153
  Beta virt. eigenvalues --    0.06470   0.06770   0.06966   0.08712   0.08915
  Beta virt. eigenvalues --    0.10262   0.10391   0.12454   0.12544   0.12761
  Beta virt. eigenvalues --    0.12994   0.13320   0.14169   0.14302   0.14527
  Beta virt. eigenvalues --    0.16022   0.17496   0.17697   0.18043   0.18812
  Beta virt. eigenvalues --    0.20115   0.20489   0.22584   0.22865   0.23334
  Beta virt. eigenvalues --    0.23511   0.23613   0.25195   0.26193   0.27937
  Beta virt. eigenvalues --    0.29201   0.30499   0.30608   0.31248   0.31606
  Beta virt. eigenvalues --    0.32166   0.33330   0.34847   0.35536   0.37874
  Beta virt. eigenvalues --    0.38980   0.40292   0.43201   0.45146   0.45593
  Beta virt. eigenvalues --    0.49768   0.51122   0.52562   0.54226   0.55580
  Beta virt. eigenvalues --    0.58114   0.61922   0.62994   0.63765   0.65705
  Beta virt. eigenvalues --    0.67564   0.67757   0.68805   0.68899   0.69029
  Beta virt. eigenvalues --    0.70061   0.70594   0.74276   0.76108   0.80218
  Beta virt. eigenvalues --    0.81905   0.85988   0.88970   0.90393   0.95198
  Beta virt. eigenvalues --    1.00060   1.02544   1.05885   1.07876   1.08484
  Beta virt. eigenvalues --    1.11017   1.13520   1.15284   1.17425   1.19054
  Beta virt. eigenvalues --    1.20108   1.22010   1.23578   1.28546   1.28933
  Beta virt. eigenvalues --    1.29676   1.32210   1.35339   1.37338   1.43285
  Beta virt. eigenvalues --    1.43806   1.46315   1.49298   1.49399   1.52061
  Beta virt. eigenvalues --    1.54718   1.57280   1.58193   1.58641   1.61555
  Beta virt. eigenvalues --    1.62342   1.65503   1.68806   1.69591   1.70054
  Beta virt. eigenvalues --    1.75856   1.77230   1.82880   1.84657   1.86024
  Beta virt. eigenvalues --    1.87558   1.92864   1.95519   2.01147   2.01932
  Beta virt. eigenvalues --    2.03886   2.12716   2.14297   2.15776   2.19499
  Beta virt. eigenvalues --    2.26520   2.35610   2.38732   2.43829   2.48493
  Beta virt. eigenvalues --    2.50578   2.53784   2.57921   2.60342   2.61905
  Beta virt. eigenvalues --    2.63927   2.64589   2.66852   2.66921   2.70876
  Beta virt. eigenvalues --    2.72080   2.80264   2.83841   2.87378   2.88549
  Beta virt. eigenvalues --    2.92725   2.95555   2.96900   2.98452   3.00470
  Beta virt. eigenvalues --    3.04610   3.11344   3.11364   3.16584   3.20147
  Beta virt. eigenvalues --    3.21226   3.26470   3.27225   3.30285   3.34542
  Beta virt. eigenvalues --    3.39537   3.42308   3.52576   3.66472   3.74669
  Beta virt. eigenvalues --    3.83090   3.84862   3.84962   3.93097   4.07160
  Beta virt. eigenvalues --    4.12664   4.17213   4.29490   5.08397   5.10900
  Beta virt. eigenvalues --    5.14863   5.21285   5.32904   5.44681   5.60484
  Beta virt. eigenvalues --    5.73171   5.94018  23.63065  23.91477  23.94294
  Beta virt. eigenvalues --   24.04884  25.04725  49.94788  49.99348  50.11254
          Condensed to atoms (all electrons):
               1          2          3          4          5          6
     1  C   22.485053   0.647441  -8.081018  -8.188993   0.415490   0.335214
     2  H    0.647441   0.420015  -0.230070  -0.019504   0.000286   0.001826
     3  C   -8.081018  -0.230070  16.233892  -3.421747   0.299080  -0.093177
     4  C   -8.188993  -0.019504  -3.421747  18.782470  -0.359264  -0.598756
     5  O    0.415490   0.000286   0.299080  -0.359264   8.094124  -0.127824
     6  O    0.335214   0.001826  -0.093177  -0.598756  -0.127824   8.462500
     7  C    0.229748   0.003777  -0.409741  -0.242490  -0.055886   0.285490
     8  C   -0.061695  -0.000254  -0.142227   0.323155   0.007475  -0.211757
     9  H    0.002402   0.000050  -0.013150  -0.010468  -0.012163  -0.031749
    10  H    0.002402   0.000050  -0.013151  -0.010468  -0.012163  -0.031749
    11  H   -0.000666  -0.000002   0.007271  -0.008190  -0.001189  -0.008588
    12  H   -0.000666  -0.000002   0.007271  -0.008191  -0.001189  -0.008588
    13  H   -0.000350  -0.000007   0.003625   0.000817   0.001190   0.022276
    14  O    0.074312  -0.024620  -0.131048  -0.012329   0.002219  -0.003278
    15  H    0.048105   0.004796  -0.010041  -0.037527   0.008330   0.000059
               7          8          9         10         11         12
     1  C    0.229748  -0.061695   0.002402   0.002402  -0.000666  -0.000666
     2  H    0.003777  -0.000254   0.000050   0.000050  -0.000002  -0.000002
     3  C   -0.409741  -0.142227  -0.013150  -0.013151   0.007271   0.007271
     4  C   -0.242490   0.323155  -0.010468  -0.010468  -0.008190  -0.008191
     5  O   -0.055886   0.007475  -0.012163  -0.012163  -0.001189  -0.001189
     6  O    0.285490  -0.211757  -0.031749  -0.031749  -0.008588  -0.008588
     7  C    5.451208   0.098488   0.435357   0.435357  -0.020757  -0.020757
     8  C    0.098488   5.510357  -0.050267  -0.050267   0.393281   0.393281
     9  H    0.435357  -0.050267   0.532158  -0.050442   0.006799  -0.010639
    10  H    0.435357  -0.050267  -0.050442   0.532158  -0.010639   0.006799
    11  H   -0.020757   0.393281   0.006799  -0.010639   0.535962  -0.039555
    12  H   -0.020757   0.393281  -0.010639   0.006799  -0.039555   0.535962
    13  H   -0.056018   0.410861  -0.004403  -0.004403  -0.031005  -0.031005
    14  O    0.000558   0.000002  -0.000066  -0.000066  -0.000008  -0.000008
    15  H   -0.001300   0.000311  -0.000045  -0.000045  -0.000027  -0.000027
              13         14         15
     1  C   -0.000350   0.074312   0.048105
     2  H   -0.000007  -0.024620   0.004796
     3  C    0.003625  -0.131048  -0.010041
     4  C    0.000817  -0.012329  -0.037527
     5  O    0.001190   0.002219   0.008330
     6  O    0.022276  -0.003278   0.000059
     7  C   -0.056018   0.000558  -0.001300
     8  C    0.410861   0.000002   0.000311
     9  H   -0.004403  -0.000066  -0.000045
    10  H   -0.004403  -0.000066  -0.000045
    11  H   -0.031005  -0.000008  -0.000027
    12  H   -0.031005  -0.000008  -0.000027
    13  H    0.519962  -0.000006   0.000001
    14  O   -0.000006   8.113372   0.263782
    15  H    0.000001   0.263782   0.468111
          Atomic-Atomic Spin Densities.
               1          2          3          4          5          6
     1  C    0.529707   0.047965  -0.525094  -0.275175   0.031817  -0.001547
     2  H    0.047965   0.012212  -0.044021  -0.002383   0.000370  -0.000501
     3  C   -0.525094  -0.044021   0.888173   0.133435  -0.027782  -0.005545
     4  C   -0.275175  -0.002383   0.133435   0.195032  -0.025603   0.019818
     5  O    0.031817   0.000370  -0.027782  -0.025603   0.029245  -0.001504
     6  O   -0.001547  -0.000501  -0.005545   0.019818  -0.001504  -0.006908
     7  C    0.038085   0.000560  -0.017197  -0.040000  -0.000739  -0.002624
     8  C   -0.001453  -0.000047   0.001100   0.006599   0.000484   0.001291
     9  H   -0.001193  -0.000007   0.000338   0.001450   0.000114   0.000078
    10  H   -0.001193  -0.000007   0.000338   0.001450   0.000114   0.000078
    11  H   -0.000308  -0.000002  -0.000484   0.000994  -0.000023  -0.000169
    12  H   -0.000308  -0.000002  -0.000484   0.000994  -0.000023  -0.000169
    13  H    0.000378  -0.000001   0.000065  -0.000881  -0.000035  -0.000106
    14  O    0.113668   0.005235  -0.194123  -0.032595   0.004583  -0.001014
    15  H   -0.022178  -0.000647   0.010286   0.019102  -0.000974   0.000115
               7          8          9         10         11         12
     1  C    0.038085  -0.001453  -0.001193  -0.001193  -0.000308  -0.000308
     2  H    0.000560  -0.000047  -0.000007  -0.000007  -0.000002  -0.000002
     3  C   -0.017197   0.001100   0.000338   0.000338  -0.000484  -0.000484
     4  C   -0.040000   0.006599   0.001450   0.001450   0.000994   0.000994
     5  O   -0.000739   0.000484   0.000114   0.000114  -0.000023  -0.000023
     6  O   -0.002624   0.001291   0.000078   0.000078  -0.000169  -0.000169
     7  C    0.030763  -0.010031  -0.001469  -0.001469  -0.000341  -0.000341
     8  C   -0.010031   0.003987   0.000823   0.000823   0.000180   0.000180
     9  H   -0.001469   0.000823   0.000264  -0.000286   0.000052  -0.000063
    10  H   -0.001469   0.000823  -0.000286   0.000264  -0.000063   0.000052
    11  H   -0.000341   0.000180   0.000052  -0.000063   0.000075  -0.000019
    12  H   -0.000341   0.000180  -0.000063   0.000052  -0.000019   0.000075
    13  H    0.001353  -0.001043   0.000009   0.000009  -0.000006  -0.000006
    14  O    0.001358  -0.000087  -0.000003  -0.000003  -0.000001  -0.000001
    15  H   -0.000615   0.000161   0.000019   0.000019   0.000002   0.000002
              13         14         15
     1  C    0.000378   0.113668  -0.022178
     2  H   -0.000001   0.005235  -0.000647
     3  C    0.000065  -0.194123   0.010286
     4  C   -0.000881  -0.032595   0.019102
     5  O   -0.000035   0.004583  -0.000974
     6  O   -0.000106  -0.001014   0.000115
     7  C    0.001353   0.001358  -0.000615
     8  C   -0.001043  -0.000087   0.000161
     9  H    0.000009  -0.000003   0.000019
    10  H    0.000009  -0.000003   0.000019
    11  H   -0.000006  -0.000001   0.000002
    12  H   -0.000006  -0.000001   0.000002
    13  H    0.000203  -0.000001  -0.000005
    14  O   -0.000001   0.927780   0.007529
    15  H   -0.000005   0.007529  -0.029837
 Mulliken charges and spin densities:
               1          2
     1  C   -1.906779  -0.066829
     2  H    0.196218   0.018727
     3  C    1.994232   0.219006
     4  C   -0.188512   0.002237
     5  O   -0.258517   0.010045
     6  O    0.008099   0.001295
     7  C   -0.133035  -0.002708
     8  C   -0.620747   0.002967
     9  H    0.206625   0.000126
    10  H    0.206625   0.000126
    11  H    0.177313  -0.000113
    12  H    0.177313  -0.000113
    13  H    0.168465  -0.000067
    14  O   -0.282818   0.832322
    15  H    0.255517  -0.017021
 Sum of Mulliken charges =   0.00000   1.00000
 Mulliken charges and spin densities with hydrogens summed into heavy atoms:
               1          2
     1  C   -1.710561  -0.048102
     3  C    1.994232   0.219006
     4  C   -0.188512   0.002237
     5  O   -0.258517   0.010045
     6  O    0.008099   0.001295
     7  C    0.280216  -0.002455
     8  C   -0.097657   0.002674
    14  O   -0.027301   0.815301
 APT charges:
               1
     1  C   -0.352867
     2  H    0.254594
     3  C   -0.289375
     4  C    1.542094
     5  O   -0.793923
     6  O   -1.012696
     7  C    0.560104
     8  C    0.004130
     9  H   -0.026478
    10  H   -0.026614
    11  H    0.013643
    12  H    0.013602
    13  H    0.007182
    14  O   -0.174369
    15  H    0.280973
 Sum of APT charges =   0.00000
 APT charges with hydrogens summed into heavy atoms:
               1
     1  C   -0.098273
     3  C   -0.289375
     4  C    1.542094
     5  O   -0.793923
     6  O   -1.012696
     7  C    0.507012
     8  C    0.038557
    14  O    0.106604
 Electronic spatial extent (au):  <R**2>=           1434.8652
 Charge=              0.0000 electrons
 Dipole moment (field-independent basis, Debye):
    X=              3.1427    Y=             -1.0910    Z=              0.0000  Tot=              3.3267
 Quadrupole moment (field-independent basis, Debye-Ang):
   XX=            -46.1227   YY=            -47.4789   ZZ=            -47.7542
   XY=              5.3186   XZ=              0.0000   YZ=              0.0000
 Traceless Quadrupole moment (field-independent basis, Debye-Ang):
   XX=              0.9959   YY=             -0.3603   ZZ=             -0.6356
   XY=              5.3186   XZ=              0.0000   YZ=              0.0000
 Octapole moment (field-independent basis, Debye-Ang**2):
  XXX=             47.1999  YYY=              0.0927  ZZZ=              0.0000  XYY=            -15.2697
  XXY=             -9.1108  XXZ=             -0.0002  XZZ=              4.3562  YZZ=              3.1142
  YYZ=              0.0001  XYZ=             -0.0001
 Hexadecapole moment (field-independent basis, Debye-Ang**3):
 XXXX=          -1641.6887 YYYY=           -240.6565 ZZZZ=            -60.9700 XXXY=             58.3573
 XXXZ=              0.0008 YYYX=              3.5224 YYYZ=              0.0001 ZZZX=              0.0001
 ZZZY=              0.0000 XXYY=           -241.6958 XXZZ=           -281.8079 YYZZ=            -49.8430
 XXYZ=              0.0002 YYXZ=              0.0000 ZZXY=             -4.2301
 N-N= 3.443060252709D+02 E-N=-1.673053047350D+03  KE= 4.188623889637D+02
  Exact polarizability: 107.988  -1.953  70.808   0.003   0.008  47.813
 Approx polarizability: 105.918   3.844  86.747   0.000   0.000  56.746
                          Isotropic Fermi Contact Couplings
        Atom                 a.u.       MegaHertz       Gauss      10(-4) cm-1
     1  C(13)              0.01788      20.09937       7.17196       6.70443
     2  H(1)               0.00682      30.46343      10.87011      10.16151
     3  C(13)              0.04182      47.01802      16.77720      15.68352
     4  C(13)             -0.01193     -13.40665      -4.78383      -4.47198
     5  O(17)              0.00590      -3.57553      -1.27584      -1.19267
     6  O(17)              0.01162      -7.04301      -2.51312      -2.34929
     7  C(13)              0.00142       1.59352       0.56861       0.53154
     8  C(13)              0.00003       0.03106       0.01108       0.01036
     9  H(1)               0.00000       0.00661       0.00236       0.00220
    10  H(1)               0.00000       0.00661       0.00236       0.00220
    11  H(1)               0.00000      -0.01825      -0.00651      -0.00609
    12  H(1)               0.00000      -0.01824      -0.00651      -0.00609
    13  H(1)               0.00002       0.09871       0.03522       0.03293
    14  O(17)              0.12353     -74.88088     -26.71936     -24.97757
    15  H(1)              -0.01393     -62.26900     -22.21913     -20.77070
 --------------------------------------------------------
       Center         ----  Spin Dipole Couplings  ----
                      3XX-RR        3YY-RR        3ZZ-RR
 --------------------------------------------------------
     1   Atom        0.033855      0.000083     -0.033938
     2   Atom       -0.010291      0.016722     -0.006430
     3   Atom       -0.015987      0.149147     -0.133160
     4   Atom        0.010490      0.000452     -0.010942
     5   Atom        0.018154     -0.004776     -0.013378
     6   Atom        0.007621     -0.002541     -0.005080
     7   Atom        0.003758     -0.001540     -0.002217
     8   Atom        0.001558     -0.000728     -0.000830
     9   Atom        0.001697     -0.000682     -0.001015
    10   Atom        0.001697     -0.000682     -0.001015
    11   Atom        0.001201     -0.000589     -0.000612
    12   Atom        0.001201     -0.000589     -0.000612
    13   Atom        0.000877     -0.000409     -0.000468
    14   Atom        1.069925      0.578008     -1.647933
    15   Atom        0.043349      0.071707     -0.115057
 --------------------------------------------------------
                        XY            XZ            YZ
 --------------------------------------------------------
     1   Atom        0.053476      0.000000      0.000000
     2   Atom       -0.004007      0.000000      0.000000
     3   Atom       -0.248051     -0.000002      0.000003
     4   Atom        0.003368      0.000000      0.000000
     5   Atom        0.045613     -0.000002     -0.000001
     6   Atom        0.009057      0.000000      0.000000
     7   Atom        0.001707      0.000000      0.000000
     8   Atom       -0.000150      0.000000      0.000000
     9   Atom        0.000826     -0.000687     -0.000335
    10   Atom        0.000826      0.000687      0.000335
    11   Atom       -0.000267      0.000329     -0.000059
    12   Atom       -0.000267     -0.000329      0.000059
    13   Atom        0.000076      0.000000      0.000000
    14   Atom       -2.463113     -0.000028      0.000026
    15   Atom        0.096205     -0.000001      0.000000
 --------------------------------------------------------


 ---------------------------------------------------------------------------------
              Anisotropic Spin Dipole Couplings in Principal Axis System
 ---------------------------------------------------------------------------------

       Atom             a.u.   MegaHertz   Gauss  10(-4) cm-1        Axes

              Baa    -0.0391    -5.248    -1.873    -1.751 -0.5911  0.8066  0.0001
     1 C(13)  Bbb    -0.0339    -4.554    -1.625    -1.519  0.0000 -0.0001  1.0000
              Bcc     0.0730     9.802     3.498     3.270  0.8066  0.5911  0.0000
 
              Baa    -0.0109    -5.801    -2.070    -1.935  0.9896  0.1437  0.0000
     2 H(1)   Bbb    -0.0064    -3.431    -1.224    -1.144  0.0000  0.0000  1.0000
              Bcc     0.0173     9.232     3.294     3.080 -0.1437  0.9896  0.0000
 
              Baa    -0.1949   -26.147    -9.330    -8.722  0.8111  0.5849  0.0000
     3 C(13)  Bbb    -0.1332   -17.869    -6.376    -5.960  0.0000  0.0000  1.0000
              Bcc     0.3280    44.016    15.706    14.682 -0.5849  0.8111  0.0000
 
              Baa    -0.0109    -1.468    -0.524    -0.490  0.0000  0.0000  1.0000
     4 C(13)  Bbb    -0.0006    -0.077    -0.027    -0.026 -0.2913  0.9566  0.0000
              Bcc     0.0115     1.545     0.551     0.515  0.9566  0.2913  0.0000
 
              Baa    -0.0403     2.919     1.042     0.974 -0.6149  0.7886  0.0000
     5 O(17)  Bbb    -0.0134     0.968     0.345     0.323  0.0000  0.0000  1.0000
              Bcc     0.0537    -3.887    -1.387    -1.297  0.7886  0.6149  0.0000
 
              Baa    -0.0078     0.568     0.203     0.189 -0.5054  0.8629 -0.0001
     6 O(17)  Bbb    -0.0051     0.368     0.131     0.123 -0.0001  0.0001  1.0000
              Bcc     0.0129    -0.935    -0.334    -0.312  0.8629  0.5054  0.0000
 
              Baa    -0.0022    -0.298    -0.106    -0.099  0.0000  0.0000  1.0000
     7 C(13)  Bbb    -0.0020    -0.274    -0.098    -0.091 -0.2824  0.9593  0.0000
              Bcc     0.0043     0.572     0.204     0.191  0.9593  0.2824  0.0000
 
              Baa    -0.0008    -0.111    -0.040    -0.037  0.0000  0.0000  1.0000
     8 C(13)  Bbb    -0.0007    -0.099    -0.035    -0.033  0.0651  0.9979  0.0000
              Bcc     0.0016     0.210     0.075     0.070  0.9979 -0.0651  0.0000
 
              Baa    -0.0012    -0.661    -0.236    -0.220  0.1003  0.4008  0.9107
     9 H(1)   Bbb    -0.0009    -0.480    -0.171    -0.160 -0.3658  0.8660 -0.3409
              Bcc     0.0021     1.140     0.407     0.380  0.9253  0.2989 -0.2334
 
              Baa    -0.0012    -0.661    -0.236    -0.220 -0.1003 -0.4008  0.9107
    10 H(1)   Bbb    -0.0009    -0.480    -0.171    -0.160 -0.3658  0.8660  0.3409
              Bcc     0.0021     1.140     0.407     0.380  0.9253  0.2989  0.2334
 
              Baa    -0.0007    -0.359    -0.128    -0.120 -0.1332  0.2483  0.9595
    11 H(1)   Bbb    -0.0006    -0.334    -0.119    -0.111  0.1801  0.9581 -0.2229
              Bcc     0.0013     0.693     0.247     0.231  0.9746 -0.1431  0.1723
 
              Baa    -0.0007    -0.359    -0.128    -0.120  0.1332 -0.2483  0.9595
    12 H(1)   Bbb    -0.0006    -0.334    -0.119    -0.111  0.1801  0.9581  0.2229
              Bcc     0.0013     0.693     0.247     0.231  0.9746 -0.1431 -0.1723
 
              Baa    -0.0005    -0.250    -0.089    -0.083  0.0000  0.0000  1.0000
    13 H(1)   Bbb    -0.0004    -0.220    -0.079    -0.074 -0.0592  0.9982  0.0000
              Bcc     0.0009     0.470     0.168     0.157  0.9982  0.0592  0.0000
 
              Baa    -1.6514   119.494    42.638    39.859  0.6711  0.7414  0.0000
    14 O(17)  Bbb    -1.6479   119.243    42.549    39.775  0.0000  0.0000  1.0000
              Bcc     3.2993  -238.737   -85.187   -79.634  0.7414 -0.6711  0.0000
 
              Baa    -0.1151   -61.389   -21.905   -20.477  0.0000  0.0000  1.0000
    15 H(1)   Bbb    -0.0397   -21.190    -7.561    -7.068  0.7569 -0.6535  0.0000
              Bcc     0.1548    82.579    29.466    27.545  0.6535  0.7569  0.0000
 

 ---------------------------------------------------------------------------------

 Calling FoFJK, ICntrl=    100127 FMM=F ISym2X=0 I1Cent= 0 IOpClX= 1 NMat=1 NMatS=1 NMatT=0.
 Full mass-weighted force constant matrix:
 Low frequencies --- -383.2395  -70.3917  -40.3586   -8.7037   -0.0005    0.0005
 Low frequencies ---    0.0007   22.3504   33.8108
 ******    3 imaginary frequencies (negative Signs) ****** 
 Diagonal vibrational polarizability:
       46.6871890      19.1862130      49.4639605
 Harmonic frequencies (cm**-1), IR intensities (KM/Mole), Raman scattering
 activities (A**4/AMU), depolarization ratios for plane and unpolarized
 incident light, reduced masses (AMU), force constants (mDyne/A),
 and normal coordinates:
                      1                      2                      3
                      A                      A                      A
 Frequencies --   -383.2377               -46.9567               -27.3755
 Red. masses --     12.6653                 7.4731                 6.6207
 Frc consts  --      1.0960                 0.0097                 0.0029
 IR Inten    --     44.8877                 0.5265                 0.4541
  Atom  AN      X      Y      Z        X      Y      Z        X      Y      Z
     1   6    -0.43   0.67   0.00     0.00   0.00   0.22     0.09   0.05   0.00
     2   1     0.04   0.02   0.00     0.00   0.00   0.27     0.19  -0.08   0.00
     3   6     0.00  -0.02   0.00     0.00   0.00   0.21     0.01   0.22   0.00
     4   6     0.00   0.00   0.00     0.00   0.00   0.17     0.06   0.16   0.00
     5   8    -0.01  -0.01   0.00     0.00   0.00   0.29     0.17   0.17   0.00
     6   8     0.00  -0.01   0.00     0.00   0.00   0.00     0.01   0.05   0.00
     7   6     0.00   0.00   0.00     0.00   0.00  -0.04     0.09  -0.07   0.00
     8   6     0.00   0.00   0.00     0.00   0.00  -0.26     0.00  -0.19   0.00
     9   1     0.00   0.00   0.00    -0.09   0.09   0.02     0.15  -0.06   0.00
    10   1     0.00   0.00   0.00     0.10  -0.09   0.02     0.15  -0.06   0.00
    11   1     0.00   0.00   0.00     0.09  -0.09  -0.32    -0.06  -0.19   0.00
    12   1     0.00   0.00   0.00    -0.09   0.09  -0.32    -0.06  -0.19   0.00
    13   1     0.00   0.00   0.00     0.00   0.00  -0.29     0.06  -0.27   0.00
    14   8     0.32  -0.46   0.00     0.00   0.00  -0.46    -0.37  -0.28   0.00
    15   1     0.05  -0.22   0.00     0.00   0.00  -0.29    -0.57  -0.10   0.00
                      4                      5                      6
                      A                      A                      A
 Frequencies --     81.3214               130.8654               158.2010
 Red. masses --      3.4100                 2.3434                 4.8235
 Frc consts  --      0.0133                 0.0236                 0.0711
 IR Inten    --      0.0132                 7.2648                 4.2839
  Atom  AN      X      Y      Z        X      Y      Z        X      Y      Z
     1   6     0.00   0.00  -0.06     0.00   0.00  -0.18     0.12  -0.16   0.00
     2   1     0.00   0.00  -0.11     0.00   0.00  -0.36     0.18  -0.23   0.00
     3   6     0.00   0.00  -0.01     0.00   0.00   0.05     0.03   0.03   0.00
     4   6     0.00   0.00   0.02     0.00   0.00   0.11    -0.07   0.15   0.00
     5   8     0.00   0.00  -0.17     0.00   0.00   0.04    -0.13   0.14   0.00
     6   8     0.00   0.00   0.25     0.00   0.00   0.18    -0.08   0.16   0.00
     7   6     0.00   0.00   0.20     0.00   0.00  -0.17     0.01   0.02   0.00
     8   6     0.00   0.00  -0.22     0.00   0.00  -0.02    -0.17  -0.23   0.00
     9   1    -0.17   0.18   0.33    -0.08  -0.26  -0.36     0.11   0.02  -0.01
    10   1     0.17  -0.18   0.33     0.08   0.26  -0.36     0.11   0.02   0.00
    11   1     0.17  -0.19  -0.36     0.10   0.28   0.18    -0.32  -0.24   0.00
    12   1    -0.17   0.19  -0.36    -0.10  -0.28   0.18    -0.32  -0.24   0.00
    13   1     0.00   0.00  -0.26     0.00   0.00  -0.32    -0.02  -0.44   0.00
    14   8     0.00   0.00   0.01     0.00   0.00   0.01     0.26  -0.08   0.00
    15   1     0.00   0.00  -0.07     0.00   0.00   0.01     0.28  -0.10   0.00
                      7                      8                      9
                      A                      A                      A
 Frequencies --    266.9524               275.9268               306.4650
 Red. masses --      1.5001                 6.2005                 2.3384
 Frc consts  --      0.0630                 0.2781                 0.1294
 IR Inten    --      0.4791                 8.7756                 1.5936
  Atom  AN      X      Y      Z        X      Y      Z        X      Y      Z
     1   6     0.00   0.00   0.08     0.04  -0.15   0.00     0.00   0.00  -0.10
     2   1     0.00   0.00   0.26     0.12  -0.25   0.00     0.00   0.00  -0.35
     3   6     0.00   0.00  -0.17    -0.14   0.22   0.00     0.00   0.00   0.25
     4   6     0.00   0.00  -0.05    -0.03   0.06   0.00     0.00   0.00   0.02
     5   8     0.00   0.00   0.05     0.31   0.11   0.00     0.00   0.00  -0.06
     6   8     0.00   0.00   0.01    -0.16  -0.19   0.00     0.00   0.00  -0.15
     7   6     0.00   0.00   0.05    -0.23  -0.11   0.00     0.00   0.00   0.09
     8   6     0.00   0.00  -0.01    -0.06   0.16   0.00     0.00   0.00   0.01
     9   1    -0.01   0.02   0.07    -0.31  -0.10   0.01     0.07   0.16   0.21
    10   1     0.01  -0.02   0.07    -0.31  -0.10  -0.01    -0.07  -0.16   0.21
    11   1     0.33   0.34   0.23     0.12   0.17   0.00     0.29   0.25   0.19
    12   1    -0.33  -0.34   0.23     0.12   0.16   0.00    -0.29  -0.25   0.19
    13   1     0.00   0.00  -0.57    -0.22   0.40   0.00     0.00   0.00  -0.46
    14   8     0.00   0.00   0.00     0.18  -0.07   0.00     0.00   0.00   0.00
    15   1     0.00   0.00  -0.02     0.14  -0.03   0.00     0.00   0.00   0.20
                     10                     11                     12
                      A                      A                      A
 Frequencies --    325.9217               387.9381               529.8663
 Red. masses --      1.0730                 3.4656                 6.2201
 Frc consts  --      0.0672                 0.3073                 1.0289
 IR Inten    --    110.8049                13.9736                 1.4976
  Atom  AN      X      Y      Z        X      Y      Z        X      Y      Z
     1   6     0.00   0.00   0.02     0.04   0.05   0.00     0.28   0.22   0.00
     2   1     0.00   0.00   0.03     0.02   0.09   0.00     0.28   0.23   0.00
     3   6     0.00   0.00  -0.02     0.10  -0.07   0.00     0.40  -0.12   0.00
     4   6     0.00   0.00  -0.01     0.09  -0.08   0.00     0.02   0.09   0.00
     5   8     0.00   0.00  -0.02     0.17  -0.07   0.00    -0.14   0.07   0.00
     6   8     0.00   0.00   0.02     0.08  -0.01   0.00    -0.12  -0.11   0.00
     7   6     0.00   0.00  -0.01    -0.10   0.19   0.00    -0.21  -0.22   0.00
     8   6     0.00   0.00   0.00    -0.30   0.01   0.00    -0.07   0.03   0.00
     9   1    -0.01  -0.02  -0.02    -0.15   0.17  -0.01    -0.22  -0.20   0.01
    10   1     0.01   0.02  -0.02    -0.15   0.17   0.01    -0.22  -0.20  -0.01
    11   1    -0.02  -0.01  -0.01    -0.53  -0.01  -0.01     0.14   0.04   0.01
    12   1     0.02   0.01  -0.01    -0.53  -0.01   0.01     0.14   0.04  -0.01
    13   1     0.00   0.00   0.03    -0.09  -0.31   0.00    -0.26   0.32   0.00
    14   8     0.00   0.00  -0.05    -0.03   0.01   0.00    -0.04   0.02   0.00
    15   1     0.00   0.00   0.99    -0.04   0.02   0.00    -0.13   0.10   0.00
                     13                     14                     15
                      A                      A                      A
 Frequencies --    632.8672               742.8317               775.6120
 Red. masses --      9.7556                 1.0753                 6.0832
 Frc consts  --      2.3021                 0.3496                 2.1561
 IR Inten    --      8.6547               198.3411                12.3388
  Atom  AN      X      Y      Z        X      Y      Z        X      Y      Z
     1   6     0.22   0.08   0.00     0.00   0.03   0.00     0.00   0.00   0.12
     2   1     0.36  -0.07   0.00     0.10  -0.12   0.00     0.00   0.00  -0.48
     3   6    -0.10   0.61   0.00     0.01   0.02   0.00     0.00   0.00  -0.24
     4   6     0.15  -0.15   0.00     0.02   0.00   0.00     0.00   0.00   0.57
     5   8    -0.33  -0.22   0.00     0.00   0.01   0.00     0.00   0.00  -0.17
     6   8     0.15  -0.19   0.00     0.00  -0.01   0.00     0.00   0.00  -0.13
     7   6    -0.01   0.03   0.00     0.00   0.00   0.00     0.00   0.00  -0.05
     8   6    -0.06   0.02   0.00    -0.01   0.00   0.00     0.00   0.00  -0.01
     9   1    -0.11   0.01  -0.01    -0.01   0.00   0.00    -0.05   0.28   0.16
    10   1    -0.11   0.01   0.01    -0.01   0.00   0.00     0.05  -0.28   0.16
    11   1    -0.20   0.01  -0.01     0.00   0.00   0.00    -0.14   0.14   0.10
    12   1    -0.20   0.01   0.01     0.00   0.00   0.00     0.14  -0.14   0.10
    13   1     0.05  -0.15   0.00    -0.01   0.00   0.00     0.00   0.00   0.08
    14   8     0.05  -0.03   0.00    -0.06   0.02   0.00     0.00   0.00  -0.01
    15   1    -0.11   0.12   0.00     0.70  -0.69   0.00     0.00   0.00   0.03
                     16                     17                     18
                      A                      A                      A
 Frequencies --    795.8860               807.8785               817.8876
 Red. masses --      1.3319                 1.0727                 1.1581
 Frc consts  --      0.4971                 0.4125                 0.4565
 IR Inten    --     47.4595                38.9231                 0.3020
  Atom  AN      X      Y      Z        X      Y      Z        X      Y      Z
     1   6     0.00   0.00  -0.14     0.04  -0.03   0.00     0.00   0.00  -0.01
     2   1     0.00   0.00   0.97    -0.57   0.79   0.00     0.00   0.00   0.06
     3   6     0.00   0.00   0.02    -0.01   0.02   0.00     0.00   0.00  -0.02
     4   6     0.00   0.00   0.08     0.01   0.00   0.00     0.00   0.00   0.07
     5   8     0.00   0.00  -0.02     0.00   0.00   0.00     0.00   0.00  -0.02
     6   8     0.00   0.00  -0.02     0.00   0.00   0.00     0.00   0.00  -0.04
     7   6     0.00   0.00  -0.01     0.00  -0.01   0.00     0.00   0.00   0.07
     8   6     0.00   0.00   0.00     0.00   0.00   0.00     0.00   0.00   0.04
     9   1    -0.02   0.06   0.04     0.00  -0.01   0.00     0.24  -0.38  -0.22
    10   1     0.02  -0.06   0.04     0.00  -0.01   0.00    -0.24   0.38  -0.22
    11   1    -0.04   0.04   0.02     0.01   0.00   0.00     0.31  -0.30  -0.18
    12   1     0.04  -0.04   0.02     0.01   0.00   0.00    -0.31   0.30  -0.18
    13   1     0.00   0.00   0.02    -0.01   0.02   0.00     0.00   0.00  -0.19
    14   8     0.00   0.00   0.00     0.01  -0.04   0.00     0.00   0.00   0.00
    15   1     0.00   0.00   0.02     0.12  -0.14   0.00     0.00   0.00   0.01
                     19                     20                     21
                      A                      A                      A
 Frequencies --    907.1851               961.2076              1082.0871
 Red. masses --      2.4006                 6.1204                 3.4539
 Frc consts  --      1.1640                 3.3317                 2.3828
 IR Inten    --      9.0287                 5.7547                40.9407
  Atom  AN      X      Y      Z        X      Y      Z        X      Y      Z
     1   6     0.02   0.01   0.00    -0.17  -0.10   0.00     0.05   0.03   0.00
     2   1     0.06  -0.04   0.00    -0.18  -0.13   0.00     0.05   0.05   0.00
     3   6    -0.02   0.05   0.00    -0.08  -0.09   0.00     0.03   0.00   0.00
     4   6     0.02  -0.08   0.00     0.22   0.18   0.00    -0.11  -0.03   0.00
     5   8     0.04  -0.11   0.00    -0.12   0.20   0.00     0.02  -0.01   0.00
     6   8     0.03   0.22   0.00     0.31  -0.14   0.00    -0.17  -0.13   0.00
     7   6    -0.04  -0.11   0.00     0.06  -0.17   0.00     0.33   0.06   0.00
     8   6    -0.13  -0.05   0.00    -0.24   0.08   0.00    -0.16   0.07   0.00
     9   1     0.21  -0.07   0.01     0.15  -0.18  -0.01     0.51  -0.02  -0.05
    10   1     0.21  -0.07  -0.01     0.15  -0.18   0.01     0.51  -0.02   0.05
    11   1     0.32   0.04   0.05    -0.09   0.14   0.04    -0.07   0.17   0.06
    12   1     0.32   0.04  -0.05    -0.09   0.14  -0.04    -0.07   0.17  -0.06
    13   1    -0.53   0.56   0.00    -0.46   0.40   0.00    -0.31   0.31   0.00
    14   8     0.00   0.00   0.00     0.00   0.01   0.00     0.00   0.00   0.00
    15   1     0.01   0.00   0.00    -0.06   0.06   0.00     0.00   0.00   0.00
                     22                     23                     24
                      A                      A                      A
 Frequencies --   1154.6553              1188.5294              1315.6296
 Red. masses --      2.2292                 1.5669                 1.0856
 Frc consts  --      1.7510                 1.3041                 1.1071
 IR Inten    --     12.5955                 4.7692                 1.7395
  Atom  AN      X      Y      Z        X      Y      Z        X      Y      Z
     1   6    -0.01  -0.01   0.00     0.00   0.00   0.00     0.00   0.00   0.00
     2   1    -0.01   0.00   0.00     0.00   0.00   0.00     0.00   0.00   0.00
     3   6     0.00  -0.01   0.00     0.00   0.00   0.00     0.00   0.00   0.00
     4   6     0.02   0.01   0.00     0.00   0.00   0.01     0.00   0.00   0.00
     5   8    -0.02   0.04   0.00     0.00   0.00   0.00     0.00   0.00   0.00
     6   8     0.01  -0.11   0.00     0.00   0.00  -0.05     0.00   0.00   0.04
     7   6    -0.04   0.23   0.00     0.00   0.00   0.17     0.00   0.00   0.00
     8   6    -0.01  -0.19   0.00     0.00   0.00  -0.13     0.00   0.00  -0.07
     9   1    -0.09   0.22  -0.01    -0.16  -0.45  -0.14     0.67   0.07   0.02
    10   1    -0.09   0.22   0.01     0.16   0.45  -0.14    -0.67  -0.07   0.02
    11   1     0.53  -0.07   0.08    -0.27   0.32   0.11    -0.13   0.16   0.04
    12   1     0.53  -0.07  -0.08     0.27  -0.32   0.11     0.13  -0.16   0.04
    13   1    -0.33   0.31   0.00     0.00   0.00   0.27     0.00   0.00   0.10
    14   8     0.00   0.00   0.00     0.00   0.00   0.00     0.00   0.00   0.00
    15   1    -0.01   0.01   0.00     0.00   0.00   0.00     0.00   0.00   0.00
                     25                     26                     27
                      A                      A                      A
 Frequencies --   1321.8387              1407.8986              1446.3288
 Red. masses --      6.5294                 1.3006                 1.4754
 Frc consts  --      6.7217                 1.5189                 1.8184
 IR Inten    --    900.0340                28.9400                 5.0781
  Atom  AN      X      Y      Z        X      Y      Z        X      Y      Z
     1   6    -0.10  -0.06   0.00    -0.01  -0.01   0.00    -0.01  -0.01   0.00
     2   1    -0.11  -0.08   0.00    -0.02  -0.01   0.00    -0.01  -0.01   0.00
     3   6    -0.01  -0.02   0.00     0.00   0.00   0.00     0.00   0.00   0.00
     4   6     0.56   0.04   0.00     0.07   0.02   0.00     0.06   0.02   0.00
     5   8    -0.05  -0.06   0.00    -0.01  -0.01   0.00    -0.01  -0.01   0.00
     6   8    -0.32   0.08   0.00    -0.04  -0.02   0.00    -0.03  -0.02   0.00
     7   6     0.15   0.01   0.00    -0.09   0.02   0.00    -0.12   0.05   0.00
     8   6     0.00  -0.01   0.00    -0.06   0.08   0.00     0.13  -0.05   0.00
     9   1    -0.49  -0.05   0.00     0.45  -0.06  -0.08     0.44  -0.02  -0.08
    10   1    -0.49  -0.05   0.00     0.45  -0.06   0.08     0.44  -0.02   0.08
    11   1    -0.04   0.08   0.06     0.32  -0.16  -0.17    -0.42   0.01   0.04
    12   1    -0.04   0.08  -0.06     0.32  -0.16   0.17    -0.42   0.01  -0.04
    13   1    -0.03   0.04   0.00     0.27  -0.40   0.00    -0.19   0.41   0.00
    14   8     0.00   0.00   0.00     0.00   0.00   0.00     0.00   0.00   0.00
    15   1    -0.06   0.06   0.00     0.00   0.00   0.00     0.00   0.00   0.00
                     28                     29                     30
                      A                      A                      A
 Frequencies --   1498.9736              1506.6085              1529.3509
 Red. masses --      1.0371                 1.0511                 1.0877
 Frc consts  --      1.3729                 1.4057                 1.4988
 IR Inten    --      8.6601                 2.9680                 8.7388
  Atom  AN      X      Y      Z        X      Y      Z        X      Y      Z
     1   6     0.00   0.00   0.00     0.00   0.00   0.00     0.00   0.00   0.00
     2   1     0.00   0.00   0.00     0.00   0.00   0.00    -0.01   0.00   0.00
     3   6     0.00   0.00   0.00     0.00   0.00   0.00     0.00   0.00   0.00
     4   6     0.00   0.00   0.00     0.00   0.00   0.00     0.02   0.01   0.00
     5   8     0.00   0.00   0.00     0.00   0.00   0.00     0.00  -0.01   0.00
     6   8     0.00   0.00   0.00     0.01   0.01   0.00    -0.01  -0.01   0.00
     7   6     0.00   0.00  -0.02    -0.03   0.02   0.00    -0.02  -0.07   0.00
     8   6     0.00   0.00  -0.05    -0.01  -0.05   0.00    -0.01  -0.02   0.00
     9   1    -0.02   0.04   0.00     0.05  -0.25  -0.19     0.15   0.49   0.38
    10   1     0.02  -0.04   0.00     0.05  -0.25   0.19     0.15   0.49  -0.38
    11   1     0.49   0.11   0.04     0.06   0.47   0.36     0.02   0.22   0.17
    12   1    -0.49  -0.11   0.04     0.06   0.47  -0.36     0.02   0.22  -0.17
    13   1     0.00   0.00   0.70     0.14  -0.25   0.00     0.08  -0.14   0.00
    14   8     0.00   0.00   0.00     0.00   0.00   0.00     0.00   0.00   0.00
    15   1     0.00   0.00   0.00     0.00   0.00   0.00     0.00   0.00   0.00
                     31                     32                     33
                      A                      A                      A
 Frequencies --   1819.9941              2163.4761              3079.4712
 Red. masses --     12.3795                 6.1399                 1.0356
 Frc consts  --     24.1599                16.9322                 5.7862
 IR Inten    --    269.9230                87.0721                 9.5423
  Atom  AN      X      Y      Z        X      Y      Z        X      Y      Z
     1   6    -0.06  -0.04   0.00    -0.34  -0.18   0.00     0.00   0.00   0.00
     2   1    -0.11  -0.03   0.00    -0.64  -0.36   0.00     0.00   0.00   0.00
     3   6     0.06   0.01   0.00     0.48   0.26   0.00     0.00   0.00   0.00
     4   6    -0.12   0.79   0.00    -0.07  -0.08   0.00     0.00   0.00   0.00
     5   8     0.06  -0.52   0.00     0.00   0.01   0.00     0.00   0.00   0.00
     6   8     0.05  -0.06   0.00    -0.01   0.00   0.00     0.00   0.00   0.00
     7   6     0.03   0.02   0.00     0.00   0.00   0.00     0.00   0.00   0.00
     8   6    -0.01  -0.01   0.00     0.00   0.00   0.00     0.04  -0.03   0.00
     9   1    -0.15  -0.01  -0.04     0.00   0.00   0.00     0.00  -0.02   0.02
    10   1    -0.15  -0.01   0.04     0.00   0.00   0.00     0.00  -0.02  -0.02
    11   1     0.03  -0.02   0.00     0.00   0.00   0.00     0.00   0.33  -0.47
    12   1     0.03  -0.02   0.00     0.00   0.00   0.00     0.00   0.33   0.47
    13   1    -0.04   0.04   0.00     0.00   0.00   0.00    -0.49  -0.33   0.00
    14   8     0.00   0.01   0.00    -0.01   0.01   0.00     0.00   0.00   0.00
    15   1     0.01  -0.03   0.00    -0.01   0.01   0.00     0.00   0.00   0.00
                     34                     35                     36
                      A                      A                      A
 Frequencies --   3096.3342              3140.9519              3158.9682
 Red. masses --      1.0582                 1.1084                 1.1022
 Frc consts  --      5.9774                 6.4426                 6.4804
 IR Inten    --      9.1163                 2.6067                11.6453
  Atom  AN      X      Y      Z        X      Y      Z        X      Y      Z
     1   6     0.00   0.00   0.00     0.00   0.00   0.00     0.00   0.00   0.00
     2   1     0.00   0.00   0.00     0.00   0.00   0.00     0.00   0.00   0.00
     3   6     0.00   0.00   0.00     0.00   0.00   0.00     0.00   0.00   0.00
     4   6     0.00   0.00   0.00     0.00   0.00   0.00     0.00   0.00   0.00
     5   8     0.00   0.00   0.00     0.00   0.00   0.00     0.00   0.00   0.00
     6   8     0.00   0.00   0.00     0.00   0.00   0.00     0.00   0.00   0.00
     7   6    -0.01   0.07   0.00     0.00   0.00   0.09     0.00  -0.01   0.00
     8   6    -0.01  -0.01   0.00     0.00   0.00  -0.04    -0.05  -0.08   0.00
     9   1     0.02  -0.40   0.58    -0.03   0.37  -0.51     0.00   0.04  -0.06
    10   1     0.02  -0.39  -0.58     0.03  -0.37  -0.51     0.00   0.04   0.06
    11   1     0.00   0.01  -0.02     0.00  -0.19   0.26    -0.01   0.23  -0.35
    12   1     0.00   0.01   0.02     0.00   0.19   0.26    -0.01   0.23   0.35
    13   1     0.08   0.06   0.00     0.00   0.00  -0.01     0.66   0.44   0.00
    14   8     0.00   0.00   0.00     0.00   0.00   0.00     0.00   0.00   0.00
    15   1     0.00   0.00   0.00     0.00   0.00   0.00     0.00   0.00   0.00
                     37                     38                     39
                      A                      A                      A
 Frequencies --   3168.2800              3451.7106              3742.4059
 Red. masses --      1.1055                 1.1560                 1.0678
 Frc consts  --      6.5384                 8.1148                 8.8114
 IR Inten    --     18.8212                80.5228                30.9109
  Atom  AN      X      Y      Z        X      Y      Z        X      Y      Z
     1   6     0.00   0.00   0.00    -0.09  -0.06   0.00     0.00   0.00   0.00
     2   1     0.00   0.00   0.00     0.79   0.60   0.00     0.00   0.00   0.00
     3   6     0.00   0.00   0.00     0.03   0.01   0.00     0.00   0.00   0.00
     4   6     0.00   0.00   0.00     0.00   0.00   0.00     0.00   0.00   0.00
     5   8     0.00   0.00   0.00     0.00   0.00   0.00     0.00   0.00   0.00
     6   8     0.00   0.00   0.00     0.00   0.00   0.00     0.00   0.00   0.00
     7   6     0.00   0.00   0.04     0.00   0.00   0.00     0.00   0.00   0.00
     8   6     0.00   0.00   0.08     0.00   0.00   0.00     0.00   0.00   0.00
     9   1    -0.02   0.19  -0.26     0.00   0.00   0.00     0.00   0.00   0.00
    10   1     0.02  -0.19  -0.26     0.00   0.00   0.00     0.00   0.00   0.00
    11   1     0.00   0.37  -0.51     0.00   0.00   0.00     0.00   0.00   0.00
    12   1     0.00  -0.37  -0.51     0.00   0.00   0.00     0.00   0.00   0.00
    13   1     0.00   0.00   0.01     0.00   0.00   0.00     0.00   0.00   0.00
    14   8     0.00   0.00   0.00     0.00   0.00   0.00     0.04   0.05   0.00
    15   1     0.00   0.00   0.00     0.00   0.00   0.00    -0.68  -0.73   0.00

 -------------------
 - Thermochemistry -
 -------------------
 Temperature   298.150 Kelvin.  Pressure   1.00000 Atm.
 Atom     1 has atomic number  6 and mass  12.00000
 Atom     2 has atomic number  1 and mass   1.00783
 Atom     3 has atomic number  6 and mass  12.00000
 Atom     4 has atomic number  6 and mass  12.00000
 Atom     5 has atomic number  8 and mass  15.99491
 Atom     6 has atomic number  8 and mass  15.99491
 Atom     7 has atomic number  6 and mass  12.00000
 Atom     8 has atomic number  6 and mass  12.00000
 Atom     9 has atomic number  1 and mass   1.00783
 Atom    10 has atomic number  1 and mass   1.00783
 Atom    11 has atomic number  1 and mass   1.00783
 Atom    12 has atomic number  1 and mass   1.00783
 Atom    13 has atomic number  1 and mass   1.00783
 Atom    14 has atomic number  8 and mass  15.99491
 Atom    15 has atomic number  1 and mass   1.00783
 Molecular mass:   115.03952 amu.
 Principal axes and moments of inertia in atomic units:
                           1         2         3
     Eigenvalues --   281.950662088.583512347.98154
           X            1.00000   0.00059   0.00000
           Y           -0.00059   1.00000   0.00000
           Z            0.00000   0.00000   1.00000
 This molecule is an asymmetric top.
 Rotational symmetry number  1.
 Rotational temperatures (Kelvin)      0.30719     0.04147     0.03689
 Rotational constants (GHZ):           6.40091     0.86410     0.76864
    3 imaginary frequencies ignored.
 Zero-point vibrational energy     294151.6 (Joules/Mol)
                                   70.30392 (Kcal/Mol)
 Warning -- explicit consideration of   9 degrees of freedom as
           vibrations may cause significant error
 Vibrational temperatures:    117.00   188.29   227.62   384.08   397.00
          (Kelvin)            440.93   468.93   558.16   762.36   910.55
                             1068.77  1115.93  1145.10  1162.36  1176.76
                             1305.24  1382.96  1556.88  1661.29  1710.03
                             1892.90  1901.83  2025.65  2080.94  2156.69
                             2167.67  2200.39  2618.56  3112.76  4430.67
                             4454.93  4519.12  4545.05  4558.44  4966.24
                             5384.48
 
 Zero-point correction=                           0.112036 (Hartree/Particle)
 Thermal correction to Energy=                    0.119949
 Thermal correction to Enthalpy=                  0.120894
 Thermal correction to Gibbs Free Energy=         0.078589
 Sum of electronic and zero-point Energies=           -419.3552936
 Sum of electronic and thermal Energies=              -420.086059
 Sum of electronic and thermal Enthalpies=            -420.085115
 Sum of electronic and thermal Free Energies=         -420.127419
 
                     E (Thermal)             CV                S
                      KCal/Mol        Cal/Mol-Kelvin    Cal/Mol-Kelvin
 Total                   75.269             27.852             89.038
 Electronic               0.000              0.000              1.377
 Translational            0.889              2.981             40.136
 Rotational               0.889              2.981             28.716
 Vibrational             73.492             21.890             18.809
 Vibration     1          0.600              1.962              3.859
 Vibration     2          0.612              1.922              2.933
 Vibration     3          0.621              1.893              2.571
 Vibration     4          0.672              1.734              1.616
 Vibration     5          0.678              1.718              1.559
 Vibration     6          0.697              1.661              1.381
 Vibration     7          0.710              1.624              1.280
 Vibration     8          0.756              1.496              1.008
 Vibration     9          0.885              1.184              0.588
                       Q            Log10(Q)             Ln(Q)
 Total Bot       0.710690D-36        -36.148320        -83.234583
 Total V=0       0.242521D+16         15.384748         35.424693
 Vib (Bot)       0.174068D-49        -49.759282       -114.574981
 Vib (Bot)    1  0.253194D+01          0.403454          0.928987
 Vib (Bot)    2  0.155749D+01          0.192424          0.443073
 Vib (Bot)    3  0.127861D+01          0.106737          0.245771
 Vib (Bot)    4  0.725074D+00         -0.139617         -0.321481
 Vib (Bot)    5  0.698274D+00         -0.155974         -0.359144
 Vib (Bot)    6  0.618273D+00         -0.208819         -0.480824
 Vib (Bot)    7  0.574717D+00         -0.240546         -0.553877
 Vib (Bot)    8  0.463465D+00         -0.333983         -0.769025
 Vib (Bot)    9  0.301867D+00         -0.520185         -1.197770
 Vib (V=0)       0.594000D+02          1.773786          4.084294
 Vib (V=0)    1  0.308084D+01          0.488669          1.125202
 Vib (V=0)    2  0.213578D+01          0.329556          0.758830
 Vib (V=0)    3  0.187289D+01          0.272513          0.627484
 Vib (V=0)    4  0.138076D+01          0.140117          0.322632
 Vib (V=0)    5  0.135883D+01          0.133165          0.306623
 Vib (V=0)    6  0.129515D+01          0.112320          0.258626
 Vib (V=0)    7  0.126177D+01          0.100982          0.232519
 Vib (V=0)    8  0.118176D+01          0.072530          0.167007
 Vib (V=0)    9  0.108406D+01          0.035052          0.080711
 Electronic      0.200000D+01          0.301030          0.693147
 Translational   0.484982D+08          7.685726         17.697038
 Rotational      0.420926D+06          5.624206         12.950213
 ***** Axes restored to original set *****
 -------------------------------------------------------------------
 Center     Atomic                   Forces (Hartrees/Bohr)
 Number     Number              X              Y              Z
 -------------------------------------------------------------------
      1        6          -0.004089520   -0.008018621    0.000000077
      2        1          -0.000199389    0.000154056   -0.000000017
      3        6          -0.000503657    0.000591913    0.000000035
      4        6           0.000081357    0.000069357   -0.000000107
      5        8          -0.000178249    0.000164793    0.000000011
      6        8           0.000012809    0.000033310    0.000000087
      7        6           0.000024908   -0.000009358   -0.000000037
      8        6           0.000018378   -0.000031593    0.000000395
      9        1          -0.000000943    0.000003332   -0.000000118
     10        1          -0.000000937    0.000003427    0.000000066
     11        1           0.000004547    0.000000718    0.000000613
     12        1           0.000004532    0.000000908   -0.000000940
     13        1          -0.000001759   -0.000000140   -0.000000015
     14        8           0.004717153    0.006912793   -0.000000069
     15        1           0.000110770    0.000125106    0.000000018
 -------------------------------------------------------------------
 Cartesian Forces:  Max     0.008018621 RMS     0.001836844

 GradGradGradGradGradGradGradGradGradGradGradGradGradGradGradGradGradGrad
 Berny optimization.
 Search for a local minimum.
 Step number   1 out of a maximum of    2
 All quantities printed in internal units (Hartrees-Bohrs-Radians)
 Second derivative matrix not updated -- analytic derivatives used.
 ITU=  0
     Eigenvalues ---   -0.07304  -0.00086  -0.00024   0.00123   0.00184
     Eigenvalues ---    0.00467   0.00496   0.00595   0.01728   0.02041
     Eigenvalues ---    0.02503   0.02968   0.03117   0.04878   0.05799
     Eigenvalues ---    0.07587   0.08041   0.08526   0.09476   0.11224
     Eigenvalues ---    0.11731   0.14934   0.15820   0.19044   0.19903
     Eigenvalues ---    0.29387   0.29878   0.45375   0.47943   0.63919
     Eigenvalues ---    0.71033   0.74774   0.80125   0.89106   0.91826
     Eigenvalues ---    0.91858   0.95285   1.69142   2.48986
 Eigenvalue     1 is  -7.30D-02 should be greater than     0.000000 Eigenvector:
                          Y1        Y14       X1        X14       Y15
   1                    0.64653  -0.48908   0.41963  -0.39056  -0.10871
                          X2        Y3        X15       Y2        X5
   1                   -0.03365  -0.02395   0.01245   0.01121   0.01116
 Eigenvalue     2 is  -8.57D-04 should be greater than     0.000000 Eigenvector:
                          Z14       Z5        Z15       Z11       Z12
   1                    0.58760  -0.32603   0.28816   0.25076   0.25076
                          Z3        Z2        Z4        Z1        Z13
   1                   -0.24146  -0.23470  -0.21220  -0.21188   0.18798
 Eigenvalue     3 is  -2.44D-04 should be greater than     0.000000 Eigenvector:
                          X15       X14       Y14       Y3        Y13
   1                    0.59475   0.38207  -0.29609   0.24203  -0.21919
                          X2        Y5        Y4        X5        X9
   1                   -0.21215   0.19415   0.18465  -0.16527  -0.14900
 Angle between quadratic step and forces=  46.92 degrees.
 Linear search not attempted -- first point.
 TrRot=  0.000911  0.006221  0.000037 -0.000031  0.000042 -0.000031
 Variable       Old X    -DE/DX   Delta X   Delta X   Delta X     New X
                                 (Linear)    (Quad)   (Total)
    X1        4.23073  -0.00409   0.00000  -0.08785  -0.08709   4.14364
    Y1       -2.30750  -0.00802   0.00000  -0.09515  -0.08918  -2.39668
    Z1        0.00001   0.00000   0.00000   0.00123   0.00109   0.00110
    X2        5.84334  -0.00020   0.00000  -0.03721  -0.03651   5.80683
    Y2       -3.51549   0.00015   0.00000  -0.01956  -0.01370  -3.52919
    Z2        0.00001   0.00000   0.00000   0.00141   0.00120   0.00121
    X3        2.14260  -0.00050   0.00000  -0.00330  -0.00247   2.14013
    Y3       -1.37819   0.00059   0.00000   0.05050   0.05659  -1.32160
    Z3        0.00001   0.00000   0.00000   0.00134   0.00129   0.00130
    X4        0.01805   0.00008   0.00000  -0.01255  -0.01162   0.00643
    Y4        0.36379   0.00007   0.00000   0.03503   0.04125   0.40504
    Z4        0.00001   0.00000   0.00000   0.00117   0.00121   0.00122
    X5        0.31403  -0.00018   0.00000  -0.03392  -0.03285   0.28118
    Y5        2.61785   0.00016   0.00000   0.03789   0.04409   2.66194
    Z5        0.00002   0.00000   0.00000   0.00214   0.00217   0.00218
    X6       -2.19606   0.00001   0.00000  -0.00265  -0.00179  -2.19785
    Y6       -0.80984   0.00003   0.00000   0.01453   0.02089  -0.78895
    Z6        0.00000   0.00000   0.00000  -0.00015  -0.00002  -0.00002
    X7       -4.39095   0.00002   0.00000  -0.01609  -0.01513  -4.40607
    Y7        0.80949  -0.00001   0.00000  -0.00544   0.00105   0.81054
    Z7        0.00000   0.00000   0.00000  -0.00016   0.00006   0.00005
    X8       -6.68621   0.00002   0.00000  -0.00186  -0.00100  -6.68721
    Y8       -0.88738  -0.00003   0.00000  -0.02475  -0.01812  -0.90550
    Z8       -0.00001   0.00000   0.00000  -0.00088  -0.00056  -0.00057
    X9       -4.30820   0.00000   0.00000  -0.02650  -0.02540  -4.33359
    Y9        2.01752   0.00000   0.00000  -0.00503   0.00145   2.01897
    Z9        1.67035   0.00000   0.00000   0.00008   0.00030   1.67065
   X10       -4.30819   0.00000   0.00000  -0.02598  -0.02502  -4.33321
   Y10        2.01752   0.00000   0.00000  -0.00430   0.00219   2.01971
   Z10       -1.67035   0.00000   0.00000   0.00015   0.00037  -1.66998
   X11       -6.70213   0.00000   0.00000   0.00810   0.00881  -6.69332
   Y11       -2.08855   0.00000   0.00000  -0.02432  -0.01769  -2.10624
   Z11       -1.67462   0.00000   0.00000  -0.00126  -0.00094  -1.67556
   X12       -6.70213   0.00000   0.00000   0.00778   0.00863  -6.69350
   Y12       -2.08856   0.00000   0.00000  -0.02521  -0.01857  -2.10713
   Z12        1.67460   0.00000   0.00000  -0.00113  -0.00082   1.67378
   X13       -8.39718   0.00000   0.00000  -0.01098  -0.01006  -8.40724
   Y13        0.26366   0.00000   0.00000  -0.03836  -0.03163   0.23204
   Z13       -0.00001   0.00000   0.00000  -0.00073  -0.00034  -0.00035
   X14        6.60886   0.00472   0.00000   0.14041   0.14137   6.75023
   Y14        0.82044   0.00691   0.00000   0.03081   0.03662   0.85706
   Z14       -0.00002   0.00000   0.00000  -0.00338  -0.00363  -0.00365
   X15        5.34895   0.00011   0.00000   0.08907   0.09011   5.43906
   Y15        2.15934   0.00013   0.00000  -0.02115  -0.01526   2.14408
   Z15       -0.00002   0.00000   0.00000  -0.00119  -0.00138  -0.00140
         Item               Value     Threshold  Converged?
 Maximum Force            0.008019     0.000450     NO 
 RMS     Force            0.001837     0.000300     NO 
 Maximum Displacement     0.141372     0.001800     NO 
 RMS     Displacement     0.036216     0.001200     NO 
 Predicted change in Energy=-3.055362D-03
 GradGradGradGradGradGradGradGradGradGradGradGradGradGradGradGradGradGrad

 1|1|UNPC-DIT|Freq|UM062X|6-311++G(d,p)|C5H7O3(2)|NDITM|28-Mar-2025|0||
 # freq 6-311++g(d,p) m062x||Title Card Required||0,2|C,2.238805,-1.221
 078,0.000004|H,3.092161,-1.860316,0.000005|C,1.133816,-0.729309,0.0000
 05|C,0.00955,0.192509,0.000005|O,0.166178,1.385306,0.000009|O,-1.16210
 3,-0.42855,-0.000001|C,-2.323589,0.428362,-0.000002|C,-3.538189,-0.469
 583,-0.000005|H,-2.279799,1.067626,0.883909|H,-2.279796,1.067627,-0.88
 3912|H,-3.546612,-1.105215,-0.88617|H,-3.546615,-1.105216,0.88616|H,-4
 .443598,0.139524,-0.000006|O,3.497257,0.43416,-0.000012|H,2.83054,1.14
 2671,-0.00001||Version=IA32W-G09RevD.01|State=2-A|HF=-420.2060082|S2=0
 .766926|S2-1=0.|S2A=0.750123|RMSD=9.035e-009|RMSF=1.837e-003|ZeroPoint
 =0.1120364|Thermal=0.1199494|Dipole=-1.2357759,-0.4310906,0.0000005|Di
 poleDeriv=-0.772848,-0.4442743,-0.0004039,-0.2217257,-0.2328793,-0.000
 1595,-0.0002127,0.0006224,-0.0528738,0.3122303,-0.0304136,-0.0000054,0
 .0172057,0.252947,0.0000518,0.0000146,-0.0000299,0.1986057,-0.3068853,
 0.415967,-0.0001331,0.0552586,-0.4456169,-0.0004585,-0.000148,-0.00022
 1,-0.1156224,2.6950714,0.0496849,0.0003263,0.1599608,1.5311007,0.00059
 63,0.0000836,0.000146,0.4001092,-0.9251271,0.0093332,-0.0000371,-0.020
 468,-1.1010677,-0.0002013,-0.0000363,-0.000087,-0.3555739,-2.1562097,-
 0.1919299,0.0000983,-0.1111191,-0.605493,-0.0001157,0.0000453,0.000034
 1,-0.2763843,1.0583163,-0.0601797,0.0000281,-0.2942213,0.3188982,0.000
 0132,-0.0003462,-0.000678,0.3030962,-0.0693726,-0.0371831,-0.000233,-0
 .0370834,0.0254955,-0.0000676,0.0000135,-0.0001264,0.0562666,-0.050464
 ,-0.0329742,-0.0416539,0.0537904,0.0091824,-0.0477826,-0.0031824,-0.07
 0214,-0.0381511,-0.0504655,-0.0329818,0.0416549,0.0536,0.0088351,0.047
 8833,0.0034904,0.0707469,-0.038212,0.0654889,0.0035718,0.0269163,-0.04
 83905,0.0143574,-0.0651039,-0.0040712,-0.081783,-0.0389185,0.0654769,0
 .0035406,-0.0269414,-0.0483759,0.0142955,0.0651546,0.0040665,0.081906,
 -0.0389658,-0.0724898,0.0489789,0.0001304,0.0779757,0.0032186,-0.00007
 48,0.0000166,0.0000591,0.0908171,-0.0249954,0.2415453,0.0002229,0.1600
 185,-0.075687,0.0001408,0.0002634,-0.0003553,-0.4224258,0.2322736,0.05
 73149,0.0000306,0.2035743,0.2824134,0.0001239,0.000003,-0.0000201,0.32
 82327|Polar=107.9816692,2.0080814,70.8135741,0.0034766,-0.0083229,47.8
 133277|PG=C01 [X(C5H7O3)]|NImag=3||1.03744102,-0.65325249,0.37681526,-
 0.00002523,-0.00001242,0.06475780,-0.26734551,0.18626703,-0.00000150,0
 .27032218,0.20527525,-0.15912283,0.00000491,-0.18381324,0.16034139,0.0
 0000075,0.00000066,-0.03194479,0.00000025,-0.00000043,0.01873399,-0.79
 865881,0.44094264,-0.00000884,-0.00119528,-0.01882224,0.00000066,1.079
 37801,0.39770621,-0.23628098,-0.00002777,0.00501592,0.01017403,0.00000
 105,-0.52365279,0.40223475,-0.00000869,-0.00000092,-0.03408005,0.00000
 140,-0.00000131,0.00758735,0.00000267,0.00000384,0.05706644,-0.0002706
 8,0.00648661,0.00002039,-0.00016663,0.00300247,-0.00000112,-0.19005684
 ,0.09945749,0.00000256,0.64431343,-0.01452278,0.00352603,0.00003764,0.
 00246735,0.00288914,-0.00000162,0.10274947,-0.12543073,-0.00000563,0.0
 3265410,0.99477547,0.00000551,0.00000022,0.00170102,-0.00000054,0.0000
 0061,0.00582869,-0.00000213,-0.00000060,-0.06970179,0.00000038,0.00000
 520,0.20890039,-0.00130402,-0.00019270,-0.00000243,0.00009480,-0.00089
 898,0.00000014,0.00819252,0.03148433,0.00000022,-0.11716329,-0.0564382
 1,-0.00000049,0.12333524,0.00039385,0.00303706,-0.00001408,-0.00009192
 ,0.00078117,0.00000068,0.02891871,-0.06690822,0.00000198,-0.07537218,-
 0.73892873,-0.00000353,0.10467711,0.86805522,-0.00000346,-0.00000056,0
 .00046650,0.00000020,-0.00000022,-0.00093814,0.00000174,0.00000016,0.0
 2120627,-0.00000011,-0.00000353,-0.08108842,0.00000078,0.00000364,0.03
 476813,-0.00666555,0.00206421,0.00000682,0.00134623,0.00036549,-0.0000
 0026,-0.05958465,-0.00315397,0.00000085,-0.27680400,-0.08766097,-0.000
 00179,-0.01991721,-0.06792762,0.00000028,0.56413395,0.00569345,-0.0021
 5901,-0.00000846,-0.00054803,-0.00081240,0.00000040,0.01777803,0.01307
 543,0.00000165,-0.05964899,-0.15439584,-0.00000144,-0.07140944,-0.0602
 1250,0.00000007,0.03590122,0.37217577,0.00000422,0.00000118,0.00087449
 ,-0.00000031,0.00000007,-0.00039568,-0.00000093,0.00000003,0.01021762,
 -0.00000246,-0.00000066,-0.06928996,-0.00000033,-0.00000045,0.03143642
 ,0.00000092,0.00000097,0.08101633,0.00182774,0.00001242,0.00000165,-0.
 00038882,0.00009652,-0.00000006,0.00108030,-0.00182748,-0.00000013,-0.
 06800912,0.00247451,-0.00000028,0.00587984,0.01649385,0.00000014,-0.12
 688070,0.04222861,-0.00000013,0.46481291,-0.00184383,0.00066615,0.0000
 0075,0.00024023,0.00013690,-0.00000003,-0.00547964,-0.00079801,-0.0000
 0148,0.00208698,0.02494370,0.00000124,-0.00784110,-0.00910845,-0.00000
 064,0.06767944,-0.14611419,0.00000032,0.05501541,0.55920852,-0.0000274
 7,-0.00000316,-0.00006516,0.00000335,-0.00000341,-0.00036603,0.0000119
 7,0.00000735,0.00629695,0.00000464,-0.00001384,0.00203547,0.00000100,0
 .00000702,-0.00644257,0.00000387,0.00000491,-0.06928697,-0.00000038,-0
 .00000355,0.62948015,-0.00043420,0.00016304,-0.00001518,0.00005285,0.0
 0003828,0.00000070,-0.00128084,-0.00046686,-0.00000028,-0.00110932,0.0
 0595300,0.00000043,0.00083668,-0.00206741,-0.00000023,-0.04620291,-0.0
 1427776,0.00000067,-0.15780189,-0.06949947,-0.00000100,0.53702508,0.00
 053978,-0.00026123,-0.00000625,-0.00006458,-0.00003623,0.00000033,0.00
 121307,0.00063392,-0.00000250,0.00136337,-0.00724183,0.00000170,-0.001
 30805,0.00295124,-0.00000088,0.03013458,0.01487744,0.00000112,-0.08601
 530,-0.14352710,-0.00000562,-0.04161533,0.56543796,-0.00000970,-0.0000
 0717,-0.00004178,-0.00000099,0.00000164,0.00000086,0.00000742,0.000002
 28,0.00008794,-0.00000201,-0.00000165,-0.00024492,0.00000078,0.0000008
 4,0.00108660,0.00000245,0.00000054,0.00172710,-0.00000031,-0.00000068,
 -0.08677516,-0.00000078,-0.00000099,0.59019397,-0.00027261,0.00005493,
 0.00002493,0.00005514,0.00000335,0.00007927,-0.00040787,-0.00009250,-0
 .00125172,0.00492838,0.00737480,0.00165427,-0.00019392,-0.00347313,0.0
 0012894,-0.01523689,0.02370095,0.02589747,-0.04961332,-0.01186182,-0.0
 1799142,-0.00008096,-0.01587469,-0.02363584,0.06166932,0.00017957,0.00
 001901,0.00005012,-0.00003509,-0.00000368,-0.00002836,0.00045378,-0.00
 012405,0.00020077,-0.00410427,-0.00165916,-0.00021184,0.00048923,0.001
 29600,0.00020060,0.01287323,-0.01805582,-0.01610231,-0.00790368,-0.135
 38127,-0.12161370,-0.00198494,-0.00940305,-0.01471485,0.00247525,0.151
 62668,-0.00004689,0.00003582,0.00005249,-0.00000516,-0.00001510,0.0000
 1568,0.00019867,0.00015302,-0.00047634,-0.00179856,-0.00271655,0.00057
 903,-0.00099192,0.00159984,0.00027958,0.00424304,0.00135138,0.00619756
 ,-0.01003268,-0.12519547,-0.23781711,-0.00063371,0.00234429,0.00303129
 ,0.01147899,0.13711373,0.24678790,-0.00027271,0.00005489,-0.00002480,0
 .00005518,0.00000330,-0.00007928,-0.00040769,-0.00009216,0.00125204,0.
 00492833,0.00737446,-0.00165440,-0.00019390,-0.00347300,-0.00012888,-0
 .01523683,0.02370111,-0.02589764,-0.04961335,-0.01186227,0.01799282,-0
 .00008097,-0.01587470,0.02363594,0.00177553,-0.00027232,-0.00202838,0.
 06166937,0.00016293,0.00001633,-0.00004268,-0.00003337,-0.00000528,0.0
 0002803,0.00046046,-0.00012159,-0.00019939,-0.00410088,-0.00166468,0.0
 0021061,0.00048972,0.00129925,-0.00019989,0.01287578,-0.01805343,0.016
 10155,-0.00790417,-0.13538335,0.12161737,-0.00198620,-0.00940598,0.014
 71656,-0.00027205,0.01196177,-0.01500949,0.00247590,0.15162918,0.00007
 244,-0.00003183,0.00004726,0.00000236,0.00001764,0.00001591,-0.0002086
 0,-0.00015770,-0.00047770,0.00179301,0.00272582,0.00058016,0.00099126,
 -0.00160479,0.00027892,-0.00424694,-0.00135503,0.00619818,0.01003344,0
 .12519849,-0.23782011,0.00063544,-0.00233951,0.00302925,0.00202811,0.0
 1500882,-0.02074768,-0.01147993,-0.13711658,0.24679063,0.00004513,0.00
 003372,0.00000514,-0.00001713,-0.00000720,-0.00000585,0.00005193,0.000
 01371,0.00002686,-0.00067629,-0.00116190,-0.00000134,-0.00030012,0.000
 79297,0.00015841,0.00336291,0.00061307,0.00021576,-0.00166519,-0.01784
 454,-0.02566455,-0.04787549,0.00137993,0.00170465,-0.00439237,-0.00294
 986,0.00064102,0.00113526,0.00098340,0.00040195,0.05012294,-0.00008030
 ,0.00000876,0.00000941,0.00001473,-0.00000065,-0.00000165,-0.00003659,
 0.00001965,-0.00008212,0.00021301,-0.00024034,0.00006302,-0.00027732,0
 .00017791,0.00015976,0.00082989,0.00127470,0.00108385,0.00103835,-0.01
 387017,-0.01814799,-0.00105233,-0.13950880,-0.12805820,-0.00357849,-0.
 00098563,0.00093054,0.00065988,0.00027845,0.00011672,0.00353548,0.1502
 8788,0.00001406,0.00003281,0.00000853,-0.00000545,-0.00000842,-0.00000
 335,-0.00003082,0.00000353,0.00000515,-0.00023922,-0.00004777,0.000031
 05,0.00013661,0.00025963,-0.00005413,-0.00037498,0.00029448,0.00011800
 ,-0.00023756,0.00092748,0.00152478,0.00005785,-0.12926525,-0.23252466,
 0.00082153,0.00018219,0.00143425,-0.00065292,0.00010163,0.00074112,-0.
 00030797,0.14149284,0.24714854,0.00004445,0.00003390,-0.00000707,-0.00
 001701,-0.00000739,0.00000595,0.00005230,0.00001394,-0.00002603,-0.000
 67625,-0.00116262,0.00000069,-0.00030005,0.00079336,-0.00015807,0.0033
 6298,0.00061332,-0.00021586,-0.00166528,-0.01784477,0.02566687,-0.0478
 7551,0.00137934,-0.00170391,0.00113527,0.00098288,-0.00040280,-0.00439
 234,-0.00294922,-0.00064199,-0.00110741,-0.00000482,0.00042728,0.05012
 319,-0.00008515,0.00000506,-0.00000535,0.00001426,0.00000014,0.0000014
 2,-0.00003266,0.00002073,0.00008401,0.00021193,-0.00024088,-0.00006425
 ,-0.00027691,0.00017836,-0.00015916,0.00083112,0.00127501,-0.00108457,
 0.00103820,-0.01387025,0.01815215,-0.00105301,-0.13950909,0.12805820,0
 .00065991,0.00027764,-0.00011816,-0.00357849,-0.00098421,-0.00093282,-
 0.00000484,0.01259603,-0.01591211,0.00353603,0.15028784,-0.00000502,-0
 .00002662,0.00000469,0.00000620,0.00000713,-0.00000313,0.00002419,-0.0
 0000532,0.00000244,0.00024074,0.00004915,0.00003296,-0.00013731,-0.000
 26049,-0.00005509,0.00037273,-0.00029507,0.00011892,0.00023763,-0.0009
 2710,0.00151853,-0.00005658,0.12926607,-0.23252460,0.00065285,-0.00010
 070,0.00074293,-0.00082158,-0.00018463,0.00143788,-0.00042715,0.015911
 93,-0.01948638,0.00030710,-0.14149257,0.24714839,-0.00026278,0.0000556
 9,0.00000826,0.00004326,0.00000669,-0.00000039,-0.00048545,-0.00013096
 ,-0.00000098,0.00101915,0.00229203,0.00000070,-0.00011219,-0.00099334,
 -0.00000040,-0.00706775,-0.00460324,-0.00000012,-0.01733972,0.01863717
 ,-0.00000268,-0.23522374,0.12480348,-0.00000080,0.00059191,-0.00016130
 ,-0.00062834,0.00059185,-0.00016230,0.00062996,0.00133025,-0.00127961,
 0.00040312,0.00133014,-0.00127986,-0.00040263,0.25553587,-0.00014738,0
 .00010396,-0.00000459,0.00000828,0.00000869,0.00000022,-0.00038347,-0.
 00021216,0.00000077,-0.00068842,0.00164148,-0.00000057,0.00026474,-0.0
 0035971,0.00000032,-0.00653317,-0.00193464,-0.00000003,-0.01395526,0.0
 1255475,0.00000200,0.12776085,-0.13489880,0.00000058,0.00081892,0.0004
 8984,-0.00046857,0.00081894,0.00049065,0.00046725,0.01464368,-0.010060
 13,0.00195188,0.01464385,-0.01006002,-0.00195221,-0.13725726,0.1422231
 3,0.00000146,0.00000031,-0.00000606,-0.00000012,0.00000015,0.00000359,
 -0.00000121,-0.00000133,-0.00002640,0.00000032,0.00000197,0.00047852,-
 0.00000016,-0.00000074,-0.00015880,-0.00000024,-0.00000048,0.00098487,
 0.00000001,0.00000040,-0.00232680,-0.00000047,0.00000065,-0.04704689,0
 .00011138,0.00002770,-0.00005195,-0.00011144,-0.00002797,-0.00005158,0
 .02324909,-0.01347416,0.00106090,-0.02324927,0.01347382,0.00106134,0.0
 0000069,-0.00000047,0.04608409,0.03726664,0.02236750,0.00001511,-0.002
 82709,-0.00443968,-0.00000066,-0.03648071,-0.00090782,0.00000436,0.001
 30863,0.00475976,-0.00000253,-0.00157429,-0.00255204,0.00000162,-0.000
 40680,-0.00132865,-0.00000217,-0.00004663,0.00011189,0.00001224,0.0000
 4381,-0.00003525,0.00000540,0.00004133,-0.00000415,-0.00002541,0.00004
 135,0.00000338,0.00001374,-0.00001871,-0.00000266,-0.00001585,-0.00001
 847,-0.00000006,0.00001094,0.00000628,0.00000415,-0.00000069,0.2499577
 9,0.05419119,0.01508071,0.00001094,-0.00924484,-0.01326910,-0.00000033
 ,-0.04171540,0.00501613,-0.00000170,0.00232317,-0.00084037,0.00000136,
 -0.00010850,0.00091370,-0.00000052,0.00029195,-0.00014273,-0.00000024,
 -0.00028199,0.00019057,-0.00000452,0.00002247,-0.00003524,0.00000320,0
 .00000570,-0.00001680,0.00000584,0.00000568,-0.00001854,-0.00000312,-0
 .00000730,0.00000715,-0.00000439,-0.00000775,0.00000890,0.00000176,0.0
 0001635,0.00000387,0.00000038,-0.25675061,0.26449905,0.00002742,0.0000
 1137,-0.00154368,0.00000029,-0.00000318,0.00111998,0.00000493,0.000020
 49,0.00258447,-0.00001800,-0.00002734,-0.00077664,0.00000181,0.0000100
 6,0.00077342,-0.00000659,0.00000586,-0.00010318,-0.00000130,0.00000037
 ,-0.00002609,0.00001274,0.00000685,-0.00000214,-0.00001251,-0.00000226
 ,-0.00000327,0.00001220,-0.00000492,0.00000211,0.00001125,0.00001001,0
 .00000072,-0.00001021,-0.00001458,0.00000567,-0.00000611,0.00000324,-0
 .00000544,-0.00001662,-0.00000762,0.00123477,-0.00113810,-0.00509139,0
 .00000276,-0.00001218,-0.00080262,-0.00000009,-0.00019692,-0.00336705,
 -0.00000311,-0.00156548,-0.00715300,0.00000151,0.00271991,0.00388079,-
 0.00000096,0.00179723,0.00158636,0.00000090,-0.00057677,0.00030633,-0.
 00000924,0.00000742,-0.00002566,-0.00000230,0.00000105,-0.00003832,0.0
 0003214,0.00000093,-0.00004338,-0.00002426,0.00000427,0.00002078,0.000
 00432,0.00000400,0.00001953,-0.00000212,0.00004292,0.00000155,0.000000
 64,-0.24729312,0.25125989,0.00000071,0.24620486,0.00578971,-0.00145429
 ,0.00000781,-0.00019671,-0.00108129,-0.00000037,-0.00239338,-0.0012989
 2,0.00000202,-0.00388438,0.00286675,-0.00000172,0.00134607,-0.00317231
 ,0.00000084,0.00142882,-0.00079779,-0.00000084,-0.00050998,0.00035220,
 0.00000498,0.00006567,-0.00007321,-0.00000030,0.00005887,-0.00004148,-
 0.00001113,0.00005878,-0.00003858,0.00000665,-0.00002034,0.00001519,-0
 .00000853,-0.00002005,0.00001474,0.00000867,0.00005648,0.00000908,-0.0
 0000023,0.23877426,-0.27139730,-0.00000834,-0.24055382,0.27609721,0.00
 000057,0.00000033,-0.00023125,0.00000003,-0.00000008,0.00034507,0.0000
 0030,0.00000096,-0.00029236,-0.00000057,-0.00000121,0.00093445,0.00000
 004,0.00000038,-0.00155868,-0.00000017,0.00000022,0.00018631,-0.000000
 04,-0.00000010,0.00007012,0.00000041,0.,0.00000315,0.00001375,-0.00000
 991,-0.00002437,-0.00001374,0.00000980,-0.00002434,-0.00000726,-0.0000
 1396,-0.00000452,0.00000733,0.00001395,-0.00000455,-0.00000027,0.00000
 017,0.00000062,0.00000053,-0.00000101,-0.00326069,-0.00000090,0.000000
 46,0.00386106||0.00408952,0.00801862,-0.00000008,0.00019939,-0.0001540
 6,0.00000002,0.00050366,-0.00059191,-0.00000004,-0.00008136,-0.0000693
 6,0.00000011,0.00017825,-0.00016479,-0.00000001,-0.00001281,-0.0000333
 1,-0.00000009,-0.00002491,0.00000936,0.00000004,-0.00001838,0.00003159
 ,-0.00000040,0.00000094,-0.00000333,0.00000012,0.00000094,-0.00000343,
 -0.00000007,-0.00000455,-0.00000072,-0.00000061,-0.00000453,-0.0000009
 1,0.00000094,0.00000176,0.00000014,0.00000001,-0.00471715,-0.00691279,
 0.00000007,-0.00011077,-0.00012511,-0.00000002|||@


 HE THAT IS UNAWARE OF HIS IGNORANCE WILL BE MISLED BY HIS KNOWLEDGE.

                                        -- WHATLEY
 Job cpu time:       0 days  0 hours 20 minutes 57.0 seconds.
 File lengths (MBytes):  RWF=    153 Int=      0 D2E=      0 Chk=      9 Scr=      1
 Normal termination of Gaussian 09 at Fri Mar 28 06:37:28 2025.
