 Entering Link 1 = C:\G09W\l1.exe PID=      6260.
  
 Copyright (c) 1988,1990,1992,1993,1995,1998,2003,2009,2013,
            Gaussian, Inc.  All Rights Reserved.
  
 This is part of the Gaussian(R) 09 program.  It is based on
 the Gaussian(R) 03 system (copyright 2003, Gaussian, Inc.),
 the Gaussian(R) 98 system (copyright 1998, Gaussian, Inc.),
 the Gaussian(R) 94 system (copyright 1995, Gaussian, Inc.),
 the Gaussian 92(TM) system (copyright 1992, Gaussian, Inc.),
 the Gaussian 90(TM) system (copyright 1990, Gaussian, Inc.),
 the Gaussian 88(TM) system (copyright 1988, Gaussian, Inc.),
 the Gaussian 86(TM) system (copyright 1986, Carnegie Mellon
 University), and the Gaussian 82(TM) system (copyright 1983,
 Carnegie Mellon University). Gaussian is a federally registered
 trademark of Gaussian, Inc.
  
 This software contains proprietary and confidential information,
 including trade secrets, belonging to Gaussian, Inc.
  
 This software is provided under written license and may be
 used, copied, transmitted, or stored only in accord with that
 written license.
  
 The following legend is applicable only to US Government
 contracts under FAR:
  
                    RESTRICTED RIGHTS LEGEND
  
 Use, reproduction and disclosure by the US Government is
 subject to restrictions as set forth in subparagraphs (a)
 and (c) of the Commercial Computer Software - Restricted
 Rights clause in FAR 52.227-19.
  
 Gaussian, Inc.
 340 Quinnipiac St., Bldg. 40, Wallingford CT 06492
  
  
 ---------------------------------------------------------------
 Warning -- This program may not be used in any manner that
 competes with the business of Gaussian, Inc. or will provide
 assistance to any competitor of Gaussian, Inc.  The licensee
 of this program is prohibited from giving any competitor of
 Gaussian, Inc. access to this program.  By using this program,
 the user acknowledges that Gaussian, Inc. is engaged in the
 business of creating and licensing software in the field of
 computational chemistry and represents and warrants to the
 licensee that it is not a competitor of Gaussian, Inc. and that
 it will not use this program in any manner prohibited above.
 ---------------------------------------------------------------
  

 Cite this work as:
 Gaussian 09, Revision D.01,
 M. J. Frisch, G. W. Trucks, H. B. Schlegel, G. E. Scuseria, 
 M. A. Robb, J. R. Cheeseman, G. Scalmani, V. Barone, B. Mennucci, 
 G. A. Petersson, H. Nakatsuji, M. Caricato, X. Li, H. P. Hratchian, 
 A. F. Izmaylov, J. Bloino, G. Zheng, J. L. Sonnenberg, M. Hada, 
 M. Ehara, K. Toyota, R. Fukuda, J. Hasegawa, M. Ishida, T. Nakajima, 
 Y. Honda, O. Kitao, H. Nakai, T. Vreven, J. A. Montgomery, Jr., 
 J. E. Peralta, F. Ogliaro, M. Bearpark, J. J. Heyd, E. Brothers, 
 K. N. Kudin, V. N. Staroverov, T. Keith, R. Kobayashi, J. Normand, 
 K. Raghavachari, A. Rendell, J. C. Burant, S. S. Iyengar, J. Tomasi, 
 M. Cossi, N. Rega, J. M. Millam, M. Klene, J. E. Knox, J. B. Cross, 
 V. Bakken, C. Adamo, J. Jaramillo, R. Gomperts, R. E. Stratmann, 
 O. Yazyev, A. J. Austin, R. Cammi, C. Pomelli, J. W. Ochterski, 
 R. L. Martin, K. Morokuma, V. G. Zakrzewski, G. A. Voth, 
 P. Salvador, J. J. Dannenberg, S. Dapprich, A. D. Daniels, 
 O. Farkas, J. B. Foresman, J. V. Ortiz, J. Cioslowski, 
 and D. J. Fox, Gaussian, Inc., Wallingford CT, 2013.
 
 ******************************************
 Gaussian 09:  IA32W-G09RevD.01 24-Apr-2013
                28-Mar-2025 
 ******************************************
 %chk=ethyl_propiolate.chk
 %nprocshared=4
 Will use up to    4 processors via shared memory.
 %mem=1700MB
 --------------------------
 # freq 6-311++g(d,p) m062x
 --------------------------
 1/10=4,30=1,38=1/1,3;
 2/12=2,17=6,18=5,40=1/2;
 3/5=4,6=6,7=1111,11=2,16=1,25=1,30=1,71=2,74=-55,140=1/1,2,3;
 4//1;
 5/5=2,38=5,98=1/2;
 8/6=4,10=90,11=11/1;
 11/6=1,8=1,9=11,15=111,16=1/1,2,10;
 10/6=1/2;
 6/7=2,8=2,9=2,10=2,18=1,28=1/1;
 7/8=1,10=1,25=1/1,2,3,16;
 1/10=4,30=1/3;
 99//99;
 -------------------
 Title Card Required
 -------------------
 Symbolic Z-matrix:
 Charge =  0 Multiplicity = 2
 C                     2.17742  -1.32043   0.00001 
 H                     3.07257  -1.89716   0.00001 
 C                     1.13005  -0.73161   0.00001 
 C                     0.00992   0.19373   0.00001 
 O                     0.1655    1.38697   0.00001 
 O                    -1.16217  -0.4273   0. 
 C                    -2.32364   0.42874  0. 
 C                    -3.53791  -0.46978  -0.00001 
 H                    -2.28041   1.06817   0.88386 
 H                    -2.2804    1.06817  -0.88386 
 H                    -3.54595  -1.10546  -0.88614 
 H                    -3.54596  -1.10546   0.88613 
 H                    -4.44364   0.13889  -0.00001 
 O                     3.54728   0.50688  -0.00001 
 H                     2.83647   1.17276  -0.00001 
 

 GradGradGradGradGradGradGradGradGradGradGradGradGradGradGradGradGradGrad
 Berny optimization.
 Initialization pass.
 Trust Radius=3.00D-01 FncErr=1.00D-07 GrdErr=1.00D-07
 Number of steps in this run=      2 maximum allowed number of steps=      2.
 GradGradGradGradGradGradGradGradGradGradGradGradGradGradGradGradGradGrad

                          Input orientation:                          
 ---------------------------------------------------------------------
 Center     Atomic      Atomic             Coordinates (Angstroms)
 Number     Number       Type             X           Y           Z
 ---------------------------------------------------------------------
      1          6           0        2.177418   -1.320429    0.000005
      2          1           0        3.072565   -1.897158    0.000005
      3          6           0        1.130048   -0.731614    0.000005
      4          6           0        0.009917    0.193725    0.000005
      5          8           0        0.165499    1.386966    0.000008
      6          8           0       -1.162174   -0.427302   -0.000001
      7          6           0       -2.323636    0.428741   -0.000002
      8          6           0       -3.537911   -0.469780   -0.000005
      9          1           0       -2.280405    1.068173    0.883855
     10          1           0       -2.280402    1.068174   -0.883858
     11          1           0       -3.545954   -1.105456   -0.886140
     12          1           0       -3.545957   -1.105458    0.886129
     13          1           0       -4.443637    0.138888   -0.000006
     14          8           0        3.547280    0.506877   -0.000012
     15          1           0        2.836465    1.172759   -0.000008
 ---------------------------------------------------------------------
                    Distance matrix (angstroms):
                    1          2          3          4          5
     1  C    0.000000
     2  H    1.064850   0.000000
     3  C    1.201535   2.265362   0.000000
     4  C    2.643998   3.708316   1.452909   0.000000
     5  O    3.373100   4.385944   2.327818   1.203341   0.000000
     6  O    3.456957   4.482576   2.312334   1.326451   2.248173
     7  C    4.828984   5.876120   3.643399   2.345358   2.667206
     8  C    5.778286   6.762825   4.675297   3.609338   4.142795
     9  H    5.134082   6.182933   3.956212   2.606036   2.620164
    10  H    5.134082   6.182933   3.956213   2.606038   2.620168
    11  H    5.795555   6.724347   4.773888   3.888103   4.557665
    12  H    5.795554   6.724347   4.773887   3.888101   4.557663
    13  H    6.779969   7.787090   5.641253   4.453892   4.775127
    14  O    2.283762   2.450457   2.716039   3.551197   3.494424
    15  H    2.578823   3.078983   2.557048   2.991301   2.679542
                    6          7          8          9         10
     6  O    0.000000
     7  C    1.442846   0.000000
     8  C    2.376117   1.510564   0.000000
     9  H    2.065935   1.091763   2.174357   0.000000
    10  H    2.065935   1.091762   2.174357   1.767713   0.000000
    11  H    2.632022   2.152455   1.090589   3.075575   2.515213
    12  H    2.632023   2.152455   1.090589   2.515213   3.075575
    13  H    3.329951   2.139724   1.091245   2.514827   2.514827
    14  O    4.801213   5.871436   7.152188   5.920995   5.920989
    15  H    4.306891   5.213464   6.582599   5.193699   5.193694
                   11         12         13         14         15
    11  H    0.000000
    12  H    1.772269   0.000000
    13  H    1.771852   1.771853   0.000000
    14  O    7.327947   7.327952   7.999386   0.000000
    15  H    6.834527   6.834532   7.353147   0.973990   0.000000
 Stoichiometry    C5H7O3(2)
 Framework group  C1[X(C5H7O3)]
 Deg. of freedom    39
 Full point group                 C1      NOp   1
 Largest Abelian subgroup         C1      NOp   1
 Largest concise Abelian subgroup C1      NOp   1
                         Standard orientation:                         
 ---------------------------------------------------------------------
 Center     Atomic      Atomic             Coordinates (Angstroms)
 Number     Number       Type             X           Y           Z
 ---------------------------------------------------------------------
      1          6           0       -2.251698   -1.329561   -0.000005
      2          1           0       -3.143135   -1.912008   -0.000005
      3          6           0       -1.208119   -0.734053   -0.000005
      4          6           0       -0.093935    0.198437   -0.000005
      5          8           0       -0.257152    1.390658   -0.000008
      6          8           0        1.082108   -0.415074    0.000001
      7          6           0        2.238066    0.448387    0.000002
      8          6           0        3.458068   -0.442342    0.000005
      9          1           0        2.190743    1.087529   -0.883855
     10          1           0        2.190740    1.087530    0.883858
     11          1           0        3.470180   -1.077954    0.886140
     12          1           0        3.470183   -1.077956   -0.886129
     13          1           0        4.359879    0.172111    0.000006
     14          8           0       -3.633230    0.488939    0.000012
     15          1           0       -2.926692    1.159357    0.000008
 ---------------------------------------------------------------------
 Rotational constants (GHZ):      6.0616273      0.8608688      0.7609805
 Standard basis: 6-311++G(d,p) (5D, 7F)
 There are   233 symmetry adapted cartesian basis functions of A   symmetry.
 There are   225 symmetry adapted basis functions of A   symmetry.
   225 basis functions,   351 primitive gaussians,   233 cartesian basis functions
    31 alpha electrons       30 beta electrons
       nuclear repulsion energy       342.4881583788 Hartrees.
 NAtoms=   15 NActive=   15 NUniq=   15 SFac= 1.00D+00 NAtFMM=   60 NAOKFM=F Big=F
 Integral buffers will be    262144 words long.
 Raffenetti 2 integral format.
 Two-electron integral symmetry is turned on.
 One-electron integrals computed using PRISM.
 NBasis=   225 RedAO= T EigKep=  1.28D-06  NBF=   225
 NBsUse=   225 1.00D-06 EigRej= -1.00D+00 NBFU=   225
 ExpMin= 3.60D-02 ExpMax= 8.59D+03 ExpMxC= 1.30D+03 IAcc=3 IRadAn=         5 AccDes= 0.00D+00
 Harris functional with IExCor= 1009 and IRadAn=       5 diagonalized for initial guess.
 HarFok:  IExCor= 1009 AccDes= 0.00D+00 IRadAn=         5 IDoV= 1 UseB2=F ITyADJ=14
 ICtDFT=  3500011 ScaDFX=  1.000000  1.000000  1.000000  1.000000
 FoFCou: FMM=F IPFlag=           0 FMFlag=      100000 FMFlg1=           0
         NFxFlg=           0 DoJE=T BraDBF=F KetDBF=T FulRan=T
         wScrn=  0.000000 ICntrl=     500 IOpCl=  0 I1Cent=   200000004 NGrid=           0
         NMat0=    1 NMatS0=      1 NMatT0=    0 NMatD0=    1 NMtDS0=    0 NMtDT0=    0
 Petite list used in FoFCou.
 Initial guess <Sx>= 0.0000 <Sy>= 0.0000 <Sz>= 0.5000 <S**2>= 0.7500 S= 0.5000
 Requested convergence on RMS density matrix=1.00D-08 within 128 cycles.
 Requested convergence on MAX density matrix=1.00D-06.
 Requested convergence on             energy=1.00D-06.
 No special actions if energy rises.
 SCF Done:  E(UM062X) =  -420.210100628     A.U. after   20 cycles
            NFock= 20  Conv=0.63D-08     -V/T= 2.0032
 <Sx>= 0.0000 <Sy>= 0.0000 <Sz>= 0.5000 <S**2>= 0.7572 S= 0.5036
 <L.S>= 0.000000000000E+00
 Annihilation of the first spin contaminant:
 S**2 before annihilation     0.7572,   after     0.7500
 DoSCS=F DFT=T ScalE2(SS,OS)=  1.000000  1.000000
 Range of M.O.s used for correlation:     1   225
 NBasis=   225 NAE=    31 NBE=    30 NFC=     0 NFV=     0
 NROrb=    225 NOA=    31 NOB=    30 NVA=   194 NVB=   195

 **** Warning!!: The largest alpha MO coefficient is  0.26010552D+03


 **** Warning!!: The largest beta MO coefficient is  0.25291042D+03

 Symmetrizing basis deriv contribution to polar:
 IMax=3 JMax=2 DiffMx= 0.00D+00
 G2DrvN: will do    16 centers at a time, making    1 passes.
 Calling FoFCou, ICntrl=  3107 FMM=F I1Cent=   0 AccDes= 0.00D+00.
 End of G2Drv F.D. properties file   721 does not exist.
 End of G2Drv F.D. properties file   722 does not exist.
 End of G2Drv F.D. properties file   788 does not exist.
          IDoAtm=111111111111111
          Differentiating once with respect to electric field.
                with respect to dipole field.
          Differentiating once with respect to nuclear coordinates.
          There are    48 degrees of freedom in the 1st order CPHF.  IDoFFX=6 NUNeed=     3.
     48 vectors produced by pass  0 Test12= 2.47D-14 2.08D-09 XBig12= 9.73D+01 3.60D+00.
 AX will form    48 AO Fock derivatives at one time.
     45 vectors produced by pass  1 Test12= 2.47D-14 2.08D-09 XBig12= 2.23D+01 9.79D-01.
     45 vectors produced by pass  2 Test12= 2.47D-14 2.08D-09 XBig12= 7.58D-01 1.36D-01.
     45 vectors produced by pass  3 Test12= 2.47D-14 2.08D-09 XBig12= 1.11D-02 2.11D-02.
     45 vectors produced by pass  4 Test12= 2.47D-14 2.08D-09 XBig12= 1.27D-04 1.48D-03.
     45 vectors produced by pass  5 Test12= 2.47D-14 2.08D-09 XBig12= 1.55D-06 2.08D-04.
     37 vectors produced by pass  6 Test12= 2.47D-14 2.08D-09 XBig12= 1.24D-08 1.53D-05.
     22 vectors produced by pass  7 Test12= 2.47D-14 2.08D-09 XBig12= 8.13D-11 1.22D-06.
      9 vectors produced by pass  8 Test12= 2.47D-14 2.08D-09 XBig12= 2.38D-12 2.13D-07.
      9 vectors produced by pass  9 Test12= 2.47D-14 2.08D-09 XBig12= 3.29D-13 8.14D-08.
      8 vectors produced by pass 10 Test12= 2.47D-14 2.08D-09 XBig12= 4.88D-14 2.53D-08.
      8 vectors produced by pass 11 Test12= 2.47D-14 2.08D-09 XBig12= 1.14D-14 1.88D-08.
      8 vectors produced by pass 12 Test12= 2.47D-14 2.08D-09 XBig12= 1.68D-15 4.86D-09.
      8 vectors produced by pass 13 Test12= 2.47D-14 2.08D-09 XBig12= 1.13D-15 5.83D-09.
      8 vectors produced by pass 14 Test12= 2.47D-14 2.08D-09 XBig12= 2.47D-15 7.14D-09.
      8 vectors produced by pass 15 Test12= 2.47D-14 2.08D-09 XBig12= 7.74D-16 4.28D-09.
      8 vectors produced by pass 16 Test12= 2.47D-14 2.08D-09 XBig12= 8.81D-16 3.52D-09.
      6 vectors produced by pass 17 Test12= 2.47D-14 2.08D-09 XBig12= 8.92D-16 3.86D-09.
      6 vectors produced by pass 18 Test12= 2.47D-14 2.08D-09 XBig12= 1.26D-15 5.20D-09.
      6 vectors produced by pass 19 Test12= 2.47D-14 2.08D-09 XBig12= 6.18D-16 3.61D-09.
      4 vectors produced by pass 20 Test12= 2.47D-14 2.08D-09 XBig12= 4.71D-16 2.40D-09.
      4 vectors produced by pass 21 Test12= 2.47D-14 2.08D-09 XBig12= 1.06D-15 3.78D-09.
      3 vectors produced by pass 22 Test12= 2.47D-14 2.08D-09 XBig12= 6.88D-16 4.36D-09.
      3 vectors produced by pass 23 Test12= 2.47D-14 2.08D-09 XBig12= 5.84D-16 3.37D-09.
      3 vectors produced by pass 24 Test12= 2.47D-14 2.08D-09 XBig12= 5.61D-16 2.96D-09.
      3 vectors produced by pass 25 Test12= 2.47D-14 2.08D-09 XBig12= 6.92D-16 3.57D-09.
      3 vectors produced by pass 26 Test12= 2.47D-14 2.08D-09 XBig12= 1.05D-15 4.47D-09.
      1 vectors produced by pass 27 Test12= 2.47D-14 2.08D-09 XBig12= 4.75D-16 2.33D-09.
 InvSVY:  IOpt=1 It=  1 EMax= 5.33D-15
 Solved reduced A of dimension   448 with    48 vectors.
 Isotropic polarizability for W=    0.000000       71.92 Bohr**3.
 End of Minotr F.D. properties file   721 does not exist.
 End of Minotr F.D. properties file   722 does not exist.
 End of Minotr F.D. properties file   788 does not exist.

 **********************************************************************

            Population analysis using the SCF density.

 **********************************************************************

 Orbital symmetries:
 Alpha Orbitals:
       Occupied  (A) (A) (A) (A) (A) (A) (A) (A) (A) (A) (A) (A)
                 (A) (A) (A) (A) (A) (A) (A) (A) (A) (A) (A) (A)
                 (A) (A) (A) (A) (A) (A) (A)
       Virtual   (A) (A) (A) (A) (A) (A) (A) (A) (A) (A) (A) (A)
                 (A) (A) (A) (A) (A) (A) (A) (A) (A) (A) (A) (A)
                 (A) (A) (A) (A) (A) (A) (A) (A) (A) (A) (A) (A)
                 (A) (A) (A) (A) (A) (A) (A) (A) (A) (A) (A) (A)
                 (A) (A) (A) (A) (A) (A) (A) (A) (A) (A) (A) (A)
                 (A) (A) (A) (A) (A) (A) (A) (A) (A) (A) (A) (A)
                 (A) (A) (A) (A) (A) (A) (A) (A) (A) (A) (A) (A)
                 (A) (A) (A) (A) (A) (A) (A) (A) (A) (A) (A) (A)
                 (A) (A) (A) (A) (A) (A) (A) (A) (A) (A) (A) (A)
                 (A) (A) (A) (A) (A) (A) (A) (A) (A) (A) (A) (A)
                 (A) (A) (A) (A) (A) (A) (A) (A) (A) (A) (A) (A)
                 (A) (A) (A) (A) (A) (A) (A) (A) (A) (A) (A) (A)
                 (A) (A) (A) (A) (A) (A) (A) (A) (A) (A) (A) (A)
                 (A) (A) (A) (A) (A) (A) (A) (A) (A) (A) (A) (A)
                 (A) (A) (A) (A) (A) (A) (A) (A) (A) (A) (A) (A)
                 (A) (A) (A) (A) (A) (A) (A) (A) (A) (A) (A) (A)
                 (A) (A)
 Beta  Orbitals:
       Occupied  (A) (A) (A) (A) (A) (A) (A) (A) (A) (A) (A) (A)
                 (A) (A) (A) (A) (A) (A) (A) (A) (A) (A) (A) (A)
                 (A) (A) (A) (A) (A) (A)
       Virtual   (A) (A) (A) (A) (A) (A) (A) (A) (A) (A) (A) (A)
                 (A) (A) (A) (A) (A) (A) (A) (A) (A) (A) (A) (A)
                 (A) (A) (A) (A) (A) (A) (A) (A) (A) (A) (A) (A)
                 (A) (A) (A) (A) (A) (A) (A) (A) (A) (A) (A) (A)
                 (A) (A) (A) (A) (A) (A) (A) (A) (A) (A) (A) (A)
                 (A) (A) (A) (A) (A) (A) (A) (A) (A) (A) (A) (A)
                 (A) (A) (A) (A) (A) (A) (A) (A) (A) (A) (A) (A)
                 (A) (A) (A) (A) (A) (A) (A) (A) (A) (A) (A) (A)
                 (A) (A) (A) (A) (A) (A) (A) (A) (A) (A) (A) (A)
                 (A) (A) (A) (A) (A) (A) (A) (A) (A) (A) (A) (A)
                 (A) (A) (A) (A) (A) (A) (A) (A) (A) (A) (A) (A)
                 (A) (A) (A) (A) (A) (A) (A) (A) (A) (A) (A) (A)
                 (A) (A) (A) (A) (A) (A) (A) (A) (A) (A) (A) (A)
                 (A) (A) (A) (A) (A) (A) (A) (A) (A) (A) (A) (A)
                 (A) (A) (A) (A) (A) (A) (A) (A) (A) (A) (A) (A)
                 (A) (A) (A) (A) (A) (A) (A) (A) (A) (A) (A) (A)
                 (A) (A) (A)
 The electronic state is 2-A.
 Alpha  occ. eigenvalues --  -19.69398 -19.66402 -19.64286 -10.71598 -10.61420
 Alpha  occ. eigenvalues --  -10.58254 -10.57365 -10.54684  -1.26814  -1.17426
 Alpha  occ. eigenvalues --   -1.12091  -0.91442  -0.88171  -0.78315  -0.70760
 Alpha  occ. eigenvalues --   -0.66563  -0.61630  -0.60170  -0.58699  -0.54074
 Alpha  occ. eigenvalues --   -0.52508  -0.50173  -0.49402  -0.47705  -0.44960
 Alpha  occ. eigenvalues --   -0.44270  -0.41974  -0.40169  -0.39682  -0.37544
 Alpha  occ. eigenvalues --   -0.35337
 Alpha virt. eigenvalues --   -0.02183  -0.00622   0.00787   0.01634   0.01880
 Alpha virt. eigenvalues --    0.02642   0.03408   0.05084   0.05297   0.06362
 Alpha virt. eigenvalues --    0.06676   0.07041   0.08008   0.08819   0.10040
 Alpha virt. eigenvalues --    0.10222   0.12348   0.12428   0.12616   0.13035
 Alpha virt. eigenvalues --    0.13187   0.13977   0.14607   0.14737   0.15773
 Alpha virt. eigenvalues --    0.17411   0.17759   0.17816   0.18946   0.20241
 Alpha virt. eigenvalues --    0.21041   0.21624   0.22473   0.22726   0.23173
 Alpha virt. eigenvalues --    0.23891   0.24675   0.26138   0.28584   0.28920
 Alpha virt. eigenvalues --    0.30657   0.30750   0.31153   0.31443   0.31672
 Alpha virt. eigenvalues --    0.33557   0.34705   0.35166   0.37604   0.38451
 Alpha virt. eigenvalues --    0.40559   0.43468   0.45197   0.45207   0.49900
 Alpha virt. eigenvalues --    0.51832   0.52585   0.54646   0.55735   0.57578
 Alpha virt. eigenvalues --    0.61901   0.63025   0.63110   0.66262   0.67688
 Alpha virt. eigenvalues --    0.67729   0.68865   0.69154   0.69645   0.70297
 Alpha virt. eigenvalues --    0.70783   0.73645   0.76021   0.80125   0.81583
 Alpha virt. eigenvalues --    0.85545   0.89511   0.90164   0.95040   1.02646
 Alpha virt. eigenvalues --    1.03110   1.04704   1.07745   1.08068   1.10985
 Alpha virt. eigenvalues --    1.12349   1.15047   1.15512   1.18765   1.19940
 Alpha virt. eigenvalues --    1.22138   1.23629   1.27735   1.28596   1.29947
 Alpha virt. eigenvalues --    1.32496   1.35637   1.37995   1.40386   1.41159
 Alpha virt. eigenvalues --    1.45828   1.45930   1.49364   1.50159   1.54950
 Alpha virt. eigenvalues --    1.57336   1.57879   1.57984   1.61792   1.63077
 Alpha virt. eigenvalues --    1.65384   1.67135   1.68928   1.70204   1.75360
 Alpha virt. eigenvalues --    1.75909   1.79535   1.84341   1.84575   1.87339
 Alpha virt. eigenvalues --    1.93219   1.95585   2.00267   2.01210   2.05410
 Alpha virt. eigenvalues --    2.12187   2.12891   2.14217   2.19577   2.26608
 Alpha virt. eigenvalues --    2.35893   2.40837   2.48536   2.48625   2.50970
 Alpha virt. eigenvalues --    2.53973   2.58009   2.58809   2.61936   2.64151
 Alpha virt. eigenvalues --    2.65040   2.65944   2.67040   2.69081   2.71528
 Alpha virt. eigenvalues --    2.80136   2.83594   2.86253   2.88205   2.89256
 Alpha virt. eigenvalues --    2.93170   2.95664   2.97181   3.02546   3.03224
 Alpha virt. eigenvalues --    3.09029   3.11503   3.12296   3.17509   3.18203
 Alpha virt. eigenvalues --    3.24206   3.27346   3.30460   3.35229   3.38581
 Alpha virt. eigenvalues --    3.42247   3.53354   3.66827   3.74828   3.83166
 Alpha virt. eigenvalues --    3.84923   3.85043   3.87842   4.08164   4.13064
 Alpha virt. eigenvalues --    4.17851   4.29758   5.04879   5.10931   5.11374
 Alpha virt. eigenvalues --    5.14975   5.32931   5.44923   5.55504   5.72960
 Alpha virt. eigenvalues --    5.94186  23.63386  23.91711  23.94949  24.04987
 Alpha virt. eigenvalues --   25.14198  49.93367  49.99233  50.11095
  Beta  occ. eigenvalues --  -19.69392 -19.64839 -19.64272 -10.71608 -10.61419
  Beta  occ. eigenvalues --  -10.58259 -10.57259 -10.54684  -1.26792  -1.17384
  Beta  occ. eigenvalues --   -1.04513  -0.91216  -0.87898  -0.78247  -0.70691
  Beta  occ. eigenvalues --   -0.66508  -0.61385  -0.60150  -0.58636  -0.52465
  Beta  occ. eigenvalues --   -0.51041  -0.50098  -0.47827  -0.44922  -0.44255
  Beta  occ. eigenvalues --   -0.40665  -0.39669  -0.39281  -0.37267  -0.36513
  Beta virt. eigenvalues --   -0.07948  -0.02144  -0.00598   0.00955   0.01729
  Beta virt. eigenvalues --    0.01884   0.02751   0.03787   0.05306   0.05637
  Beta virt. eigenvalues --    0.06456   0.06801   0.07064   0.08418   0.08913
  Beta virt. eigenvalues --    0.10219   0.10328   0.12451   0.12562   0.12748
  Beta virt. eigenvalues --    0.13184   0.13400   0.14112   0.14653   0.14715
  Beta virt. eigenvalues --    0.16123   0.17559   0.17930   0.17951   0.19021
  Beta virt. eigenvalues --    0.20253   0.20946   0.22297   0.22424   0.22995
  Beta virt. eigenvalues --    0.23225   0.23759   0.24737   0.26188   0.28392
  Beta virt. eigenvalues --    0.28878   0.30180   0.30693   0.31156   0.31718
  Beta virt. eigenvalues --    0.31730   0.33673   0.34931   0.35177   0.37744
  Beta virt. eigenvalues --    0.38596   0.40613   0.43498   0.45208   0.45365
  Beta virt. eigenvalues --    0.49910   0.51913   0.52587   0.54732   0.55764
  Beta virt. eigenvalues --    0.57666   0.62059   0.63107   0.63646   0.66417
  Beta virt. eigenvalues --    0.67759   0.67907   0.68868   0.69278   0.69673
  Beta virt. eigenvalues --    0.70333   0.70956   0.73761   0.76099   0.80164
  Beta virt. eigenvalues --    0.81727   0.85751   0.89729   0.90230   0.95184
  Beta virt. eigenvalues --    1.02659   1.03200   1.07194   1.08235   1.08855
  Beta virt. eigenvalues --    1.11196   1.12899   1.15181   1.16246   1.18953
  Beta virt. eigenvalues --    1.19993   1.22151   1.23700   1.28321   1.28596
  Beta virt. eigenvalues --    1.30203   1.32776   1.36960   1.38043   1.40678
  Beta virt. eigenvalues --    1.41363   1.45915   1.47083   1.49364   1.51198
  Beta virt. eigenvalues --    1.55285   1.57339   1.58000   1.58005   1.61854
  Beta virt. eigenvalues --    1.63173   1.65429   1.67454   1.68942   1.70235
  Beta virt. eigenvalues --    1.75829   1.75913   1.80211   1.84448   1.84629
  Beta virt. eigenvalues --    1.87389   1.93306   1.95645   2.00410   2.01211
  Beta virt. eigenvalues --    2.05468   2.12839   2.13689   2.14278   2.19582
  Beta virt. eigenvalues --    2.26609   2.35898   2.40899   2.48628   2.48746
  Beta virt. eigenvalues --    2.51033   2.53977   2.58010   2.58895   2.61959
  Beta virt. eigenvalues --    2.64151   2.65088   2.66045   2.67035   2.69195
  Beta virt. eigenvalues --    2.71521   2.80555   2.83848   2.88338   2.89260
  Beta virt. eigenvalues --    2.91246   2.95795   2.97095   2.99868   3.02661
  Beta virt. eigenvalues --    3.04052   3.09754   3.11529   3.13169   3.19288
  Beta virt. eigenvalues --    3.20792   3.25051   3.27346   3.30550   3.35304
  Beta virt. eigenvalues --    3.38723   3.42266   3.53448   3.66888   3.74929
  Beta virt. eigenvalues --    3.83169   3.84924   3.85047   3.91444   4.08192
  Beta virt. eigenvalues --    4.13093   4.18021   4.29778   5.06461   5.10954
  Beta virt. eigenvalues --    5.15001   5.20381   5.33096   5.44948   5.57776
  Beta virt. eigenvalues --    5.73005   5.94203  23.63410  23.91715  23.94958
  Beta virt. eigenvalues --   24.04987  25.14276  49.92897  49.99232  50.11082
          Condensed to atoms (all electrons):
               1          2          3          4          5          6
     1  C   32.708777   0.731885 -11.168021 -15.013412   0.505244   0.280961
     2  H    0.731885   0.421613  -0.279899  -0.051421   0.000094  -0.000411
     3  C  -11.168021  -0.279899  19.267796  -3.840191   0.431321   0.029582
     4  C  -15.013412  -0.051421  -3.840191  26.101126  -0.575273  -0.627129
     5  O    0.505244   0.000094   0.431321  -0.575273   8.092496  -0.122138
     6  O    0.280961  -0.000411   0.029582  -0.627129  -0.122138   8.420151
     7  C    0.210465   0.003287  -0.358381  -0.265467  -0.064322   0.291271
     8  C   -0.133368  -0.000369  -0.255941   0.517923   0.003548  -0.229015
     9  H    0.003600   0.000022  -0.004656  -0.020322  -0.011567  -0.031671
    10  H    0.003601   0.000022  -0.004655  -0.020324  -0.011567  -0.031671
    11  H    0.001590   0.000027   0.010429  -0.013551  -0.001205  -0.008589
    12  H    0.001590   0.000027   0.010429  -0.013552  -0.001205  -0.008589
    13  H   -0.001147  -0.000024   0.002070   0.002453   0.001295   0.022383
    14  O    0.099673  -0.011171  -0.071272  -0.076065   0.001394  -0.002146
    15  H   -0.025981   0.000658   0.011788   0.019127   0.008559   0.000344
               7          8          9         10         11         12
     1  C    0.210465  -0.133368   0.003600   0.003601   0.001590   0.001590
     2  H    0.003287  -0.000369   0.000022   0.000022   0.000027   0.000027
     3  C   -0.358381  -0.255941  -0.004656  -0.004655   0.010429   0.010429
     4  C   -0.265467   0.517923  -0.020322  -0.020324  -0.013551  -0.013552
     5  O   -0.064322   0.003548  -0.011567  -0.011567  -0.001205  -0.001205
     6  O    0.291271  -0.229015  -0.031671  -0.031671  -0.008589  -0.008589
     7  C    5.457915   0.070418   0.437360   0.437361  -0.018159  -0.018159
     8  C    0.070418   5.565444  -0.053229  -0.053230   0.390307   0.390307
     9  H    0.437360  -0.053229   0.533151  -0.050667   0.006780  -0.010617
    10  H    0.437361  -0.053230  -0.050667   0.533151  -0.010617   0.006780
    11  H   -0.018159   0.390307   0.006780  -0.010617   0.536035  -0.039379
    12  H   -0.018159   0.390307  -0.010617   0.006780  -0.039379   0.536035
    13  H   -0.057527   0.412433  -0.004345  -0.004345  -0.030885  -0.030885
    14  O    0.001087  -0.000088  -0.000096  -0.000096  -0.000007  -0.000007
    15  H   -0.000526   0.000473   0.000005   0.000005  -0.000031  -0.000031
              13         14         15
     1  C   -0.001147   0.099673  -0.025981
     2  H   -0.000024  -0.011171   0.000658
     3  C    0.002070  -0.071272   0.011788
     4  C    0.002453  -0.076065   0.019127
     5  O    0.001295   0.001394   0.008559
     6  O    0.022383  -0.002146   0.000344
     7  C   -0.057527   0.001087  -0.000526
     8  C    0.412433  -0.000088   0.000473
     9  H   -0.004345  -0.000096   0.000005
    10  H   -0.004345  -0.000096   0.000005
    11  H   -0.030885  -0.000007  -0.000031
    12  H   -0.030885  -0.000007  -0.000031
    13  H    0.520120   0.000002   0.000002
    14  O    0.000002   8.062281   0.270054
    15  H    0.000002   0.270054   0.461051
          Atomic-Atomic Spin Densities.
               1          2          3          4          5          6
     1  C    0.095669   0.030890  -0.013850  -0.271071   0.033559   0.000498
     2  H    0.030890   0.007040  -0.026668  -0.006122   0.000476  -0.000327
     3  C   -0.013850  -0.026668   0.243822   0.048430  -0.007893  -0.012696
     4  C   -0.271071  -0.006122   0.048430   0.304756  -0.040019   0.019367
     5  O    0.033559   0.000476  -0.007893  -0.040019   0.015107  -0.001119
     6  O    0.000498  -0.000327  -0.012696   0.019367  -0.001119  -0.003018
     7  C    0.035282   0.000493   0.001426  -0.058248   0.000803  -0.002523
     8  C   -0.006584  -0.000089  -0.004365   0.016410  -0.000331   0.001672
     9  H   -0.001382  -0.000010  -0.000460   0.002571   0.000041   0.000045
    10  H   -0.001382  -0.000010  -0.000460   0.002571   0.000041   0.000045
    11  H   -0.000166  -0.000001  -0.000348   0.000704  -0.000014  -0.000052
    12  H   -0.000166  -0.000001  -0.000348   0.000704  -0.000014  -0.000052
    13  H    0.000523   0.000003   0.000242  -0.001610  -0.000016  -0.000050
    14  O    0.120343   0.005202  -0.145396  -0.051163   0.003266  -0.000406
    15  H   -0.026379  -0.000634   0.008380   0.024094  -0.000607  -0.000005
               7          8          9         10         11         12
     1  C    0.035282  -0.006584  -0.001382  -0.001382  -0.000166  -0.000166
     2  H    0.000493  -0.000089  -0.000010  -0.000010  -0.000001  -0.000001
     3  C    0.001426  -0.004365  -0.000460  -0.000460  -0.000348  -0.000348
     4  C   -0.058248   0.016410   0.002571   0.002571   0.000704   0.000704
     5  O    0.000803  -0.000331   0.000041   0.000041  -0.000014  -0.000014
     6  O   -0.002523   0.001672   0.000045   0.000045  -0.000052  -0.000052
     7  C    0.036771  -0.012380  -0.001538  -0.001538  -0.000462  -0.000462
     8  C   -0.012380   0.005581   0.000744   0.000744   0.000299   0.000299
     9  H   -0.001538   0.000744   0.000187  -0.000102   0.000038  -0.000026
    10  H   -0.001538   0.000744  -0.000102   0.000187  -0.000026   0.000038
    11  H   -0.000462   0.000299   0.000038  -0.000026   0.000032  -0.000016
    12  H   -0.000462   0.000299  -0.000026   0.000038  -0.000016   0.000032
    13  H    0.001803  -0.001056  -0.000046  -0.000046  -0.000044  -0.000044
    14  O    0.001440  -0.000152  -0.000010  -0.000010  -0.000001  -0.000001
    15  H   -0.000842   0.000205   0.000029   0.000029   0.000002   0.000002
              13         14         15
     1  C    0.000523   0.120343  -0.026379
     2  H    0.000003   0.005202  -0.000634
     3  C    0.000242  -0.145396   0.008380
     4  C   -0.001610  -0.051163   0.024094
     5  O   -0.000016   0.003266  -0.000607
     6  O   -0.000050  -0.000406  -0.000005
     7  C    0.001803   0.001440  -0.000842
     8  C   -0.001056  -0.000152   0.000205
     9  H   -0.000046  -0.000010   0.000029
    10  H   -0.000046  -0.000010   0.000029
    11  H   -0.000044  -0.000001   0.000002
    12  H   -0.000044  -0.000001   0.000002
    13  H    0.000343   0.000003  -0.000012
    14  O    0.000003   0.983858   0.008348
    15  H   -0.000012   0.008348  -0.030867
 Mulliken charges and spin densities:
               1          2
     1  C   -2.205459  -0.004217
     2  H    0.185661   0.010241
     3  C    2.219598   0.089816
     4  C   -0.123924  -0.008626
     5  O   -0.256673   0.003282
     6  O    0.016665   0.001376
     7  C   -0.126623   0.000026
     8  C   -0.625613   0.000998
     9  H    0.206252   0.000080
    10  H    0.206253   0.000080
    11  H    0.177255  -0.000056
    12  H    0.177255  -0.000056
    13  H    0.168398  -0.000009
    14  O   -0.273545   0.925320
    15  H    0.254499  -0.018257
 Sum of Mulliken charges =   0.00000   1.00000
 Mulliken charges and spin densities with hydrogens summed into heavy atoms:
               1          2
     1  C   -2.019798   0.006025
     3  C    2.219598   0.089816
     4  C   -0.123924  -0.008626
     5  O   -0.256673   0.003282
     6  O    0.016665   0.001376
     7  C    0.285882   0.000186
     8  C   -0.102705   0.000877
    14  O   -0.019046   0.907063
 APT charges:
               1
     1  C   -0.209259
     2  H    0.247360
     3  C   -0.339521
     4  C    1.530094
     5  O   -0.802725
     6  O   -1.003890
     7  C    0.556173
     8  C    0.004255
     9  H   -0.026801
    10  H   -0.026816
    11  H    0.013307
    12  H    0.013420
    13  H    0.007497
    14  O   -0.260903
    15  H    0.297808
 Sum of APT charges =   0.00000
 APT charges with hydrogens summed into heavy atoms:
               1
     1  C    0.038101
     3  C   -0.339521
     4  C    1.530094
     5  O   -0.802725
     6  O   -1.003890
     7  C    0.502556
     8  C    0.038479
    14  O    0.036905
 Electronic spatial extent (au):  <R**2>=           1446.3519
 Charge=              0.0000 electrons
 Dipole moment (field-independent basis, Debye):
    X=              2.9390    Y=             -0.9249    Z=              0.0000  Tot=              3.0811
 Quadrupole moment (field-independent basis, Debye-Ang):
   XX=            -45.3791   YY=            -47.4708   ZZ=            -47.7865
   XY=              4.9881   XZ=              0.0000   YZ=              0.0000
 Traceless Quadrupole moment (field-independent basis, Debye-Ang):
   XX=              1.4997   YY=             -0.5920   ZZ=             -0.9077
   XY=              4.9881   XZ=              0.0000   YZ=              0.0000
 Octapole moment (field-independent basis, Debye-Ang**2):
  XXX=             43.5859  YYY=              0.6999  ZZZ=              0.0000  XYY=            -15.9434
  XXY=             -7.7551  XXZ=             -0.0002  XZZ=              4.2616  YZZ=              3.3147
  YYZ=              0.0001  XYZ=             -0.0001
 Hexadecapole moment (field-independent basis, Debye-Ang**3):
 XXXX=          -1633.5335 YYYY=           -252.1558 ZZZZ=            -61.0994 XXXY=             53.0157
 XXXZ=              0.0007 YYYX=              2.4930 YYYZ=              0.0001 ZZZX=              0.0000
 ZZZY=             -0.0001 XXYY=           -241.3589 XXZZ=           -282.2061 YYZZ=            -51.9980
 XXYZ=              0.0002 YYXZ=             -0.0001 ZZXY=             -4.6792
 N-N= 3.424881583788D+02 E-N=-1.669470998638D+03  KE= 4.188771626758D+02
  Exact polarizability:  98.870   3.747  69.085   0.006  -0.002  47.814
 Approx polarizability:  98.510   9.279  86.474   0.000   0.000  56.559
                          Isotropic Fermi Contact Couplings
        Atom                 a.u.       MegaHertz       Gauss      10(-4) cm-1
     1  C(13)              0.01777      19.97604       7.12795       6.66329
     2  H(1)               0.00373      16.68171       5.95245       5.56442
     3  C(13)              0.02314      26.01414       9.28249       8.67738
     4  C(13)             -0.00604      -6.78570      -2.42131      -2.26347
     5  O(17)              0.00169      -1.02724      -0.36655      -0.34265
     6  O(17)              0.00657      -3.98541      -1.42209      -1.32939
     7  C(13)              0.00072       0.80577       0.28752       0.26877
     8  C(13)              0.00001       0.01256       0.00448       0.00419
     9  H(1)               0.00000      -0.00754      -0.00269      -0.00252
    10  H(1)               0.00000      -0.00754      -0.00269      -0.00252
    11  H(1)               0.00000      -0.00676      -0.00241      -0.00226
    12  H(1)               0.00000      -0.00676      -0.00241      -0.00226
    13  H(1)               0.00001       0.06544       0.02335       0.02183
    14  O(17)              0.12751     -77.29361     -27.58028     -25.78237
    15  H(1)              -0.01503     -67.18582     -23.97357     -22.41078
 --------------------------------------------------------
       Center         ----  Spin Dipole Couplings  ----
                      3XX-RR        3YY-RR        3ZZ-RR
 --------------------------------------------------------
     1   Atom        0.014956      0.014868     -0.029823
     2   Atom       -0.009057      0.017831     -0.008773
     3   Atom        0.018956      0.054565     -0.073522
     4   Atom        0.008314     -0.001543     -0.006771
     5   Atom        0.007091     -0.000768     -0.006323
     6   Atom        0.005575     -0.002302     -0.003273
     7   Atom        0.002612     -0.001094     -0.001518
     8   Atom        0.001163     -0.000553     -0.000610
     9   Atom        0.001485     -0.000663     -0.000822
    10   Atom        0.001485     -0.000663     -0.000822
    11   Atom        0.000935     -0.000454     -0.000481
    12   Atom        0.000935     -0.000454     -0.000481
    13   Atom        0.000719     -0.000344     -0.000375
    14   Atom        0.855103      0.945541     -1.800645
    15   Atom        0.060735      0.064144     -0.124879
 --------------------------------------------------------
                        XY            XZ            YZ
 --------------------------------------------------------
     1   Atom        0.007596      0.000000      0.000000
     2   Atom       -0.002559      0.000000      0.000000
     3   Atom       -0.133884     -0.000001      0.000001
     4   Atom        0.001355      0.000000      0.000000
     5   Atom        0.020626     -0.000001      0.000000
     6   Atom        0.004081      0.000000      0.000000
     7   Atom        0.000966      0.000000      0.000000
     8   Atom       -0.000140      0.000000      0.000000
     9   Atom        0.000527     -0.000480     -0.000192
    10   Atom        0.000527      0.000480      0.000192
    11   Atom       -0.000243      0.000229     -0.000043
    12   Atom       -0.000243     -0.000229      0.000043
    13   Atom        0.000024      0.000000      0.000000
    14   Atom       -2.702461     -0.000027      0.000027
    15   Atom        0.105351     -0.000001      0.000000
 --------------------------------------------------------


 ---------------------------------------------------------------------------------
              Anisotropic Spin Dipole Couplings in Principal Axis System
 ---------------------------------------------------------------------------------

       Atom             a.u.   MegaHertz   Gauss  10(-4) cm-1        Axes

              Baa    -0.0298    -4.002    -1.428    -1.335  0.0000  0.0000  1.0000
     1 C(13)  Bbb     0.0073     0.982     0.350     0.327 -0.7050  0.7092  0.0000
              Bcc     0.0225     3.020     1.078     1.007  0.7092  0.7050  0.0000
 
              Baa    -0.0093    -4.961    -1.770    -1.655  0.9956  0.0939  0.0000
     2 H(1)   Bbb    -0.0088    -4.681    -1.670    -1.561  0.0000  0.0000  1.0000
              Bcc     0.0181     9.642     3.441     3.216 -0.0939  0.9956  0.0000
 
              Baa    -0.0983   -13.191    -4.707    -4.400  0.7523  0.6589  0.0000
     3 C(13)  Bbb    -0.0735    -9.866    -3.520    -3.291  0.0000  0.0000  1.0000
              Bcc     0.1718    23.057     8.227     7.691 -0.6589  0.7523  0.0000
 
              Baa    -0.0068    -0.909    -0.324    -0.303  0.0000  0.0000  1.0000
     4 C(13)  Bbb    -0.0017    -0.232    -0.083    -0.077 -0.1338  0.9910  0.0000
              Bcc     0.0085     1.140     0.407     0.380  0.9910  0.1338  0.0000
 
              Baa    -0.0178     1.291     0.461     0.430 -0.6375  0.7704  0.0000
     5 O(17)  Bbb    -0.0063     0.458     0.163     0.153  0.0000  0.0000  1.0000
              Bcc     0.0242    -1.748    -0.624    -0.583  0.7704  0.6375  0.0000
 
              Baa    -0.0040     0.292     0.104     0.097 -0.3909  0.9204 -0.0001
     6 O(17)  Bbb    -0.0033     0.237     0.085     0.079 -0.0001  0.0001  1.0000
              Bcc     0.0073    -0.529    -0.189    -0.176  0.9204  0.3909  0.0000
 
              Baa    -0.0015    -0.204    -0.073    -0.068  0.0000  0.0000  1.0000
     7 C(13)  Bbb    -0.0013    -0.179    -0.064    -0.060 -0.2380  0.9713  0.0000
              Bcc     0.0028     0.382     0.136     0.128  0.9713  0.2380  0.0000
 
              Baa    -0.0006    -0.082    -0.029    -0.027  0.0000  0.0000  1.0000
     8 C(13)  Bbb    -0.0006    -0.076    -0.027    -0.025  0.0806  0.9967  0.0000
              Bcc     0.0012     0.158     0.056     0.053  0.9967 -0.0806  0.0000
 
              Baa    -0.0010    -0.512    -0.183    -0.171  0.0821  0.4358  0.8963
     9 H(1)   Bbb    -0.0008    -0.401    -0.143    -0.134 -0.2905  0.8707 -0.3968
              Bcc     0.0017     0.913     0.326     0.305  0.9533  0.2278 -0.1981
 
              Baa    -0.0010    -0.512    -0.183    -0.171 -0.0821 -0.4358  0.8963
    10 H(1)   Bbb    -0.0008    -0.401    -0.143    -0.134 -0.2905  0.8707  0.3968
              Bcc     0.0017     0.913     0.326     0.305  0.9533  0.2278  0.1981
 
              Baa    -0.0005    -0.276    -0.099    -0.092 -0.1227  0.1855  0.9749
    11 H(1)   Bbb    -0.0005    -0.264    -0.094    -0.088  0.1905  0.9685 -0.1603
              Bcc     0.0010     0.540     0.193     0.180  0.9740 -0.1661  0.1542
 
              Baa    -0.0005    -0.276    -0.099    -0.092  0.1227 -0.1856  0.9749
    12 H(1)   Bbb    -0.0005    -0.264    -0.094    -0.088  0.1905  0.9685  0.1603
              Bcc     0.0010     0.540     0.193     0.180  0.9740 -0.1661 -0.1542
 
              Baa    -0.0004    -0.200    -0.071    -0.067  0.0000  0.0000  1.0000
    13 H(1)   Bbb    -0.0003    -0.184    -0.066    -0.061 -0.0229  0.9997  0.0000
              Bcc     0.0007     0.384     0.137     0.128  0.9997  0.0229  0.0000
 
              Baa    -1.8025   130.429    46.540    43.506  0.7130  0.7012  0.0000
    14 O(17)  Bbb    -1.8006   130.293    46.492    43.461  0.0000  0.0000  1.0000
              Bcc     3.6032  -260.722   -93.032   -86.968 -0.7012  0.7130  0.0000
 
              Baa    -0.1249   -66.629   -23.775   -22.225  0.0000  0.0000  1.0000
    15 H(1)   Bbb    -0.0429   -22.903    -8.172    -7.640  0.7128 -0.7014  0.0000
              Bcc     0.1678    89.533    31.947    29.865  0.7014  0.7128  0.0000
 

 ---------------------------------------------------------------------------------

 Calling FoFJK, ICntrl=    100127 FMM=F ISym2X=0 I1Cent= 0 IOpClX= 1 NMat=1 NMatS=1 NMatT=0.
 Full mass-weighted force constant matrix:
 Low frequencies ---  -74.8304  -60.3445   -7.0484   -0.0009   -0.0007    0.0008
 Low frequencies ---   10.4163   37.1726   80.8146
 ******    2 imaginary frequencies (negative Signs) ****** 
 Diagonal vibrational polarizability:
       38.7933308      16.3775449      47.2602263
 Harmonic frequencies (cm**-1), IR intensities (KM/Mole), Raman scattering
 activities (A**4/AMU), depolarization ratios for plane and unpolarized
 incident light, reduced masses (AMU), force constants (mDyne/A),
 and normal coordinates:
                      1                      2                      3
                      A                      A                      A
 Frequencies --    -56.1316               -48.2474                80.8074
 Red. masses --      7.0333                 7.4731                 3.3995
 Frc consts  --      0.0131                 0.0102                 0.0131
 IR Inten    --      1.1396                 0.2854                 0.0142
  Atom  AN      X      Y      Z        X      Y      Z        X      Y      Z
     1   6     0.06   0.12   0.00     0.00   0.00   0.22     0.00   0.00  -0.06
     2   1     0.13   0.02   0.00     0.00   0.00   0.24     0.00   0.00  -0.10
     3   6     0.02   0.21   0.00     0.00   0.00   0.20     0.00   0.00  -0.01
     4   6     0.08   0.14   0.00     0.00   0.00   0.17     0.00   0.00   0.01
     5   8     0.18   0.15   0.00     0.00   0.00   0.30     0.00   0.00  -0.18
     6   8     0.02   0.03   0.00     0.00   0.00  -0.01     0.00   0.00   0.25
     7   6     0.10  -0.07   0.00     0.00   0.00  -0.03     0.00   0.00   0.20
     8   6     0.02  -0.17   0.00     0.00   0.00  -0.27     0.00   0.00  -0.22
     9   1     0.15  -0.06   0.00    -0.10   0.10   0.04    -0.17   0.18   0.34
    10   1     0.15  -0.06   0.00     0.10  -0.10   0.04     0.17  -0.18   0.34
    11   1    -0.03  -0.17   0.00     0.09  -0.10  -0.34     0.17  -0.19  -0.36
    12   1    -0.03  -0.17   0.00    -0.09   0.10  -0.34    -0.17   0.19  -0.36
    13   1     0.07  -0.24   0.00     0.00   0.00  -0.29     0.00   0.00  -0.26
    14   8    -0.40  -0.30   0.00     0.00   0.00  -0.45     0.00   0.00   0.01
    15   1    -0.60  -0.09   0.00     0.00   0.00  -0.25     0.00   0.00  -0.08
                      4                      5                      6
                      A                      A                      A
 Frequencies --    132.0526               144.3283               225.8649
 Red. masses --      2.3484                 5.0247                 8.7483
 Frc consts  --      0.0241                 0.0617                 0.2629
 IR Inten    --      7.2552                 4.0121                 0.5486
  Atom  AN      X      Y      Z        X      Y      Z        X      Y      Z
     1   6     0.00   0.00  -0.17     0.13  -0.14   0.00    -0.30   0.41   0.00
     2   1     0.00   0.00  -0.34     0.22  -0.28   0.00    -0.26   0.34   0.00
     3   6     0.00   0.00   0.05     0.00   0.08   0.00    -0.12   0.12   0.00
     4   6     0.00   0.00   0.11    -0.07   0.17   0.00    -0.01  -0.02   0.00
     5   8     0.00   0.00   0.04    -0.09   0.16   0.00     0.14   0.00   0.00
     6   8     0.00   0.00   0.18    -0.09   0.15   0.00    -0.06  -0.12   0.00
     7   6     0.00   0.00  -0.17     0.00   0.00   0.00    -0.10  -0.05   0.00
     8   6     0.00   0.00  -0.03    -0.16  -0.24   0.00     0.01   0.12   0.00
     9   1    -0.09  -0.27  -0.36     0.10   0.00   0.00    -0.16  -0.05   0.01
    10   1     0.09   0.27  -0.36     0.10   0.00   0.00    -0.16  -0.05  -0.01
    11   1     0.10   0.29   0.18    -0.30  -0.24   0.00     0.12   0.12   0.00
    12   1    -0.10  -0.29   0.18    -0.30  -0.24   0.00     0.12   0.12   0.00
    13   1     0.00   0.00  -0.32    -0.03  -0.43   0.00    -0.09   0.27   0.00
    14   8     0.00   0.00   0.00     0.26  -0.14   0.00     0.34  -0.37   0.00
    15   1     0.00   0.00  -0.01     0.21  -0.08   0.00     0.09  -0.12   0.00
                      7                      8                      9
                      A                      A                      A
 Frequencies --    269.6280               273.0584               310.3819
 Red. masses --      1.4084                 5.4401                 2.6905
 Frc consts  --      0.0603                 0.2390                 0.1527
 IR Inten    --      1.0165                 8.3522                 0.2925
  Atom  AN      X      Y      Z        X      Y      Z        X      Y      Z
     1   6     0.00   0.00   0.07     0.15  -0.27   0.00     0.00   0.00  -0.11
     2   1     0.00   0.00   0.23     0.25  -0.42   0.00     0.00   0.00  -0.41
     3   6     0.00   0.00  -0.15    -0.12   0.18   0.00     0.00   0.00   0.29
     4   6     0.00   0.00  -0.05    -0.02   0.05   0.00     0.00   0.00   0.03
     5   8     0.00   0.00   0.04     0.29   0.09   0.00     0.00   0.00  -0.07
     6   8     0.00   0.00   0.00    -0.13  -0.17   0.00     0.00   0.00  -0.17
     7   6     0.00   0.00   0.06    -0.19  -0.10   0.00     0.00   0.00   0.09
     8   6     0.00   0.00   0.00    -0.03   0.14   0.00     0.00   0.00   0.01
     9   1     0.00   0.03   0.08    -0.27  -0.09   0.01     0.08   0.17   0.21
    10   1     0.00  -0.03   0.08    -0.27  -0.09  -0.01    -0.08  -0.17   0.21
    11   1     0.33   0.34   0.23     0.13   0.15   0.00     0.27   0.24   0.18
    12   1    -0.33  -0.34   0.23     0.13   0.15   0.00    -0.27  -0.24   0.18
    13   1     0.00   0.00  -0.58    -0.18   0.36   0.00     0.00   0.00  -0.44
    14   8     0.00   0.00   0.00     0.03   0.06   0.00     0.00   0.00   0.00
    15   1     0.00   0.00   0.02    -0.01   0.10   0.00     0.00   0.00   0.12
                     10                     11                     12
                      A                      A                      A
 Frequencies --    325.9470               387.1267               532.6878
 Red. masses --      1.0598                 3.4505                 6.1939
 Frc consts  --      0.0663                 0.3047                 1.0355
 IR Inten    --    116.0493                13.4264                 0.2794
  Atom  AN      X      Y      Z        X      Y      Z        X      Y      Z
     1   6     0.00   0.00   0.01     0.03   0.05   0.00     0.26   0.23   0.00
     2   1     0.00   0.00   0.02    -0.01   0.11   0.00     0.20   0.33   0.00
     3   6     0.00   0.00  -0.01     0.10  -0.07   0.00     0.41  -0.10   0.00
     4   6     0.00   0.00  -0.01     0.09  -0.08   0.00     0.02   0.09   0.00
     5   8     0.00   0.00  -0.02     0.17  -0.07   0.00    -0.15   0.07   0.00
     6   8     0.00   0.00   0.02     0.07  -0.01   0.00    -0.12  -0.12   0.00
     7   6     0.00   0.00  -0.01    -0.11   0.19   0.00    -0.21  -0.22   0.00
     8   6     0.00   0.00   0.00    -0.30   0.01   0.00    -0.07   0.03   0.00
     9   1    -0.01  -0.02  -0.02    -0.16   0.17  -0.01    -0.23  -0.20   0.01
    10   1     0.01   0.02  -0.02    -0.16   0.17   0.01    -0.23  -0.20  -0.01
    11   1    -0.01  -0.01  -0.01    -0.53  -0.01  -0.01     0.14   0.05   0.01
    12   1     0.01   0.01  -0.01    -0.53  -0.01   0.01     0.14   0.05  -0.01
    13   1     0.00   0.00   0.02    -0.09  -0.31   0.00    -0.26   0.32   0.00
    14   8     0.00   0.00  -0.05    -0.01   0.00   0.00    -0.03   0.01   0.00
    15   1     0.00   0.00   1.00    -0.01   0.00   0.00     0.02  -0.04   0.00
                     13                     14                     15
                      A                      A                      A
 Frequencies --    604.1871               637.7358               774.2291
 Red. masses --      1.0946                 6.4274                 1.1664
 Frc consts  --      0.2354                 1.5402                 0.4119
 IR Inten    --    154.6514                38.3235                49.6188
  Atom  AN      X      Y      Z        X      Y      Z        X      Y      Z
     1   6    -0.03   0.00   0.00     0.18   0.08   0.00     0.06  -0.09   0.00
     2   1    -0.04   0.01   0.00     0.37  -0.19   0.00    -0.54   0.84   0.00
     3   6     0.00  -0.03   0.00    -0.10   0.48   0.00    -0.02   0.04   0.00
     4   6     0.00   0.02   0.00     0.12  -0.12   0.00     0.01   0.00   0.00
     5   8     0.04   0.03   0.00    -0.25  -0.18   0.00    -0.01   0.00   0.00
     6   8    -0.02   0.01   0.00     0.12  -0.15   0.00     0.00   0.00   0.00
     7   6     0.00   0.00   0.00     0.00   0.04   0.00     0.00   0.00   0.00
     8   6     0.00   0.00   0.00    -0.05   0.02   0.00     0.00   0.00   0.00
     9   1     0.00   0.00   0.00    -0.08   0.02  -0.01     0.00   0.00   0.00
    10   1     0.00   0.00   0.00    -0.08   0.02   0.01     0.00   0.00   0.00
    11   1     0.02   0.00   0.00    -0.17   0.01  -0.01     0.00   0.00   0.00
    12   1     0.02   0.00   0.00    -0.17   0.01   0.01     0.00   0.00   0.00
    13   1    -0.01   0.01   0.00     0.05  -0.13   0.00     0.00   0.00   0.00
    14   8    -0.04   0.01   0.00    -0.01   0.00   0.00     0.01  -0.02   0.00
    15   1     0.67  -0.74   0.00     0.37  -0.40   0.00     0.01  -0.02   0.00
                     16                     17                     18
                      A                      A                      A
 Frequencies --    778.8218               796.5258               817.5894
 Red. masses --      5.9442                 1.3132                 1.1682
 Frc consts  --      2.1243                 0.4909                 0.4601
 IR Inten    --     12.8196                46.8426                 0.4447
  Atom  AN      X      Y      Z        X      Y      Z        X      Y      Z
     1   6     0.00   0.00   0.11     0.00   0.00  -0.14     0.00   0.00  -0.01
     2   1     0.00   0.00  -0.45     0.00   0.00   0.98     0.00   0.00   0.07
     3   6     0.00   0.00  -0.25     0.00   0.00   0.03     0.00   0.00  -0.02
     4   6     0.00   0.00   0.56     0.00   0.00   0.08     0.00   0.00   0.07
     5   8     0.00   0.00  -0.16     0.00   0.00  -0.02     0.00   0.00  -0.02
     6   8     0.00   0.00  -0.12     0.00   0.00  -0.01     0.00   0.00  -0.04
     7   6     0.00   0.00  -0.05     0.00   0.00  -0.01     0.00   0.00   0.07
     8   6     0.00   0.00  -0.01     0.00   0.00   0.00     0.00   0.00   0.04
     9   1    -0.06   0.29   0.17    -0.02   0.07   0.04     0.25  -0.38  -0.22
    10   1     0.06  -0.29   0.17     0.02  -0.07   0.04    -0.25   0.38  -0.22
    11   1    -0.15   0.15   0.10    -0.04   0.04   0.03     0.31  -0.30  -0.18
    12   1     0.15  -0.15   0.10     0.04  -0.04   0.03    -0.31   0.30  -0.18
    13   1     0.00   0.00   0.09     0.00   0.00   0.02     0.00   0.00  -0.19
    14   8     0.00   0.00   0.00     0.00   0.00   0.00     0.00   0.00   0.00
    15   1     0.00   0.00   0.05     0.00   0.00   0.01     0.00   0.00   0.01
                     19                     20                     21
                      A                      A                      A
 Frequencies --    907.9950               962.1191              1083.3097
 Red. masses --      2.4052                 6.0777                 3.4787
 Frc consts  --      1.1683                 3.3147                 2.4053
 IR Inten    --      9.3247                 6.4758                40.5846
  Atom  AN      X      Y      Z        X      Y      Z        X      Y      Z
     1   6     0.02   0.01   0.00    -0.17  -0.10   0.00     0.05   0.03   0.00
     2   1     0.04  -0.01   0.00    -0.18  -0.13   0.00     0.05   0.05   0.00
     3   6    -0.02   0.06   0.00    -0.08  -0.08   0.00     0.03   0.00   0.00
     4   6     0.02  -0.08   0.00     0.22   0.17   0.00    -0.11  -0.03   0.00
     5   8     0.05  -0.12   0.00    -0.12   0.20   0.00     0.02  -0.02   0.00
     6   8     0.03   0.21   0.00     0.31  -0.14   0.00    -0.17  -0.13   0.00
     7   6    -0.04  -0.11   0.00     0.07  -0.17   0.00     0.33   0.06   0.00
     8   6    -0.13  -0.05   0.00    -0.24   0.08   0.00    -0.16   0.07   0.00
     9   1     0.21  -0.07   0.01     0.16  -0.18  -0.01     0.51  -0.02  -0.05
    10   1     0.21  -0.07  -0.01     0.16  -0.18   0.01     0.51  -0.02   0.05
    11   1     0.32   0.04   0.05    -0.09   0.14   0.04    -0.07   0.17   0.06
    12   1     0.32   0.04  -0.05    -0.09   0.14  -0.04    -0.07   0.17  -0.06
    13   1    -0.53   0.56   0.00    -0.46   0.41   0.00    -0.31   0.30   0.00
    14   8     0.00   0.00   0.00     0.00   0.00   0.00     0.00   0.00   0.00
    15   1     0.01   0.00   0.00    -0.02   0.02   0.00     0.00   0.00   0.00
                     22                     23                     24
                      A                      A                      A
 Frequencies --   1154.7329              1188.4517              1315.0533
 Red. masses --      2.2308                 1.5675                 1.0857
 Frc consts  --      1.7526                 1.3044                 1.1062
 IR Inten    --     12.7228                 4.7369                 1.7202
  Atom  AN      X      Y      Z        X      Y      Z        X      Y      Z
     1   6    -0.01   0.00   0.00     0.00   0.00   0.00     0.00   0.00   0.00
     2   1    -0.01   0.00   0.00     0.00   0.00   0.00     0.00   0.00   0.00
     3   6     0.00  -0.01   0.00     0.00   0.00   0.00     0.00   0.00   0.00
     4   6     0.02   0.01   0.00     0.00   0.00   0.01     0.00   0.00   0.00
     5   8    -0.02   0.04   0.00     0.00   0.00   0.00     0.00   0.00   0.00
     6   8     0.01  -0.11   0.00     0.00   0.00  -0.05     0.00   0.00   0.04
     7   6    -0.04   0.23   0.00     0.00   0.00   0.18     0.00   0.00   0.00
     8   6    -0.01  -0.19   0.00     0.00   0.00  -0.13     0.00   0.00  -0.07
     9   1    -0.09   0.22  -0.01    -0.16  -0.46  -0.14     0.67   0.08   0.02
    10   1    -0.09   0.22   0.01     0.16   0.46  -0.14    -0.67  -0.08   0.02
    11   1     0.53  -0.07   0.08    -0.27   0.32   0.11    -0.13   0.16   0.04
    12   1     0.53  -0.07  -0.08     0.27  -0.32   0.11     0.13  -0.16   0.04
    13   1    -0.33   0.31   0.00     0.00   0.00   0.27     0.00   0.00   0.10
    14   8     0.00   0.00   0.00     0.00   0.00   0.00     0.00   0.00   0.00
    15   1     0.00   0.00   0.00     0.00   0.00   0.00     0.00   0.00   0.00
                     25                     26                     27
                      A                      A                      A
 Frequencies --   1322.5623              1407.6449              1445.9803
 Red. masses --      6.4139                 1.3050                 1.4788
 Frc consts  --      6.6101                 1.5235                 1.8217
 IR Inten    --    832.1886                28.0640                 5.8695
  Atom  AN      X      Y      Z        X      Y      Z        X      Y      Z
     1   6    -0.09  -0.06   0.00    -0.01  -0.01   0.00    -0.01  -0.01   0.00
     2   1    -0.09  -0.09   0.00    -0.02  -0.01   0.00    -0.01  -0.01   0.00
     3   6    -0.02  -0.01   0.00     0.00   0.00   0.00     0.00   0.00   0.00
     4   6     0.55   0.04   0.00     0.07   0.02   0.00     0.06   0.02   0.00
     5   8    -0.05  -0.06   0.00    -0.01  -0.01   0.00    -0.01  -0.01   0.00
     6   8    -0.32   0.08   0.00    -0.04  -0.02   0.00    -0.03  -0.02   0.00
     7   6     0.15   0.01   0.00    -0.09   0.02   0.00    -0.12   0.05   0.00
     8   6     0.00  -0.01   0.00    -0.06   0.08   0.00     0.13  -0.05   0.00
     9   1    -0.50  -0.05   0.00     0.45  -0.06  -0.08     0.44  -0.02  -0.08
    10   1    -0.50  -0.05   0.00     0.45  -0.06   0.08     0.44  -0.02   0.08
    11   1    -0.04   0.08   0.06     0.33  -0.16  -0.17    -0.42   0.01   0.04
    12   1    -0.04   0.08  -0.06     0.33  -0.16   0.17    -0.42   0.01  -0.04
    13   1    -0.04   0.04   0.00     0.27  -0.40   0.00    -0.19   0.41   0.00
    14   8     0.00   0.00   0.00     0.00   0.00   0.00     0.00   0.00   0.00
    15   1    -0.04   0.05   0.00     0.00   0.00   0.00     0.00   0.00   0.00
                     28                     29                     30
                      A                      A                      A
 Frequencies --   1498.9833              1506.5058              1529.2028
 Red. masses --      1.0372                 1.0507                 1.0877
 Frc consts  --      1.3731                 1.4050                 1.4987
 IR Inten    --      8.6062                 2.9125                 8.9664
  Atom  AN      X      Y      Z        X      Y      Z        X      Y      Z
     1   6     0.00   0.00   0.00     0.00   0.00   0.00     0.00   0.00   0.00
     2   1     0.00   0.00   0.00     0.00   0.00   0.00    -0.01   0.00   0.00
     3   6     0.00   0.00   0.00     0.00   0.00   0.00     0.00   0.00   0.00
     4   6     0.00   0.00   0.00     0.00   0.00   0.00     0.02   0.01   0.00
     5   8     0.00   0.00   0.00     0.00   0.00   0.00     0.00  -0.01   0.00
     6   8     0.00   0.00   0.00     0.01   0.01   0.00    -0.01  -0.01   0.00
     7   6     0.00   0.00  -0.02    -0.03   0.02   0.00    -0.02  -0.07   0.00
     8   6     0.00   0.00  -0.05    -0.01  -0.05   0.00    -0.01  -0.02   0.00
     9   1    -0.02   0.04   0.00     0.04  -0.25  -0.19     0.14   0.49   0.38
    10   1     0.02  -0.04   0.00     0.04  -0.25   0.19     0.14   0.49  -0.38
    11   1     0.48   0.11   0.04     0.06   0.47   0.36     0.02   0.22   0.17
    12   1    -0.48  -0.11   0.04     0.06   0.47  -0.36     0.02   0.22  -0.17
    13   1     0.00   0.00   0.70     0.15  -0.25   0.00     0.08  -0.14   0.00
    14   8     0.00   0.00   0.00     0.00   0.00   0.00     0.00   0.00   0.00
    15   1     0.00   0.00   0.00     0.00   0.00   0.00     0.00   0.00   0.00
                     31                     32                     33
                      A                      A                      A
 Frequencies --   1822.3235              2240.0801              3079.4161
 Red. masses --     12.4288                 5.8108                 1.0356
 Frc consts  --     24.3182                17.1797                 5.7859
 IR Inten    --    312.6564                78.9438                 9.4177
  Atom  AN      X      Y      Z        X      Y      Z        X      Y      Z
     1   6    -0.05  -0.03   0.00    -0.32  -0.19   0.00     0.00   0.00   0.00
     2   1    -0.10  -0.02   0.00    -0.64  -0.38   0.00     0.00   0.00   0.00
     3   6     0.04   0.00   0.00     0.45   0.28   0.00     0.00   0.00   0.00
     4   6    -0.12   0.79   0.00    -0.07  -0.07   0.00     0.00   0.00   0.00
     5   8     0.06  -0.52   0.00     0.00   0.01   0.00     0.00   0.00   0.00
     6   8     0.04  -0.06   0.00    -0.01   0.00   0.00     0.00   0.00   0.00
     7   6     0.03   0.02   0.00     0.00   0.00   0.00     0.00   0.00   0.00
     8   6    -0.01  -0.01   0.00     0.00   0.00   0.00     0.04  -0.03   0.00
     9   1    -0.15  -0.01  -0.04     0.00   0.00   0.00     0.00  -0.02   0.02
    10   1    -0.15  -0.01   0.04     0.00   0.00   0.00     0.00  -0.02  -0.02
    11   1     0.03  -0.02   0.00     0.00   0.00   0.00     0.00   0.33  -0.47
    12   1     0.03  -0.02   0.00     0.00   0.00   0.00     0.00   0.33   0.47
    13   1    -0.04   0.04   0.00     0.00   0.00   0.00    -0.48  -0.34   0.00
    14   8     0.00   0.00   0.00     0.00   0.00   0.00     0.00   0.00   0.00
    15   1     0.00  -0.03   0.00     0.00   0.00   0.00     0.00   0.00   0.00
                     34                     35                     36
                      A                      A                      A
 Frequencies --   3095.3505              3139.9989              3159.0839
 Red. masses --      1.0582                 1.1084                 1.1022
 Frc consts  --      5.9734                 6.4389                 6.4811
 IR Inten    --      9.5201                 2.8886                11.7182
  Atom  AN      X      Y      Z        X      Y      Z        X      Y      Z
     1   6     0.00   0.00   0.00     0.00   0.00   0.00     0.00   0.00   0.00
     2   1     0.00   0.00   0.00     0.00   0.00   0.00     0.00   0.00   0.00
     3   6     0.00   0.00   0.00     0.00   0.00   0.00     0.00   0.00   0.00
     4   6     0.00   0.00   0.00     0.00   0.00   0.00     0.00   0.00   0.00
     5   8     0.00   0.00   0.00     0.00   0.00   0.00     0.00   0.00   0.00
     6   8     0.00   0.00   0.00     0.00   0.00   0.00     0.00   0.00   0.00
     7   6    -0.01   0.07   0.00     0.00   0.00   0.09     0.00  -0.01   0.00
     8   6    -0.01  -0.01   0.00     0.00   0.00  -0.04    -0.05  -0.08   0.00
     9   1     0.03  -0.39   0.58    -0.03   0.37  -0.51     0.00   0.04  -0.06
    10   1     0.03  -0.39  -0.58     0.03  -0.37  -0.51     0.00   0.04   0.06
    11   1     0.00   0.01  -0.01     0.00  -0.18   0.25    -0.01   0.23  -0.35
    12   1     0.00   0.01   0.01     0.00   0.18   0.25    -0.01   0.23   0.35
    13   1     0.08   0.06   0.00     0.00   0.00  -0.01     0.66   0.44   0.00
    14   8     0.00   0.00   0.00     0.00   0.00   0.00     0.00   0.00   0.00
    15   1     0.00   0.00   0.00     0.00   0.00   0.00     0.00   0.00   0.00
                     37                     38                     39
                      A                      A                      A
 Frequencies --   3167.9381              3475.5222              3724.0369
 Red. masses --      1.1055                 1.1683                 1.0677
 Frc consts  --      6.5365                 8.3149                 8.7242
 IR Inten    --     18.8734                78.8952                27.2102
  Atom  AN      X      Y      Z        X      Y      Z        X      Y      Z
     1   6     0.00   0.00   0.00    -0.10  -0.06   0.00     0.00   0.00   0.00
     2   1     0.00   0.00   0.00     0.83   0.54   0.00     0.00   0.00   0.00
     3   6     0.00   0.00   0.00     0.03   0.02   0.00     0.00   0.00   0.00
     4   6     0.00   0.00   0.00     0.00   0.00   0.00     0.00   0.00   0.00
     5   8     0.00   0.00   0.00     0.00   0.00   0.00     0.00   0.00   0.00
     6   8     0.00   0.00   0.00     0.00   0.00   0.00     0.00   0.00   0.00
     7   6     0.00   0.00   0.04     0.00   0.00   0.00     0.00   0.00   0.00
     8   6     0.00   0.00   0.08     0.00   0.00   0.00     0.00   0.00   0.00
     9   1    -0.02   0.18  -0.25     0.00   0.00   0.00     0.00   0.00   0.00
    10   1     0.02  -0.18  -0.25     0.00   0.00   0.00     0.00   0.00   0.00
    11   1    -0.01   0.37  -0.51     0.00   0.00   0.00     0.00   0.00   0.00
    12   1     0.01  -0.37  -0.51     0.00   0.00   0.00     0.00   0.00   0.00
    13   1     0.00   0.00   0.01     0.00   0.00   0.00     0.00   0.00   0.00
    14   8     0.00   0.00   0.00     0.00   0.00   0.00     0.05   0.04   0.00
    15   1     0.00   0.00   0.00     0.00   0.00   0.00    -0.72  -0.69   0.00

 -------------------
 - Thermochemistry -
 -------------------
 Temperature   298.150 Kelvin.  Pressure   1.00000 Atm.
 Atom     1 has atomic number  6 and mass  12.00000
 Atom     2 has atomic number  1 and mass   1.00783
 Atom     3 has atomic number  6 and mass  12.00000
 Atom     4 has atomic number  6 and mass  12.00000
 Atom     5 has atomic number  8 and mass  15.99491
 Atom     6 has atomic number  8 and mass  15.99491
 Atom     7 has atomic number  6 and mass  12.00000
 Atom     8 has atomic number  6 and mass  12.00000
 Atom     9 has atomic number  1 and mass   1.00783
 Atom    10 has atomic number  1 and mass   1.00783
 Atom    11 has atomic number  1 and mass   1.00783
 Atom    12 has atomic number  1 and mass   1.00783
 Atom    13 has atomic number  1 and mass   1.00783
 Atom    14 has atomic number  8 and mass  15.99491
 Atom    15 has atomic number  1 and mass   1.00783
 Molecular mass:   115.03952 amu.
 Principal axes and moments of inertia in atomic units:
                           1         2         3
     Eigenvalues --   297.732132096.418302371.59995
           X            1.00000   0.00117   0.00000
           Y           -0.00117   1.00000   0.00000
           Z            0.00000   0.00000   1.00000
 This molecule is an asymmetric top.
 Rotational symmetry number  1.
 Rotational temperatures (Kelvin)      0.29091     0.04132     0.03652
 Rotational constants (GHZ):           6.06163     0.86087     0.76098
    2 imaginary frequencies ignored.
 Zero-point vibrational energy     294982.7 (Joules/Mol)
                                   70.50257 (Kcal/Mol)
 Warning -- explicit consideration of  11 degrees of freedom as
           vibrations may cause significant error
 Vibrational temperatures:    116.26   189.99   207.66   324.97   387.93
          (Kelvin)            392.87   446.57   468.96   556.99   766.42
                              869.29   917.56  1113.94  1120.55  1146.02
                             1176.33  1306.40  1384.27  1558.64  1661.40
                             1709.91  1892.07  1902.87  2025.28  2080.44
                             2156.70  2167.52  2200.18  2621.91  3222.97
                             4430.59  4453.51  4517.75  4545.21  4557.95
                             5000.50  5358.05
 
 Zero-point correction=                           0.112353 (Hartree/Particle)
 Thermal correction to Energy=                    0.120872
 Thermal correction to Enthalpy=                  0.121816
 Thermal correction to Gibbs Free Energy=         0.078406
 Sum of electronic and zero-point Energies=           -420.097748
 Sum of electronic and thermal Energies=              -420.089229
 Sum of electronic and thermal Enthalpies=            -420.088285
 Sum of electronic and thermal Free Energies=         -420.131694
 
                     E (Thermal)             CV                S
                      KCal/Mol        Cal/Mol-Kelvin    Cal/Mol-Kelvin
 Total                   75.848             29.965             91.363
 Electronic               0.000              0.000              1.377
 Translational            0.889              2.981             40.136
 Rotational               0.889              2.981             28.783
 Vibrational             74.071             24.004             21.066
 Vibration     1          0.600              1.962              3.871
 Vibration     2          0.612              1.921              2.916
 Vibration     3          0.616              1.909              2.746
 Vibration     4          0.650              1.802              1.912
 Vibration     5          0.674              1.729              1.599
 Vibration     6          0.676              1.723              1.577
 Vibration     7          0.699              1.654              1.360
 Vibration     8          0.710              1.624              1.280
 Vibration     9          0.756              1.498              1.011
 Vibration    10          0.888              1.178              0.581
 Vibration    11          0.963              1.023              0.443
                       Q            Log10(Q)             Ln(Q)
 Total Bot       0.862324D-36        -36.064329        -83.041187
 Total V=0       0.411481D+16         15.614350         35.953369
 Vib (Bot)       0.204125D-49        -49.690104       -114.415693
 Vib (Bot)    1  0.254825D+01          0.406243          0.935408
 Vib (Bot)    2  0.154302D+01          0.188371          0.433741
 Vib (Bot)    3  0.140717D+01          0.148348          0.341583
 Vib (Bot)    4  0.873584D+00         -0.058695         -0.135151
 Vib (Bot)    5  0.716907D+00         -0.144537         -0.332809
 Vib (Bot)    6  0.706658D+00         -0.150791         -0.347209
 Vib (Bot)    7  0.609092D+00         -0.215317         -0.495787
 Vib (Bot)    8  0.574664D+00         -0.240586         -0.553971
 Vib (Bot)    9  0.464704D+00         -0.332823         -0.766354
 Vib (Bot)   10  0.299478D+00         -0.523635         -1.205714
 Vib (Bot)   11  0.246077D+00         -0.608930         -1.402112
 Vib (V=0)       0.974036D+02          1.988575          4.578863
 Vib (V=0)    1  0.309684D+01          0.490919          1.130383
 Vib (V=0)    2  0.212201D+01          0.326747          0.752362
 Vib (V=0)    3  0.199336D+01          0.299587          0.689824
 Vib (V=0)    4  0.150655D+01          0.177984          0.409824
 Vib (V=0)    5  0.137405D+01          0.138001          0.317759
 Vib (V=0)    6  0.136566D+01          0.135342          0.311637
 Vib (V=0)    7  0.128803D+01          0.109926          0.253115
 Vib (V=0)    8  0.126173D+01          0.100968          0.232487
 Vib (V=0)    9  0.118261D+01          0.072840          0.167720
 Vib (V=0)   10  0.108283D+01          0.034559          0.079575
 Vib (V=0)   11  0.105727D+01          0.024187          0.055693
 Electronic      0.200000D+01          0.301030          0.693147
 Translational   0.484982D+08          7.685726         17.697038
 Rotational      0.435531D+06          5.639019         12.984321
 ***** Axes restored to original set *****
 -------------------------------------------------------------------
 Center     Atomic                   Forces (Hartrees/Bohr)
 Number     Number              X              Y              Z
 -------------------------------------------------------------------
      1        6          -0.004667103   -0.006904309    0.000000030
      2        1          -0.000153345   -0.000668204    0.000000007
      3        6          -0.000485214   -0.000860634    0.000000102
      4        6           0.000052379    0.000072894   -0.000000260
      5        8           0.000154624    0.000042342    0.000000075
      6        8          -0.000064712    0.000209567    0.000000143
      7        6          -0.000021073    0.000097648   -0.000000011
      8        6           0.000006431   -0.000008121    0.000000199
      9        1          -0.000012472    0.000011613    0.000002766
     10        1          -0.000012476    0.000011706   -0.000002815
     11        1           0.000014618   -0.000000657   -0.000000401
     12        1           0.000014611   -0.000000505    0.000000207
     13        1          -0.000007416   -0.000009573    0.000000012
     14        8           0.005047566    0.007881680   -0.000000061
     15        1           0.000133582    0.000124554    0.000000006
 -------------------------------------------------------------------
 Cartesian Forces:  Max     0.007881680 RMS     0.001877485

 GradGradGradGradGradGradGradGradGradGradGradGradGradGradGradGradGradGrad
 Berny optimization.
 Search for a local minimum.
 Step number   1 out of a maximum of    2
 All quantities printed in internal units (Hartrees-Bohrs-Radians)
 Second derivative matrix not updated -- analytic derivatives used.
 ITU=  0
     Eigenvalues ---   -0.00098  -0.00095   0.00128   0.00185   0.00394
     Eigenvalues ---    0.00494   0.00593   0.01241   0.01691   0.02068
     Eigenvalues ---    0.02488   0.02970   0.03114   0.05201   0.06014
     Eigenvalues ---    0.07816   0.08312   0.08508   0.09428   0.11245
     Eigenvalues ---    0.11741   0.14958   0.15759   0.18902   0.20189
     Eigenvalues ---    0.29590   0.30040   0.45450   0.48110   0.64101
     Eigenvalues ---    0.71360   0.74777   0.80130   0.89079   0.91787
     Eigenvalues ---    0.91840   0.94371   1.69421   2.67273
 Eigenvalue     1 is  -9.78D-04 should be greater than     0.000000 Eigenvector:
                          Z14       Z5        Z12       Z11       Z15
   1                    0.59224  -0.33421   0.26203   0.26199   0.24569
                          Z3        Z1        Z2        Z4        Z8
   1                   -0.23025  -0.22518  -0.21564  -0.20904   0.18740
 Eigenvalue     2 is  -9.46D-04 should be greater than     0.000000 Eigenvector:
                          X15       X14       Y14       Y3        Y13
   1                    0.61745   0.41960  -0.32198   0.22034  -0.18471
                          X5        Y5        Y4        X2        X9
   1                   -0.18091   0.16650   0.15701  -0.14499  -0.14380
 Quadratic step=1.238D+00 exceeds max=3.000D-01 adjusted using Lamda=-1.577D-02.
 Angle between NR and scaled steps=  52.51 degrees.
 Angle between quadratic step and forces=  20.07 degrees.
 Linear search not attempted -- first point.
 TrRot=  0.003712  0.002624 -0.000001  0.000543  0.000000  0.000543
 Variable       Old X    -DE/DX   Delta X   Delta X   Delta X     New X
                                 (Linear)    (Quad)   (Total)
    X1        4.11472  -0.00467   0.00000  -0.08610  -0.07951   4.03521
    Y1       -2.49525  -0.00690   0.00000  -0.15062  -0.14362  -2.63887
    Z1        0.00001   0.00000   0.00000   0.00005   0.00004   0.00005
    X2        5.80631  -0.00015   0.00000  -0.03760  -0.02991   5.77639
    Y2       -3.58511  -0.00067   0.00000  -0.07598  -0.06708  -3.65219
    Z2        0.00001   0.00000   0.00000   0.00002   0.00002   0.00003
    X3        2.13548  -0.00049   0.00000  -0.01906  -0.01380   2.12169
    Y3       -1.38255  -0.00086   0.00000  -0.04396  -0.03904  -1.42159
    Z3        0.00001   0.00000   0.00000   0.00000   0.00000   0.00001
    X4        0.01874   0.00005   0.00000   0.00084   0.00418   0.02292
    Y4        0.36609   0.00007   0.00000  -0.01809  -0.01545   0.35064
    Z4        0.00001   0.00000   0.00000   0.00000   0.00000   0.00001
    X5        0.31275   0.00015   0.00000   0.02148   0.02236   0.33511
    Y5        2.62099   0.00004   0.00000  -0.02029  -0.01731   2.60368
    Z5        0.00002   0.00000   0.00000   0.00004   0.00004   0.00005
    X6       -2.19619  -0.00006   0.00000  -0.00864  -0.00405  -2.20024
    Y6       -0.80748   0.00021   0.00000   0.00078   0.00101  -0.80647
    Z6        0.00000   0.00000   0.00000  -0.00002  -0.00002  -0.00003
    X7       -4.39104  -0.00002   0.00000  -0.00278   0.00005  -4.39099
    Y7        0.81020   0.00010   0.00000   0.00728   0.00512   0.81533
    Z7        0.00000   0.00000   0.00000   0.00000   0.00000  -0.00001
    X8       -6.68568   0.00001   0.00000  -0.00430   0.00037  -6.68531
    Y8       -0.88776  -0.00001   0.00000   0.00829   0.00365  -0.88411
    Z8       -0.00001   0.00000   0.00000  -0.00001   0.00000  -0.00001
    X9       -4.30934  -0.00001   0.00000  -0.00088   0.00064  -4.30870
    Y9        2.01855   0.00001   0.00000   0.00624   0.00418   2.02274
    Z9        1.67024   0.00000   0.00000   0.00056   0.00056   1.67080
   X10       -4.30934  -0.00001   0.00000  -0.00089   0.00063  -4.30871
   Y10        2.01856   0.00001   0.00000   0.00627   0.00420   2.02276
   Z10       -1.67025   0.00000   0.00000  -0.00054  -0.00054  -1.67079
   X11       -6.70088   0.00001   0.00000  -0.00320   0.00278  -6.69810
   Y11       -2.08901   0.00000   0.00000   0.00749   0.00283  -2.08618
   Z11       -1.67456   0.00000   0.00000   0.00039   0.00039  -1.67417
   X12       -6.70089   0.00001   0.00000  -0.00319   0.00278  -6.69810
   Y12       -2.08901   0.00000   0.00000   0.00748   0.00281  -2.08620
   Z12        1.67454   0.00000   0.00000  -0.00041  -0.00041   1.67413
   X13       -8.39726  -0.00001   0.00000  -0.00493  -0.00150  -8.39876
   Y13        0.26246  -0.00001   0.00000   0.00696   0.00045   0.26291
   Z13       -0.00001   0.00000   0.00000   0.00000   0.00000  -0.00001
   X14        6.70339   0.00505   0.00000   0.10716   0.10963   6.81301
   Y14        0.95786   0.00788   0.00000   0.18582   0.19584   1.15370
   Z14       -0.00002   0.00000   0.00000  -0.00005  -0.00006  -0.00008
   X15        5.36014   0.00013   0.00000  -0.01588  -0.01464   5.34550
   Y15        2.21619   0.00012   0.00000   0.05396   0.06239   2.27859
   Z15       -0.00002   0.00000   0.00000   0.00000  -0.00001  -0.00002
         Item               Value     Threshold  Converged?
 Maximum Force            0.007882     0.000450     NO 
 RMS     Force            0.001877     0.000300     NO 
 Maximum Displacement     0.195845     0.001800     NO 
 RMS     Displacement     0.044652     0.001200     NO 
 Predicted change in Energy=-2.496560D-03
 GradGradGradGradGradGradGradGradGradGradGradGradGradGradGradGradGradGrad

 1|1|UNPC-DIT|Freq|UM062X|6-311++G(d,p)|C5H7O3(2)|NDITM|28-Mar-2025|0||
 # freq 6-311++g(d,p) m062x||Title Card Required||0,2|C,2.177418,-1.320
 429,0.000005|H,3.072565,-1.897158,0.000005|C,1.130048,-0.731614,0.0000
 05|C,0.009917,0.193725,0.000005|O,0.165499,1.386966,0.000008|O,-1.1621
 74,-0.427302,-0.000001|C,-2.323636,0.428741,-0.000002|C,-3.537911,-0.4
 6978,-0.000005|H,-2.280405,1.068173,0.883855|H,-2.280402,1.068174,-0.8
 83858|H,-3.545954,-1.105456,-0.88614|H,-3.545957,-1.105458,0.886129|H,
 -4.443637,0.138888,-0.000006|O,3.54728,0.506877,-0.000012|H,2.836465,1
 .172759,-0.000008||Version=IA32W-G09RevD.01|State=2-A|HF=-420.2101006|
 S2=0.757197|S2-1=0.|S2A=0.750034|RMSD=6.344e-009|RMSF=1.877e-003|ZeroP
 oint=0.112353|Thermal=0.1208715|Dipole=-1.1539464,-0.3712934,0.0000013
 |DipoleDeriv=-0.40556,-0.1664292,0.0003846,0.0077043,-0.1507472,-0.000
 0639,-0.0001987,0.0002126,-0.071469,0.2921805,-0.0353865,-0.0000682,-0
 .0212478,0.2520103,-0.0000707,0.0000235,0.0000008,0.1978885,-0.4818069
 ,0.2855378,-0.0001142,0.1193277,-0.4110799,-0.0002643,0.0000029,-0.000
 2726,-0.1256773,2.5870282,-0.0147502,-0.0002428,0.239236,1.60894,0.000
 7163,-0.0000399,-0.0000015,0.3943124,-0.8969809,0.0263117,0.0000301,-0
 .1179446,-1.1559421,-0.000229,0.0000033,0.0000015,-0.3552508,-2.111164
 3,-0.1540458,-0.0001258,-0.1293578,-0.6244445,-0.0000821,-0.0000073,-0
 .0000066,-0.2760599,1.0373538,-0.0722946,0.0001032,-0.2831441,0.327603
 2,0.0001154,-0.0000822,-0.0001502,0.3035623,-0.0671065,-0.0354436,-0.0
 000976,-0.0398991,0.0232485,0.0004237,0.0001797,0.0000562,0.0566231,-0
 .0486586,-0.0310382,-0.0413727,0.0520681,0.0071778,-0.048364,-0.002809
 4,-0.0709127,-0.0389219,-0.0486409,-0.0310302,0.0413453,0.0520468,0.00
 70753,0.0482892,0.0028634,0.0710336,-0.0388817,0.0647011,0.0031322,0.0
 268943,-0.0477535,0.0146337,-0.0653346,-0.0045854,-0.0819914,-0.039414
 4,0.0646998,0.0031167,-0.0269244,-0.0476616,0.0146548,0.0650965,0.0044
 502,0.0819604,-0.0390934,-0.0714662,0.0503694,0.000204,0.0784995,0.003
 4795,-0.000201,-0.0000105,-0.0000015,0.0904783,-0.1933156,0.0906585,0.
 0000357,-0.0351626,-0.1943565,-0.0001257,0.0001519,0.0000528,-0.395038
 ,0.2787363,0.0812921,-0.0000516,0.1732888,0.2777472,0.0000942,0.000058
 5,0.0000186,0.3369419|Polar=98.9164181,-3.5559954,69.0382072,0.0056075
 ,0.0016439,47.8143192|PG=C01 [X(C5H7O3)]|NImag=2||1.13362922,-0.662396
 72,0.45534962,0.00002240,0.00000503,0.06266050,-0.30323488,0.17933441,
 -0.00000053,0.29739300,0.18425994,-0.14041233,-0.00000381,-0.17768298,
 0.13397547,-0.00000228,0.00000025,-0.03139341,0.00000034,0.00000031,0.
 01896662,-0.83175842,0.47999644,-0.00001166,0.00602252,-0.00830730,0.0
 0000060,1.08605616,0.47447493,-0.31041789,-0.00000378,-0.00012793,0.00
 817756,0.00000078,-0.59813352,0.48749695,0.00000869,-0.00000934,-0.035
 38087,-0.00000532,0.00000065,0.00791019,0.00000617,-0.00000784,0.06000
 589,0.00365757,0.00273046,-0.00000457,-0.00006609,0.00378685,0.0000013
 1,-0.19386280,0.10220013,-0.00001652,0.64477675,-0.00808672,0.00335760
 ,0.00002114,0.00269287,0.00325217,-0.00000319,0.09864131,-0.13004189,0
 .00001776,0.02924833,1.00023324,-0.00000363,-0.00000041,0.00210922,0.0
 0000071,-0.00000030,0.00590570,0.00000021,0.00000186,-0.07100471,0.000
 00391,0.00000029,0.20996846,-0.00183623,0.00116569,-0.00000038,-0.0000
 2394,-0.00124105,-0.00000013,0.00942885,0.03179887,0.00000266,-0.11801
 018,-0.05585553,-0.00000047,0.12322999,0.00054503,0.00173697,-0.000010
 92,-0.00004471,0.00106299,0.00000119,0.02698837,-0.06692615,-0.0000024
 3,-0.07227596,-0.73895226,-0.00000139,0.10332267,0.86838623,0.00000107
 ,0.00000005,0.00052886,-0.00000017,-0.00000002,-0.00102342,-0.00000018
 ,-0.00000061,0.02149435,-0.00000090,-0.00000057,-0.08148688,0.00000057
 ,0.00000185,0.03508528,-0.00428220,0.00284227,-0.00000739,0.00132667,0
 .00033239,0.00000066,-0.06154054,-0.00292025,-0.00000042,-0.27611591,-
 0.08605785,-0.00000056,-0.01993132,-0.06875291,-0.00000050,0.56407091,
 0.00411196,-0.00245439,-0.00000546,-0.00057247,-0.00084428,0.00000049,
 0.01913453,0.01329449,-0.00000018,-0.05893001,-0.15446881,-0.00000015,
 -0.07142686,-0.06026605,-0.00000064,0.03461749,0.37231517,-0.00000160,
 0.00000044,0.00075809,0.00000032,0.00000009,-0.00039447,0.00000004,-0.
 00000032,0.01046923,0.00000016,-0.00000199,-0.06932686,-0.00000042,0.0
 0000028,0.03139470,0.00000180,0.00000128,0.08093435,0.00119795,-0.0006
 0210,0.00000293,-0.00033496,0.00023682,-0.00000046,0.00141887,-0.00200
 164,0.00000302,-0.06798894,0.00235995,-0.00000043,0.00587221,0.0167571
 2,0.00000019,-0.12760472,0.04266926,-0.00000023,0.46526398,-0.00121741
 ,0.00104031,0.00000579,0.00022854,0.00009441,-0.00000058,-0.00584601,-
 0.00078989,0.00000079,0.00193955,0.02501989,-0.00000017,-0.00782506,-0
 .00922607,0.00000017,0.06803422,-0.14644920,-0.00000036,0.05442750,0.5
 5934252,-0.00000806,-0.00000029,-0.00007889,0.00000046,0.00000039,-0.0
 0034295,0.00000299,-0.00000424,0.00629644,0.00000099,-0.00000365,0.002
 03514,0.00000037,0.00000400,-0.00646000,0.00000049,0.00000196,-0.06931
 037,0.00000061,-0.00000199,0.62904744,-0.00030779,0.00021812,-0.000004
 55,0.00005755,0.00003820,0.00000069,-0.00134684,-0.00049501,-0.0000033
 5,-0.00113997,0.00597753,-0.00000054,0.00084423,-0.00207902,0.00000002
 ,-0.04623149,-0.01430659,0.00000037,-0.15769362,-0.06945256,0.00000008
 ,0.53695718,0.00037031,-0.00035488,0.00001642,-0.00006187,-0.00002557,
 -0.00000221,0.00131251,0.00067287,0.00001044,0.00141436,-0.00726681,-0
 .00000062,-0.00131817,0.00296856,0.00000051,0.03009534,0.01490196,-0.0
 0000114,-0.08595568,-0.14347946,-0.00000296,-0.04178376,0.56535714,0.0
 0000969,-0.00000282,0.00000625,-0.00000241,0.00000084,-0.00000398,0.00
 000016,0.00000148,0.00002325,-0.00000682,0.00000616,-0.00020397,0.0000
 0059,-0.00000294,0.00108816,0.00000075,-0.00000146,0.00174258,-0.00000
 075,0.00000149,-0.08676465,0.00000068,0.00000290,0.59014854,-0.0001898
 1,0.00009162,0.00001299,0.00005175,-0.00000401,0.00007635,-0.00047058,
 -0.00009621,-0.00121816,0.00494072,0.00742352,0.00161928,-0.00017973,-
 0.00350084,0.00012767,-0.01524020,0.02369545,0.02591258,-0.04953624,-0
 .01175887,-0.01785922,-0.00008248,-0.01587619,-0.02362773,0.06158469,0
 .00011009,-0.00003230,0.00002487,-0.00002990,0.00000609,-0.00002033,0.
 00050041,-0.00012497,0.00021515,-0.00409911,-0.00169467,-0.00021211,0.
 00049058,0.00132492,0.00020145,0.01289253,-0.01804452,-0.01610957,-0.0
 0782072,-0.13530119,-0.12153140,-0.00197637,-0.00942537,-0.01473721,0.
 00236951,0.15158325,-0.00007578,0.00004410,0.00004104,-0.00000532,-0.0
 0001649,0.00001649,0.00023170,0.00015720,-0.00048586,-0.00182610,-0.00
 274868,0.00060022,-0.00098915,0.00160885,0.00027862,0.00428758,0.00133
 288,0.00619592,-0.00994713,-0.12509431,-0.23758970,-0.00063044,0.00233
 999,0.00301723,0.01135340,0.13704932,0.24658374,-0.00018921,0.00009161
 ,-0.00001409,0.00005164,-0.00000391,-0.00007623,-0.00047065,-0.0000961
 0,0.00121779,0.00494042,0.00742359,-0.00161909,-0.00017972,-0.00350092
 ,-0.00012774,-0.01524001,0.02369545,-0.02591263,-0.04953635,-0.0117592
 4,0.01785990,-0.00008233,-0.01587639,0.02362765,0.00176705,-0.00027687
 ,-0.00201722,0.06158472,0.00010653,-0.00003314,-0.00002943,-0.00003017
 ,0.00000653,0.00002071,0.00050248,-0.00012875,-0.00021463,-0.00409991,
 -0.00169493,0.00021216,0.00049102,0.00132703,-0.00020155,0.01289308,-0
 .01804334,0.01610978,-0.00782066,-0.13530245,0.12153283,-0.00197561,-0
 .00942681,0.01473668,-0.00027683,0.01195054,-0.01501322,0.00236996,0.1
 5158434,0.00008060,-0.00004380,0.00004437,0.00000531,0.00001613,0.0000
 1632,-0.00023404,-0.00015309,-0.00048788,0.00182641,0.00275039,0.00060
 022,0.00098873,-0.00161170,0.00027868,-0.00428788,-0.00133429,0.006195
 84,0.00994701,0.12509591,-0.23758991,0.00063017,-0.00233852,0.00301697
 ,0.00201731,0.01501299,-0.02076596,-0.01135402,-0.13705016,0.24658379,
 0.00001570,0.00002368,0.00000346,-0.00001587,-0.00000454,-0.00000528,0
 .00006540,0.00000839,0.00002949,-0.00066798,-0.00117272,-0.00000298,-0
 .00030281,0.00079967,0.00015842,0.00336054,0.00061360,0.00021988,-0.00
 164551,-0.01784155,-0.02565434,-0.04784829,0.00146028,0.00179078,-0.00
 438430,-0.00294883,0.00063760,0.00113219,0.00098083,0.00040120,0.05008
 345,-0.00006316,0.00002443,0.00000323,0.00001319,-0.00000312,-0.000001
 36,-0.00004358,0.00002157,-0.00009317,0.00020051,-0.00023881,0.0000683
 2,-0.00027544,0.00017189,0.00015978,0.00084105,0.00127192,0.00108960,0
 .00104049,-0.01387685,-0.01816935,-0.00098008,-0.13950054,-0.12805807,
 -0.00357554,-0.00098741,0.00093062,0.00065948,0.00027905,0.00011816,0.
 00346441,0.15028916,-0.00000648,0.00002445,-0.00000914,-0.00000376,-0.
 00000579,-0.00000041,-0.00001412,0.00000188,0.00000386,-0.00024079,-0.
 00005729,0.00002799,0.00013477,0.00026454,-0.00005447,-0.00037698,0.00
 029717,0.00011854,-0.00023292,0.00092427,0.00151901,0.00013882,-0.1292
 5828,-0.23248191,0.00081904,0.00018419,0.00143726,-0.00065211,0.000100
 84,0.00074199,-0.00040169,0.14148748,0.24711092,0.00001549,0.00002328,
 -0.00000533,-0.00001602,-0.00000448,0.00000544,0.00006571,0.00000792,-
 0.00002927,-0.00066835,-0.00117221,0.00000296,-0.00030271,0.00079975,-
 0.00015847,0.00336064,0.00061370,-0.00021976,-0.00164551,-0.01784162,0
 .02565507,-0.04784827,0.00145997,-0.00179061,0.00113220,0.00098064,-0.
 00040145,-0.00438431,-0.00294858,-0.00063795,-0.00110933,-0.00001693,0
 .00043664,0.05008352,-0.00005876,0.00002319,-0.00001184,0.00001203,-0.
 00000265,0.00000252,-0.00004368,0.00002117,0.00008714,0.00019740,-0.00
 023531,-0.00006752,-0.00027512,0.00017063,-0.00016016,0.00084159,0.001
 27136,-0.00108897,0.00104016,-0.01387601,0.01817125,-0.00097930,-0.139
 50015,0.12805519,0.00065947,0.00027863,-0.00011866,-0.00357560,-0.0009
 8727,-0.00093116,-0.00001693,0.01259462,-0.01591383,0.00346471,0.15028
 824,-0.00000065,-0.00002213,0.00000261,0.00000568,0.00000512,-0.000002
 00,0.00001384,-0.00000232,0.00001164,0.00024614,0.00005210,0.00002723,
 -0.00013530,-0.00026240,-0.00005401,0.00037630,-0.00029617,0.00011768,
 0.00023325,-0.00092562,0.00151661,-0.00013904,0.12925614,-0.23247785,0
 .00065214,-0.00010020,0.00074256,-0.00081902,-0.00018448,0.00143810,-0
 .00043647,0.01591427,-0.01949178,0.00040125,-0.14148554,0.24710748,-0.
 00018232,0.00009753,0.00000930,0.00003930,0.00000150,-0.00000120,-0.00
 053613,-0.00012465,0.00000418,0.00100635,0.00231084,0.00000047,-0.0001
 0917,-0.00101753,0.00000011,-0.00706248,-0.00460743,-0.00000074,-0.017
 34860,0.01863678,-0.00000145,-0.23530185,0.12479487,-0.00000028,0.0005
 9118,-0.00016232,-0.00062916,0.00059093,-0.00016370,0.00063021,0.00131
 998,-0.00127900,0.00040191,0.00132000,-0.00127983,-0.00040164,0.255643
 52,-0.00011811,0.00012233,-0.00000864,0.00000987,0.00000821,0.00000113
 ,-0.00040565,-0.00022874,-0.00000424,-0.00069393,0.00163936,-0.0000002
 5,0.00026480,-0.00035684,-0.00000015,-0.00651284,-0.00194176,0.0000006
 2,-0.01398332,0.01254703,0.00000129,0.12774626,-0.13486223,-0.00000007
 ,0.00081786,0.00049015,-0.00046693,0.00081804,0.00049124,0.00046605,0.
 01464559,-0.01005679,0.00195295,0.01464565,-0.01005635,-0.00195291,-0.
 13724010,0.14219373,-0.00000050,0.00000035,-0.00002062,0.00000017,-0.0
 0000007,0.00000698,-0.00000018,-0.00000057,-0.00000583,0.00000047,0.,0
 .00046375,-0.00000004,0.00000012,-0.00015799,-0.00000010,0.00000007,0.
 00098132,0.,0.,-0.00231787,0.00000001,-0.00000011,-0.04709130,0.000110
 55,0.00002921,-0.00005207,-0.00011057,-0.00002923,-0.00005197,0.023256
 72,-0.01345703,0.00106412,-0.02325666,0.01345710,0.00106392,0.00000003
 ,0.00000001,0.04611921,0.00500354,-0.00145177,-0.00000666,-0.00150774,
 -0.00112593,0.00000010,-0.01222435,-0.00109375,0.00000439,0.00111961,0
 .00305641,0.00000172,-0.00155900,-0.00164407,-0.00000032,-0.00091075,-
 0.00085961,0.00000019,0.00024377,-0.00008017,0.00000373,0.00000249,0.0
 0000187,-0.00000304,0.00000674,0.00001849,-0.00001784,0.00000636,0.000
 02066,0.00001535,-0.00000499,-0.00000798,-0.00000411,-0.00000458,-0.00
 000932,0.00000613,-0.00001792,0.00000073,0.00000010,0.28177741,0.00642
 986,-0.00677338,-0.00000357,-0.00400359,-0.00473003,0.00000064,-0.0135
 1508,0.00078307,-0.00000405,0.00201932,-0.00182420,0.00000038,-0.00023
 729,0.00152131,-0.00000014,-0.00035527,0.00027660,0.00000018,0.0000709
 1,-0.00004301,-0.00000095,-0.00001675,0.00001386,0.00000050,-0.0000243
 5,0.00000878,0.00000691,-0.00002422,0.00000812,-0.00000591,0.00000700,
 -0.00000321,0.00000204,0.00000689,-0.00000294,-0.00000234,-0.00001246,
 -0.00000072,-0.00000004,-0.23891882,0.24591709,-0.00001856,0.00000335,
 0.00079884,0.00000364,0.00000222,0.00020869,0.00000343,0.00000731,0.00
 154982,0.00001290,-0.00002539,-0.00077046,-0.00000141,0.00000858,0.000
 74840,0.00000477,0.00000355,-0.00006574,-0.00000389,-0.00000423,-0.000
 03202,0.00000539,-0.00001748,-0.00001750,-0.00001105,0.00000425,0.0000
 0636,0.00001197,-0.00000167,0.00000555,0.00001074,0.00001903,0.0000158
 6,-0.00000966,-0.00000966,0.00000323,-0.00000904,0.00000858,-0.0000031
 9,-0.00000121,0.00000627,0.00069098,-0.00153862,-0.00216452,0.00000408
 ,0.00025707,-0.00028149,0.00000008,-0.00084721,-0.00340120,-0.00000333
 ,-0.00192120,-0.00678933,-0.00000157,0.00305952,0.00360335,0.00000022,
 0.00204085,0.00155152,0.00000003,-0.00066234,0.00035590,-0.00000162,0.
 00002148,-0.00003744,0.00000134,0.00000901,-0.00004813,0.00002930,0.00
 000926,-0.00004911,-0.00002841,0.00000182,0.00002257,0.00000179,0.0000
 0153,0.00002319,-0.00000263,0.00004721,0.00000516,0.,-0.27193060,0.248
 57383,0.00000199,0.27145224,0.00153223,-0.00117613,0.00000098,0.000262
 70,-0.00056545,-0.00000035,-0.00078123,-0.00180940,0.00000396,-0.00363
 799,0.00291544,-0.00000010,0.00092089,-0.00294316,0.00000002,0.0012091
 7,-0.00081914,0.00000009,-0.00041809,0.00029999,0.00000313,0.00006493,
 -0.00007256,-0.00000266,0.00005540,-0.00003193,-0.00001158,0.00005512,
 -0.00003015,0.00000900,-0.00001889,0.00001411,-0.00000463,-0.00001871,
 0.00001287,0.00000648,0.00004550,0.00001137,0.00000017,0.24209325,-0.2
 3515135,-0.00000471,-0.24136429,0.23934550,-0.00000491,0.00000078,-0.0
 0006685,0.00000091,0.00000072,0.00012965,0.00000104,0.00000226,-0.0003
 9951,0.00000338,-0.00000708,0.00105496,-0.00000041,0.00000235,-0.00166
 028,0.00000147,0.00000096,0.00018919,-0.00000119,-0.00000116,0.0000717
 4,0.00000168,-0.00000506,-0.00000179,0.00001486,-0.00001061,-0.0000258
 3,-0.00001459,0.00001136,-0.00002611,-0.00000752,-0.00001151,-0.000001
 84,0.00000782,0.00001413,-0.00000541,-0.00000273,0.00000256,0.00000156
 ,0.00000146,0.00000008,-0.00313881,-0.00000127,0.00000020,0.00387933||
 0.00466710,0.00690431,-0.00000003,0.00015334,0.00066820,0.,0.00048521,
 0.00086063,-0.00000010,-0.00005238,-0.00007289,0.00000026,-0.00015462,
 -0.00004234,-0.00000007,0.00006471,-0.00020957,-0.00000014,0.00002107,
 -0.00009765,0.00000001,-0.00000643,0.00000812,-0.00000020,0.00001247,-
 0.00001161,-0.00000277,0.00001248,-0.00001171,0.00000282,-0.00001462,0
 .00000066,0.00000040,-0.00001461,0.00000051,-0.00000021,0.00000742,0.0
 0000957,-0.00000001,-0.00504757,-0.00788168,0.00000006,-0.00013358,-0.
 00012455,0.|||@


 MOM AND DAD WENT TO ALPHA CENTAURI AND ALL
 I GOT WAS THIS DUMB T-SHIRT.
 Job cpu time:       0 days  0 hours 20 minutes 12.0 seconds.
 File lengths (MBytes):  RWF=    153 Int=      0 D2E=      0 Chk=      9 Scr=      1
 Normal termination of Gaussian 09 at Fri Mar 28 08:48:01 2025.
