 Entering Gaussian System, Link 0=g16
 Initial command:
 /opt/g16/l1.exe "/home/aayush/scratches/g16/Gau-8979.inp" -scrdir="/home/aayush/scratches/g16/"
 Entering Link 1 = /opt/g16/l1.exe PID=      8982.
  
 Copyright (c) 1988,1990,1992,1993,1995,1998,2003,2009,2016,
            Gaussian, Inc.  All Rights Reserved.
  
 This is part of the Gaussian(R) 16 program.  It is based on
 the Gaussian(R) 09 system (copyright 2009, Gaussian, Inc.),
 the Gaussian(R) 03 system (copyright 2003, Gaussian, Inc.),
 the Gaussian(R) 98 system (copyright 1998, Gaussian, Inc.),
 the Gaussian(R) 94 system (copyright 1995, Gaussian, Inc.),
 the Gaussian 92(TM) system (copyright 1992, Gaussian, Inc.),
 the Gaussian 90(TM) system (copyright 1990, Gaussian, Inc.),
 the Gaussian 88(TM) system (copyright 1988, Gaussian, Inc.),
 the Gaussian 86(TM) system (copyright 1986, Carnegie Mellon
 University), and the Gaussian 82(TM) system (copyright 1983,
 Carnegie Mellon University). Gaussian is a federally registered
 trademark of Gaussian, Inc.
  
 This software contains proprietary and confidential information,
 including trade secrets, belonging to Gaussian, Inc.
  
 This software is provided under written license and may be
 used, copied, transmitted, or stored only in accord with that
 written license.
  
 The following legend is applicable only to US Government
 contracts under FAR:
  
                    RESTRICTED RIGHTS LEGEND
  
 Use, reproduction and disclosure by the US Government is
 subject to restrictions as set forth in subparagraphs (a)
 and (c) of the Commercial Computer Software - Restricted
 Rights clause in FAR 52.227-19.
  
 Gaussian, Inc.
 340 Quinnipiac St., Bldg. 40, Wallingford CT 06492
  
  
 ---------------------------------------------------------------
 Warning -- This program may not be used in any manner that
 competes with the business of Gaussian, Inc. or will provide
 assistance to any competitor of Gaussian, Inc.  The licensee
 of this program is prohibited from giving any competitor of
 Gaussian, Inc. access to this program.  By using this program,
 the user acknowledges that Gaussian, Inc. is engaged in the
 business of creating and licensing software in the field of
 computational chemistry and represents and warrants to the
 licensee that it is not a competitor of Gaussian, Inc. and that
 it will not use this program in any manner prohibited above.
 ---------------------------------------------------------------
  

 Cite this work as:
 Gaussian 16, Revision A.03,
 M. J. Frisch, G. W. Trucks, H. B. Schlegel, G. E. Scuseria, 
 M. A. Robb, J. R. Cheeseman, G. Scalmani, V. Barone, 
 G. A. Petersson, H. Nakatsuji, X. Li, M. Caricato, A. V. Marenich, 
 J. Bloino, B. G. Janesko, R. Gomperts, B. Mennucci, H. P. Hratchian, 
 J. V. Ortiz, A. F. Izmaylov, J. L. Sonnenberg, D. Williams-Young, 
 F. Ding, F. Lipparini, F. Egidi, J. Goings, B. Peng, A. Petrone, 
 T. Henderson, D. Ranasinghe, V. G. Zakrzewski, J. Gao, N. Rega, 
 G. Zheng, W. Liang, M. Hada, M. Ehara, K. Toyota, R. Fukuda, 
 J. Hasegawa, M. Ishida, T. Nakajima, Y. Honda, O. Kitao, H. Nakai, 
 T. Vreven, K. Throssell, J. A. Montgomery, Jr., J. E. Peralta, 
 F. Ogliaro, M. J. Bearpark, J. J. Heyd, E. N. Brothers, K. N. Kudin, 
 V. N. Staroverov, T. A. Keith, R. Kobayashi, J. Normand, 
 K. Raghavachari, A. P. Rendell, J. C. Burant, S. S. Iyengar, 
 J. Tomasi, M. Cossi, J. M. Millam, M. Klene, C. Adamo, R. Cammi, 
 J. W. Ochterski, R. L. Martin, K. Morokuma, O. Farkas, 
 J. B. Foresman, and D. J. Fox, Gaussian, Inc., Wallingford CT, 2016.
 
 ******************************************
 Gaussian 16:  ES64L-G16RevA.03 25-Dec-2016
                23-Apr-2025 
 ******************************************
 %chk=ethyl_propiolate.chk
 %nprocshared=24
 Will use up to   24 processors via shared memory.
 %mem=12GB
 --------------------------
 # ccsd(t)/6-311++g(d,p) sp
 --------------------------
 1/38=1,172=1/1;
 2/12=2,17=6,18=5,40=1/2;
 3/5=4,6=6,7=1111,11=9,25=1,30=1/1,2,3;
 4//1;
 5/5=2,38=5/2;
 8/6=4,9=120000,10=2/1,4;
 9/5=7,14=2/13;
 6/7=2,8=2,9=2,10=2/1;
 99/5=1,9=1/99;
 -------------------
 Title Card Required
 -------------------
 Symbolic Z-matrix:
 Charge =  0 Multiplicity = 2
 C                     2.15825  -1.35093   0.00001 
 H                     3.05441  -1.92643   0.00001 
 C                     1.12715  -0.73578   0.00001 
 C                     0.01019   0.1937    0.00001 
 O                     0.1665    1.38686   0.00001 
 O                    -1.16246  -0.42649  0. 
 C                    -2.32388   0.42931  0. 
 C                    -3.53782  -0.46975  -0.00001 
 H                    -2.28087   1.06874   0.88387 
 H                    -2.28087   1.06874  -0.88388 
 H                    -3.54552  -1.10544  -0.88613 
 H                    -3.54552  -1.10544   0.88612 
 H                    -4.44385   0.13847  -0.00001 
 O                     3.56401   0.53284  -0.00001 
 H                     2.83894   1.18354  -0.00001 
 
                          Input orientation:                          
 ---------------------------------------------------------------------
 Center     Atomic      Atomic             Coordinates (Angstroms)
 Number     Number       Type             X           Y           Z
 ---------------------------------------------------------------------
      1          6           0        2.158249   -1.350933    0.000005
      2          1           0        3.054413   -1.926429    0.000005
      3          6           0        1.127147   -0.735782    0.000005
      4          6           0        0.010185    0.193698    0.000005
      5          8           0        0.166500    1.386858    0.000008
      6          8           0       -1.162456   -0.426488   -0.000001
      7          6           0       -2.323876    0.429305   -0.000002
      8          6           0       -3.537817   -0.469746   -0.000005
      9          1           0       -2.280874    1.068742    0.883873
     10          1           0       -2.280871    1.068743   -0.883876
     11          1           0       -3.545516   -1.105438   -0.886133
     12          1           0       -3.545519   -1.105439    0.886122
     13          1           0       -4.443846    0.138469   -0.000006
     14          8           0        3.564007    0.532843   -0.000012
     15          1           0        2.838941    1.183539   -0.000008
 ---------------------------------------------------------------------
                    Distance matrix (angstroms):
                    1          2          3          4          5
     1  C    0.000000
     2  H    1.065038   0.000000
     3  C    1.200659   2.265391   0.000000
     4  C    2.645763   3.709752   1.453113   0.000000
     5  O    3.385641   4.395215   2.329902   1.203356   0.000000
     6  O    3.446981   4.475691   2.310399   1.326543   2.248188
     7  C    4.822727   5.871582   3.642388   2.345922   2.668123
     8  C    5.763823   6.751253   4.672544   3.609498   4.143542
     9  H    5.132432   6.182035   3.956278   2.606890   2.621460
    10  H    5.132433   6.182035   3.956279   2.606892   2.621464
    11  H    5.777408   6.709570   4.770290   3.887931   4.558053
    12  H    5.777408   6.709570   4.770289   3.887929   4.558051
    13  H    6.768011   7.777383   5.639174   4.454373   4.776376
    14  O    2.350482   2.511514   2.747307   3.569968   3.503198
    15  H    2.624288   3.117423   2.571776   2.996939   2.680164
                    6          7          8          9         10
     6  O    0.000000
     7  C    1.442664   0.000000
     8  C    2.375755   1.510611   0.000000
     9  H    2.065867   1.091771   2.174417   0.000000
    10  H    2.065866   1.091771   2.174417   1.767749   0.000000
    11  H    2.631573   2.152456   1.090590   3.075597   2.515233
    12  H    2.631573   2.152456   1.090590   2.515233   3.075597
    13  H    3.329669   2.139827   1.091244   2.514975   2.514975
    14  O    4.822838   5.888793   7.172244   5.935577   5.935571
    15  H    4.313162   5.217619   6.587594   5.196819   5.196814
                   11         12         13         14         15
    11  H    0.000000
    12  H    1.772255   0.000000
    13  H    1.771870   1.771869   0.000000
    14  O    7.349455   7.349460   8.017558   0.000000
    15  H    6.840024   6.840027   7.357388   0.974231   0.000000
 Stoichiometry    C5H7O3(2)
 Framework group  C1[X(C5H7O3)]
 Deg. of freedom    39
 Full point group                 C1      NOp   1
 Largest Abelian subgroup         C1      NOp   1
 Largest concise Abelian subgroup C1      NOp   1
                         Standard orientation:                         
 ---------------------------------------------------------------------
 Center     Atomic      Atomic             Coordinates (Angstroms)
 Number     Number       Type             X           Y           Z
 ---------------------------------------------------------------------
      1          6           0        2.229943    1.363932   -0.000005
      2          1           0        3.121326    1.946806   -0.000005
      3          6           0        1.203954    0.740290   -0.000005
      4          6           0        0.094704   -0.198380   -0.000005
      5          8           0        0.260863   -1.390209   -0.000008
      6          8           0       -1.083017    0.412105    0.000001
      7          6           0       -2.237333   -0.453247    0.000002
      8          6           0       -3.458654    0.435752    0.000005
      9          1           0       -2.189054   -1.092307   -0.883873
     10          1           0       -2.189051   -1.092308    0.883876
     11          1           0       -3.471601    1.071359    0.886133
     12          1           0       -3.471604    1.071360   -0.886122
     13          1           0       -4.359632   -0.179922    0.000006
     14          8           0        3.651204   -0.508175    0.000012
     15          1           0        2.931535   -1.164835    0.000008
 ---------------------------------------------------------------------
 Rotational constants (GHZ):           5.9478616           0.8597435           0.7582823
 Standard basis: 6-311++G(d,p) (5D, 7F)
 There are   233 symmetry adapted cartesian basis functions of A   symmetry.
 There are   225 symmetry adapted basis functions of A   symmetry.
   225 basis functions,   351 primitive gaussians,   233 cartesian basis functions
    31 alpha electrons       30 beta electrons
       nuclear repulsion energy       341.8771666401 Hartrees.
 NAtoms=   15 NActive=   15 NUniq=   15 SFac= 1.00D+00 NAtFMM=   60 NAOKFM=F Big=F
 Integral buffers will be    131072 words long.
 Raffenetti 2 integral format.
 Two-electron integral symmetry is turned on.
 One-electron integrals computed using PRISM.
 NBasis=   225 RedAO= T EigKep=  1.15D-06  NBF=   225
 NBsUse=   225 1.00D-06 EigRej= -1.00D+00 NBFU=   225
 ExpMin= 3.60D-02 ExpMax= 8.59D+03 ExpMxC= 1.30D+03 IAcc=3 IRadAn=         5 AccDes= 0.00D+00
 Harris functional with IExCor=  205 and IRadAn=       5 diagonalized for initial guess.
 HarFok:  IExCor=  205 AccDes= 0.00D+00 IRadAn=         5 IDoV= 1 UseB2=F ITyADJ=14
 ICtDFT=  3500011 ScaDFX=  1.000000  1.000000  1.000000  1.000000
 FoFCou: FMM=F IPFlag=           0 FMFlag=      100000 FMFlg1=           0
         NFxFlg=           0 DoJE=T BraDBF=F KetDBF=T FulRan=T
         wScrn=  0.000000 ICntrl=       500 IOpCl=  0 I1Cent=   200000004 NGrid=           0
         NMat0=    1 NMatS0=      1 NMatT0=    0 NMatD0=    1 NMtDS0=    0 NMtDT0=    0
 Petite list used in FoFCou.
 Initial guess <Sx>= 0.0000 <Sy>= 0.0000 <Sz>= 0.5000 <S**2>= 0.7500 S= 0.5000
 Requested convergence on RMS density matrix=1.00D-08 within 128 cycles.
 Requested convergence on MAX density matrix=1.00D-06.
 Requested convergence on             energy=1.00D-06.
 No special actions if energy rises.
 Initial convergence to 1.0D-05 achieved.  Increase integral accuracy.
 SCF Done:  E(UHF) =  -417.997935168     A.U. after   35 cycles
            NFock= 35  Conv=0.73D-08     -V/T= 2.0007
 <Sx>= 0.0000 <Sy>= 0.0000 <Sz>= 0.5000 <S**2>= 0.8167 S= 0.5328
 <L.S>=  0.00000000000    
 Annihilation of the first spin contaminant:
 S**2 before annihilation     0.8167,   after     0.7530
 ExpMin= 3.60D-02 ExpMax= 8.59D+03 ExpMxC= 1.30D+03 IAcc=3 IRadAn=         5 AccDes= 0.00D+00
 HarFok:  IExCor=  205 AccDes= 0.00D+00 IRadAn=         5 IDoV=-2 UseB2=F ITyADJ=14
 ICtDFT= 12500011 ScaDFX=  1.000000  1.000000  1.000000  1.000000
 Range of M.O.s used for correlation:     9   225
 NBasis=   225 NAE=    31 NBE=    30 NFC=     8 NFV=     0
 NROrb=    217 NOA=    23 NOB=    22 NVA=   194 NVB=   195

 **** Warning!!: The largest alpha MO coefficient is  0.24626685D+03


 **** Warning!!: The largest beta MO coefficient is  0.22081402D+03

 Semi-Direct transformation.
 ModeAB=           4 MOrb=            23 LenV=    1609182762
 LASXX=    109339976 LTotXX=   109339976 LenRXX=   221407890
 LTotAB=   112067914 MaxLAS=   123192853 LenRXY=           0
 NonZer=   330747866 LenScr=   498067456 LnRSAI=   123192853
 LnScr1=   185548800 LExtra=           0 Total=   1028216999
 MaxDsk=          -1 SrtSym=           T ITran=            4
 JobTyp=1 Pass  1:  I=   1 to  23.
 (rs|ai) integrals will be sorted in core.
 ModeAB=           4 MOrb=            22 LenV=    1609182762
 LASXX=    104936601 LTotXX=   104936601 LenRXX=   190867446
 LTotAB=    85930845 MaxLAS=   117836642 LenRXY=           0
 NonZer=   295804047 LenScr=   445446144 LnRSAI=   117836642
 LnScr1=   177513472 LExtra=           0 Total=    931663704
 MaxDsk=          -1 SrtSym=           T ITran=            4
 JobTyp=2 Pass  1:  I=   1 to  22.
 (rs|ai) integrals will be sorted in core.
 SymMOI:  orbitals are not symmetric.
 Spin components of T(2) and E(2):
     alpha-alpha T2 =       0.5169474396D-01 E2=     -0.1683903661D+00
     alpha-beta  T2 =       0.2860011027D+00 E2=     -0.9341608254D+00
     beta-beta   T2 =       0.4989636937D-01 E2=     -0.1554273892D+00
 ANorm=    0.1177961042D+01
 E2 =    -0.1257978581D+01 EUMP2 =    -0.41925591374830D+03
 (S**2,0)=  0.81673D+00           (S**2,1)=  0.79609D+00
 E(PUHF)=      -0.41800474720D+03        E(PMP2)=      -0.41926169986D+03
 Keep R2 and R3 ints in memory in canonical form, NReq=652884060.
 CIDS: In Core Option IDoMem=           1.
 Iterations=  50 Convergence= 0.100D-06
 Produce multiple copies of IABC intergrals
 Iteration Nr.   1
 **********************
 DD1Dir will call FoFMem   1 times, MxPair=      1496
 NAB=   506 NAA=   253 NBB=   231.
 E(PMP3)=      -0.41928767619D+03
 MP4(R+Q)=  0.24987013D-01
 E3=       -0.27656405D-01        EUMP3=      -0.41928357015D+03
 E4(DQ)=   -0.56852820D-02        UMP4(DQ)=   -0.41928925544D+03
 E4(SDQ)=  -0.24121866D-01        UMP4(SDQ)=  -0.41930769202D+03
 DE(Corr)=  -1.2600501     E(Corr)=     -419.25798531    
 NORM(A)=   0.11843112D+01
 Iteration Nr.   2
 **********************
 DD1Dir will call FoFMem   1 times, MxPair=      1496
 NAB=   506 NAA=   253 NBB=   231.
 DE(Corr)=  -1.3017515     E(CORR)=     -419.29968665     Delta=-4.17D-02
 NORM(A)=   0.12022697D+01
 Iteration Nr.   3
 **********************
 DD1Dir will call FoFMem   1 times, MxPair=      1496
 NAB=   506 NAA=   253 NBB=   231.
 DE(Corr)=  -1.3034032     E(CORR)=     -419.30133833     Delta=-1.65D-03
 NORM(A)=   0.12090918D+01
 Iteration Nr.   4
 **********************
 DD1Dir will call FoFMem   1 times, MxPair=      1496
 NAB=   506 NAA=   253 NBB=   231.
 DE(Corr)=  -1.3085024     E(CORR)=     -419.30643759     Delta=-5.10D-03
 NORM(A)=   0.12123646D+01
 Iteration Nr.   5
 **********************
 DD1Dir will call FoFMem   1 times, MxPair=      1496
 NAB=   506 NAA=   253 NBB=   231.
 DE(Corr)=  -1.3094925     E(CORR)=     -419.30742764     Delta=-9.90D-04
 NORM(A)=   0.12141903D+01
 Iteration Nr.   6
 **********************
 DD1Dir will call FoFMem   1 times, MxPair=      1496
 NAB=   506 NAA=   253 NBB=   231.
 DE(Corr)=  -1.3097878     E(CORR)=     -419.30772299     Delta=-2.95D-04
 NORM(A)=   0.12145712D+01
 Iteration Nr.   7
 **********************
 DD1Dir will call FoFMem   1 times, MxPair=      1496
 NAB=   506 NAA=   253 NBB=   231.
 DE(Corr)=  -1.3098445     E(CORR)=     -419.30777969     Delta=-5.67D-05
 NORM(A)=   0.12146516D+01
 Iteration Nr.   8
 **********************
 DD1Dir will call FoFMem   1 times, MxPair=      1496
 NAB=   506 NAA=   253 NBB=   231.
 DE(Corr)=  -1.3098328     E(CORR)=     -419.30776798     Delta= 1.17D-05
 NORM(A)=   0.12146852D+01
 Iteration Nr.   9
 **********************
 DD1Dir will call FoFMem   1 times, MxPair=      1496
 NAB=   506 NAA=   253 NBB=   231.
 DE(Corr)=  -1.3098427     E(CORR)=     -419.30777782     Delta=-9.83D-06
 NORM(A)=   0.12146900D+01
 Iteration Nr.  10
 **********************
 DD1Dir will call FoFMem   1 times, MxPair=      1496
 NAB=   506 NAA=   253 NBB=   231.
 DE(Corr)=  -1.3098439     E(CORR)=     -419.30777910     Delta=-1.28D-06
 NORM(A)=   0.12146971D+01
 Iteration Nr.  11
 **********************
 DD1Dir will call FoFMem   1 times, MxPair=      1496
 NAB=   506 NAA=   253 NBB=   231.
 DE(Corr)=  -1.3098507     E(CORR)=     -419.30778584     Delta=-6.74D-06
 NORM(A)=   0.12147042D+01
 Iteration Nr.  12
 **********************
 DD1Dir will call FoFMem   1 times, MxPair=      1496
 NAB=   506 NAA=   253 NBB=   231.
 DE(Corr)=  -1.3098520     E(CORR)=     -419.30778714     Delta=-1.30D-06
 NORM(A)=   0.12147101D+01
 Iteration Nr.  13
 **********************
 DD1Dir will call FoFMem   1 times, MxPair=      1496
 NAB=   506 NAA=   253 NBB=   231.
 DE(Corr)=  -1.3098542     E(CORR)=     -419.30778935     Delta=-2.21D-06
 NORM(A)=   0.12147145D+01
 Iteration Nr.  14
 **********************
 DD1Dir will call FoFMem   1 times, MxPair=      1496
 NAB=   506 NAA=   253 NBB=   231.
 DE(Corr)=  -1.3098550     E(CORR)=     -419.30779016     Delta=-8.08D-07
 NORM(A)=   0.12147173D+01
 Iteration Nr.  15
 **********************
 DD1Dir will call FoFMem   1 times, MxPair=      1496
 NAB=   506 NAA=   253 NBB=   231.
 DE(Corr)=  -1.3098554     E(CORR)=     -419.30779052     Delta=-3.67D-07
 NORM(A)=   0.12147189D+01
 Iteration Nr.  16
 **********************
 DD1Dir will call FoFMem   1 times, MxPair=      1496
 NAB=   506 NAA=   253 NBB=   231.
 DE(Corr)=  -1.3098557     E(CORR)=     -419.30779090     Delta=-3.78D-07
 NORM(A)=   0.12147196D+01
 Iteration Nr.  17
 **********************
 DD1Dir will call FoFMem   1 times, MxPair=      1496
 NAB=   506 NAA=   253 NBB=   231.
 DE(Corr)=  -1.3098558     E(CORR)=     -419.30779094     Delta=-4.33D-08
 NORM(A)=   0.12147199D+01
 Wavefunction amplitudes converged. E(Corr)=     -419.30779094    
 Largest amplitude= 5.48D-02
 Time for triples=    39173.77 seconds.
 T4(CCSD)= -0.55366409D-01
 T5(CCSD)=  0.33701693D-02
 CCSD(T)= -0.41935978718D+03

 S**2, projected HF & approx projected MPn energies after annihilation of
 unwanted spin states (see manual for definitions):

 spins       (S**2,0) (S**2,1)    PUHF        PMP2        PMP3        PMP4
 annihilated
 s+1         0.74821  0.74947 -418.004747 -419.261700 -419.287676
 s+1,s+2     0.75001  0.75000 -418.004577 -419.261541 -419.287532
 s+1 to s+3  0.75000  0.75000 -418.004578 -419.261542 -419.287532
 s+1 to s+4  0.75000  0.75000 -418.004578 -419.261542 -419.287532
 s+1 to s+5  0.75000  0.75000 -418.004578
 s+1 to s+6  0.75000  0.75000 -418.004578

 Discarding MO integrals.

 **********************************************************************

            Population analysis using the SCF density.

 **********************************************************************

 Orbital symmetries:
 Alpha Orbitals:
       Occupied  (A) (A) (A) (A) (A) (A) (A) (A) (A) (A) (A) (A)
                 (A) (A) (A) (A) (A) (A) (A) (A) (A) (A) (A) (A)
                 (A) (A) (A) (A) (A) (A) (A)
       Virtual   (A) (A) (A) (A) (A) (A) (A) (A) (A) (A) (A) (A)
                 (A) (A) (A) (A) (A) (A) (A) (A) (A) (A) (A) (A)
                 (A) (A) (A) (A) (A) (A) (A) (A) (A) (A) (A) (A)
                 (A) (A) (A) (A) (A) (A) (A) (A) (A) (A) (A) (A)
                 (A) (A) (A) (A) (A) (A) (A) (A) (A) (A) (A) (A)
                 (A) (A) (A) (A) (A) (A) (A) (A) (A) (A) (A) (A)
                 (A) (A) (A) (A) (A) (A) (A) (A) (A) (A) (A) (A)
                 (A) (A) (A) (A) (A) (A) (A) (A) (A) (A) (A) (A)
                 (A) (A) (A) (A) (A) (A) (A) (A) (A) (A) (A) (A)
                 (A) (A) (A) (A) (A) (A) (A) (A) (A) (A) (A) (A)
                 (A) (A) (A) (A) (A) (A) (A) (A) (A) (A) (A) (A)
                 (A) (A) (A) (A) (A) (A) (A) (A) (A) (A) (A) (A)
                 (A) (A) (A) (A) (A) (A) (A) (A) (A) (A) (A) (A)
                 (A) (A) (A) (A) (A) (A) (A) (A) (A) (A) (A) (A)
                 (A) (A) (A) (A) (A) (A) (A) (A) (A) (A) (A) (A)
                 (A) (A) (A) (A) (A) (A) (A) (A) (A) (A) (A) (A)
                 (A) (A)
 Beta  Orbitals:
       Occupied  (A) (A) (A) (A) (A) (A) (A) (A) (A) (A) (A) (A)
                 (A) (A) (A) (A) (A) (A) (A) (A) (A) (A) (A) (A)
                 (A) (A) (A) (A) (A) (A)
       Virtual   (A) (A) (A) (A) (A) (A) (A) (A) (A) (A) (A) (A)
                 (A) (A) (A) (A) (A) (A) (A) (A) (A) (A) (A) (A)
                 (A) (A) (A) (A) (A) (A) (A) (A) (A) (A) (A) (A)
                 (A) (A) (A) (A) (A) (A) (A) (A) (A) (A) (A) (A)
                 (A) (A) (A) (A) (A) (A) (A) (A) (A) (A) (A) (A)
                 (A) (A) (A) (A) (A) (A) (A) (A) (A) (A) (A) (A)
                 (A) (A) (A) (A) (A) (A) (A) (A) (A) (A) (A) (A)
                 (A) (A) (A) (A) (A) (A) (A) (A) (A) (A) (A) (A)
                 (A) (A) (A) (A) (A) (A) (A) (A) (A) (A) (A) (A)
                 (A) (A) (A) (A) (A) (A) (A) (A) (A) (A) (A) (A)
                 (A) (A) (A) (A) (A) (A) (A) (A) (A) (A) (A) (A)
                 (A) (A) (A) (A) (A) (A) (A) (A) (A) (A) (A) (A)
                 (A) (A) (A) (A) (A) (A) (A) (A) (A) (A) (A) (A)
                 (A) (A) (A) (A) (A) (A) (A) (A) (A) (A) (A) (A)
                 (A) (A) (A) (A) (A) (A) (A) (A) (A) (A) (A) (A)
                 (A) (A) (A) (A) (A) (A) (A) (A) (A) (A) (A) (A)
                 (A) (A) (A)
 The electronic state is 2-A.
 Alpha  occ. eigenvalues --  -20.62363 -20.61862 -20.57234 -11.42349 -11.30482
 Alpha  occ. eigenvalues --  -11.26827 -11.26165 -11.23496  -1.49365  -1.39290
 Alpha  occ. eigenvalues --   -1.37285  -1.08882  -1.04978  -0.92361  -0.84082
 Alpha  occ. eigenvalues --   -0.78231  -0.73101  -0.70397  -0.70303  -0.66457
 Alpha  occ. eigenvalues --   -0.64591  -0.61091  -0.59785  -0.56519  -0.54611
 Alpha  occ. eigenvalues --   -0.53208  -0.52880  -0.49761  -0.48103  -0.42950
 Alpha  occ. eigenvalues --   -0.42148
 Alpha virt. eigenvalues --    0.03768   0.04664   0.05919   0.06227   0.07145
 Alpha virt. eigenvalues --    0.08253   0.08554   0.09491   0.11593   0.12226
 Alpha virt. eigenvalues --    0.12518   0.12971   0.14149   0.15482   0.16049
 Alpha virt. eigenvalues --    0.17436   0.17942   0.18337   0.18719   0.19050
 Alpha virt. eigenvalues --    0.19060   0.20601   0.21499   0.21869   0.22303
 Alpha virt. eigenvalues --    0.23673   0.25348   0.28234   0.28282   0.28908
 Alpha virt. eigenvalues --    0.29211   0.29516   0.30302   0.30687   0.32143
 Alpha virt. eigenvalues --    0.33276   0.34843   0.36076   0.36899   0.37323
 Alpha virt. eigenvalues --    0.38522   0.39131   0.40590   0.40958   0.41897
 Alpha virt. eigenvalues --    0.44274   0.45085   0.45588   0.46876   0.48322
 Alpha virt. eigenvalues --    0.51143   0.55018   0.56536   0.58522   0.63177
 Alpha virt. eigenvalues --    0.64230   0.64746   0.68608   0.70603   0.70731
 Alpha virt. eigenvalues --    0.76888   0.78868   0.79189   0.81766   0.83567
 Alpha virt. eigenvalues --    0.83573   0.85161   0.85536   0.85734   0.86701
 Alpha virt. eigenvalues --    0.87621   0.88685   0.91334   0.96087   0.97977
 Alpha virt. eigenvalues --    1.01670   1.07084   1.07508   1.11655   1.21218
 Alpha virt. eigenvalues --    1.21593   1.22863   1.25197   1.27033   1.30098
 Alpha virt. eigenvalues --    1.31485   1.33364   1.35018   1.38093   1.39512
 Alpha virt. eigenvalues --    1.41590   1.42686   1.46676   1.48644   1.49710
 Alpha virt. eigenvalues --    1.52288   1.55304   1.59208   1.59409   1.61315
 Alpha virt. eigenvalues --    1.66363   1.66485   1.70837   1.71087   1.76505
 Alpha virt. eigenvalues --    1.79623   1.80019   1.80678   1.84667   1.86972
 Alpha virt. eigenvalues --    1.88045   1.90523   1.92085   1.94597   1.98574
 Alpha virt. eigenvalues --    1.99943   2.03298   2.09235   2.09282   2.12969
 Alpha virt. eigenvalues --    2.18842   2.21267   2.27423   2.28221   2.33489
 Alpha virt. eigenvalues --    2.36950   2.41061   2.41646   2.47354   2.55562
 Alpha virt. eigenvalues --    2.64609   2.70467   2.77410   2.79482   2.82005
 Alpha virt. eigenvalues --    2.85155   2.87794   2.87925   2.92196   2.94585
 Alpha virt. eigenvalues --    2.95023   2.96087   2.98205   2.98250   3.03458
 Alpha virt. eigenvalues --    3.10149   3.14079   3.14811   3.18240   3.20618
 Alpha virt. eigenvalues --    3.23682   3.27363   3.30219   3.36006   3.36146
 Alpha virt. eigenvalues --    3.42127   3.43913   3.44374   3.48254   3.49962
 Alpha virt. eigenvalues --    3.57823   3.60550   3.65547   3.70243   3.72506
 Alpha virt. eigenvalues --    3.76792   3.90959   4.02507   4.12066   4.19261
 Alpha virt. eigenvalues --    4.21242   4.21477   4.23276   4.45649   4.51752
 Alpha virt. eigenvalues --    4.55462   4.69014   5.47825   5.53106   5.55721
 Alpha virt. eigenvalues --    5.60414   5.77547   5.90782   6.00483   6.21121
 Alpha virt. eigenvalues --    6.42580  24.70563  24.99467  25.02420  25.13722
 Alpha virt. eigenvalues --   26.27543  51.49834  51.59254  51.71242
  Beta  occ. eigenvalues --  -20.62352 -20.57773 -20.57012 -11.42518 -11.30479
  Beta  occ. eigenvalues --  -11.27620 -11.25212 -11.23496  -1.49246  -1.38909
  Beta  occ. eigenvalues --   -1.21786  -1.08037  -1.04940  -0.92693  -0.84046
  Beta  occ. eigenvalues --   -0.78166  -0.73031  -0.70332  -0.70015  -0.62030
  Beta  occ. eigenvalues --   -0.60757  -0.59608  -0.56462  -0.52911  -0.52849
  Beta  occ. eigenvalues --   -0.49675  -0.49158  -0.47613  -0.43170  -0.42741
  Beta virt. eigenvalues --    0.03771   0.04648   0.05780   0.06223   0.06979
  Beta virt. eigenvalues --    0.07406   0.08445   0.09479   0.10488   0.12291
  Beta virt. eigenvalues --    0.12316   0.12538   0.13184   0.14938   0.15296
  Beta virt. eigenvalues --    0.16093   0.17319   0.17814   0.18340   0.18687
  Beta virt. eigenvalues --    0.19093   0.19140   0.20536   0.21488   0.22490
  Beta virt. eigenvalues --    0.22794   0.23873   0.25944   0.28295   0.28592
  Beta virt. eigenvalues --    0.28873   0.29218   0.30225   0.30657   0.31002
  Beta virt. eigenvalues --    0.32175   0.33572   0.34804   0.36427   0.37382
  Beta virt. eigenvalues --    0.37627   0.39218   0.40373   0.40874   0.41347
  Beta virt. eigenvalues --    0.42461   0.44415   0.45519   0.46369   0.47101
  Beta virt. eigenvalues --    0.48455   0.51666   0.55321   0.56532   0.58631
  Beta virt. eigenvalues --    0.63308   0.64246   0.64771   0.68782   0.69920
  Beta virt. eigenvalues --    0.70921   0.77650   0.78270   0.79001   0.82216
  Beta virt. eigenvalues --    0.82917   0.83793   0.85432   0.85967   0.86104
  Beta virt. eigenvalues --    0.86761   0.87721   0.89390   0.91576   0.96292
  Beta virt. eigenvalues --    0.98148   1.02183   1.07523   1.07675   1.12067
  Beta virt. eigenvalues --    1.21218   1.21951   1.26847   1.26907   1.28790
  Beta virt. eigenvalues --    1.30226   1.32577   1.34837   1.35536   1.38602
  Beta virt. eigenvalues --    1.39867   1.41572   1.42826   1.48125   1.48628
  Beta virt. eigenvalues --    1.50187   1.52758   1.57598   1.58747   1.60465
  Beta virt. eigenvalues --    1.60826   1.66387   1.68702   1.71087   1.72538
  Beta virt. eigenvalues --    1.77507   1.79622   1.80012   1.80869   1.84687
  Beta virt. eigenvalues --    1.87314   1.88088   1.90930   1.92169   1.94615
  Beta virt. eigenvalues --    1.99094   1.99952   2.03940   2.09307   2.09323
  Beta virt. eigenvalues --    2.13028   2.18975   2.21281   2.27507   2.28224
  Beta virt. eigenvalues --    2.33537   2.38808   2.41042   2.41634   2.47358
  Beta virt. eigenvalues --    2.55564   2.64617   2.70458   2.77410   2.79670
  Beta virt. eigenvalues --    2.82027   2.85175   2.87742   2.87795   2.92282
  Beta virt. eigenvalues --    2.94569   2.95256   2.96171   2.98188   2.98648
  Beta virt. eigenvalues --    3.03279   3.12747   3.14778   3.20015   3.21382
  Beta virt. eigenvalues --    3.24352   3.28027   3.30182   3.31750   3.36345
  Beta virt. eigenvalues --    3.36805   3.43109   3.44044   3.47506   3.50300
  Beta virt. eigenvalues --    3.55328   3.59021   3.60545   3.65628   3.70397
  Beta virt. eigenvalues --    3.72835   3.77129   3.90876   4.02645   4.12326
  Beta virt. eigenvalues --    4.19264   4.21242   4.21488   4.26820   4.45685
  Beta virt. eigenvalues --    4.51794   4.55596   4.69028   5.50340   5.55780
  Beta virt. eigenvalues --    5.60953   5.65967   5.77865   5.90814   6.03069
  Beta virt. eigenvalues --    6.21204   6.42634  24.70692  24.99409  25.02347
  Beta virt. eigenvalues --   25.13722  26.27549  51.52188  51.59275  51.71363
          Condensed to atoms (all electrons):
               1          2          3          4          5          6
     1  C   36.177473   0.760625 -11.848514 -17.296336   0.435406   0.356058
     2  H    0.760625   0.408879  -0.327525  -0.026028  -0.000628  -0.000627
     3  C  -11.848514  -0.327525  21.659180  -5.899716   0.460830   0.124030
     4  C  -17.296336  -0.026028  -5.899716  30.207659  -0.496414  -0.748884
     5  O    0.435406  -0.000628   0.460830  -0.496414   8.139395  -0.103092
     6  O    0.356058  -0.000627   0.124030  -0.748884  -0.103092   8.455929
     7  C    0.154602   0.003354  -0.564860  -0.092160  -0.081260   0.281667
     8  C   -0.172304  -0.000184  -0.377153   0.652432   0.006624  -0.238077
     9  H    0.006559  -0.000018  -0.004476  -0.024580  -0.013007  -0.031729
    10  H    0.006560  -0.000018  -0.004475  -0.024582  -0.013007  -0.031729
    11  H    0.001952   0.000043   0.013643  -0.014530  -0.001118  -0.008897
    12  H    0.001953   0.000043   0.013644  -0.014530  -0.001118  -0.008897
    13  H    0.000250  -0.000032   0.002910  -0.002169   0.001305   0.023579
    14  O    0.157235  -0.005616  -0.118135  -0.098375  -0.000971  -0.002288
    15  H   -0.099290  -0.001677  -0.009942   0.111362   0.006082  -0.000623
               7          8          9         10         11         12
     1  C    0.154602  -0.172304   0.006559   0.006560   0.001952   0.001953
     2  H    0.003354  -0.000184  -0.000018  -0.000018   0.000043   0.000043
     3  C   -0.564860  -0.377153  -0.004476  -0.004475   0.013643   0.013644
     4  C   -0.092160   0.652432  -0.024580  -0.024582  -0.014530  -0.014530
     5  O   -0.081260   0.006624  -0.013007  -0.013007  -0.001118  -0.001118
     6  O    0.281667  -0.238077  -0.031729  -0.031729  -0.008897  -0.008897
     7  C    5.489265  -0.009990   0.455247   0.455247  -0.024762  -0.024762
     8  C   -0.009990   5.691812  -0.058429  -0.058430   0.393392   0.393392
     9  H    0.455247  -0.058429   0.543811  -0.048696   0.004203  -0.007000
    10  H    0.455247  -0.058430  -0.048696   0.543811  -0.007000   0.004203
    11  H   -0.024762   0.393392   0.004203  -0.007000   0.561820  -0.040899
    12  H   -0.024762   0.393392  -0.007000   0.004203  -0.040899   0.561820
    13  H   -0.060646   0.419790  -0.003515  -0.003515  -0.032448  -0.032448
    14  O    0.000245   0.000001  -0.000062  -0.000062  -0.000005  -0.000005
    15  H    0.000867   0.000846  -0.000012  -0.000012  -0.000040  -0.000040
              13         14         15
     1  C    0.000250   0.157235  -0.099290
     2  H   -0.000032  -0.005616  -0.001677
     3  C    0.002910  -0.118135  -0.009942
     4  C   -0.002169  -0.098375   0.111362
     5  O    0.001305  -0.000971   0.006082
     6  O    0.023579  -0.002288  -0.000623
     7  C   -0.060646   0.000245   0.000867
     8  C    0.419790   0.000001   0.000846
     9  H   -0.003515  -0.000062  -0.000012
    10  H   -0.003515  -0.000062  -0.000012
    11  H   -0.032448  -0.000005  -0.000040
    12  H   -0.032448  -0.000005  -0.000040
    13  H    0.543259  -0.000002  -0.000000
    14  O   -0.000002   8.014993   0.299749
    15  H   -0.000000   0.299749   0.425788
          Atomic-Atomic Spin Densities.
               1          2          3          4          5          6
     1  C   -0.798252   0.035659   0.376825  -0.114645   0.017726   0.016815
     2  H    0.035659   0.030421  -0.026113  -0.007171   0.000048   0.000115
     3  C    0.376825  -0.026113   0.317024  -0.116476   0.003035  -0.049093
     4  C   -0.114645  -0.007171  -0.116476   0.205812  -0.043183   0.042081
     5  O    0.017726   0.000048   0.003035  -0.043183   0.064076  -0.000421
     6  O    0.016815   0.000115  -0.049093   0.042081  -0.000421  -0.009424
     7  C    0.050532   0.000385  -0.008466  -0.056680  -0.000940   0.000756
     8  C   -0.006895  -0.000052  -0.005208   0.015816  -0.000435   0.000643
     9  H   -0.001595  -0.000011  -0.001913   0.003299  -0.000025  -0.000224
    10  H   -0.001595  -0.000011  -0.001913   0.003299  -0.000025  -0.000224
    11  H   -0.000165  -0.000001  -0.000261   0.000547  -0.000010   0.000008
    12  H   -0.000165  -0.000001  -0.000261   0.000546  -0.000010   0.000008
    13  H    0.000893   0.000006   0.000098  -0.001681  -0.000007  -0.000016
    14  O    0.060967   0.004065  -0.061507  -0.033274   0.002012  -0.000179
    15  H   -0.009880  -0.000619   0.005286   0.007169  -0.000341  -0.000104
               7          8          9         10         11         12
     1  C    0.050532  -0.006895  -0.001595  -0.001595  -0.000165  -0.000165
     2  H    0.000385  -0.000052  -0.000011  -0.000011  -0.000001  -0.000001
     3  C   -0.008466  -0.005208  -0.001913  -0.001913  -0.000261  -0.000261
     4  C   -0.056680   0.015816   0.003299   0.003299   0.000547   0.000546
     5  O   -0.000940  -0.000435  -0.000025  -0.000025  -0.000010  -0.000010
     6  O    0.000756   0.000643  -0.000224  -0.000224   0.000008   0.000008
     7  C    0.023995  -0.008742   0.000021   0.000021  -0.000413  -0.000413
     8  C   -0.008742   0.004692   0.000315   0.000315   0.000227   0.000227
     9  H    0.000021   0.000315  -0.000043   0.000158   0.000017   0.000007
    10  H    0.000021   0.000315   0.000158  -0.000043   0.000007   0.000017
    11  H   -0.000413   0.000227   0.000017   0.000007   0.000057   0.000010
    12  H   -0.000413   0.000227   0.000007   0.000017   0.000010   0.000057
    13  H    0.001157  -0.000691   0.000036   0.000036  -0.000011  -0.000011
    14  O    0.000892  -0.000092  -0.000002  -0.000002  -0.000002  -0.000002
    15  H   -0.000966   0.000107   0.000009   0.000009   0.000003   0.000003
              13         14         15
     1  C    0.000893   0.060967  -0.009880
     2  H    0.000006   0.004065  -0.000619
     3  C    0.000098  -0.061507   0.005286
     4  C   -0.001681  -0.033274   0.007169
     5  O   -0.000007   0.002012  -0.000341
     6  O   -0.000016  -0.000179  -0.000104
     7  C    0.001157   0.000892  -0.000966
     8  C   -0.000691  -0.000092   0.000107
     9  H    0.000036  -0.000002   0.000009
    10  H    0.000036  -0.000002   0.000009
    11  H   -0.000011  -0.000002   0.000003
    12  H   -0.000011  -0.000002   0.000003
    13  H    0.000227   0.000002  -0.000010
    14  O    0.000002   1.015616   0.004155
    15  H   -0.000010   0.004155  -0.040690
 Mulliken charges and spin densities:
               1          2
     1  C   -2.642227  -0.373776
     2  H    0.189412   0.036722
     3  C    2.880558   0.431059
     4  C   -0.233149  -0.094540
     5  O   -0.339026   0.041498
     6  O   -0.066421   0.000742
     7  C    0.017946   0.001138
     8  C   -0.643721   0.000227
     9  H    0.181706   0.000048
    10  H    0.181707   0.000048
    11  H    0.154646   0.000012
    12  H    0.154646   0.000012
    13  H    0.143683   0.000028
    14  O   -0.246703   0.992650
    15  H    0.266943  -0.035870
 Sum of Mulliken charges =  -0.00000   1.00000
 Mulliken charges and spin densities with hydrogens summed into heavy atoms:
               1          2
     1  C   -2.452816  -0.337054
     3  C    2.880558   0.431059
     4  C   -0.233149  -0.094540
     5  O   -0.339026   0.041498
     6  O   -0.066421   0.000742
     7  C    0.381358   0.001235
     8  C   -0.190746   0.000280
    14  O    0.020240   0.956780
 Electronic spatial extent (au):  <R**2>=           1450.0503
 Charge=             -0.0000 electrons
 Dipole moment (field-independent basis, Debye):
    X=             -2.5111    Y=              0.8613    Z=             -0.0000  Tot=              2.6548
 Quadrupole moment (field-independent basis, Debye-Ang):
   XX=            -44.2323   YY=            -47.8861   ZZ=            -47.7214
   XY=              4.8540   XZ=             -0.0000   YZ=             -0.0000
 Traceless Quadrupole moment (field-independent basis, Debye-Ang):
   XX=              2.3810   YY=             -1.2729   ZZ=             -1.1081
   XY=              4.8540   XZ=             -0.0000   YZ=             -0.0000
 Octapole moment (field-independent basis, Debye-Ang**2):
  XXX=            -35.8682  YYY=             -1.2258  ZZZ=              0.0000  XYY=             17.2472
  XXY=              5.7432  XXZ=             -0.0001  XZZ=             -3.8335  YZZ=             -3.7261
  YYZ=              0.0001  XYZ=             -0.0001
 Hexadecapole moment (field-independent basis, Debye-Ang**3):
 XXXX=          -1613.3219 YYYY=           -255.8767 ZZZZ=            -60.0868 XXXY=             47.7281
 XXXZ=             -0.0006 YYYX=              1.4402 YYYZ=             -0.0001 ZZZX=              0.0000
 ZZZY=              0.0001 XXYY=           -235.9831 XXZZ=           -279.9072 YYZZ=            -52.8379
 XXYZ=             -0.0002 YYXZ=              0.0001 ZZXY=             -5.2458
 N-N= 3.418771666401D+02 E-N=-1.666581147301D+03  KE= 4.176888716866D+02
 1\1\GINC-AJ\SP\UCCSD(T)-FC\6-311++G(d,p)\C5H7O3(2)\AAYUSH\23-Apr-2025\
 0\\# ccsd(t)/6-311++g(d,p) sp\\Title Card Required\\0,2\C,0,2.158249,-
 1.350933,0.000005\H,0,3.054413,-1.926429,0.000005\C,0,1.127147,-0.7357
 82,0.000005\C,0,0.010185,0.193698,0.000005\O,0,0.1665,1.386858,0.00000
 8\O,0,-1.162456,-0.426488,-0.000001\C,0,-2.323876,0.429305,-0.000002\C
 ,0,-3.537817,-0.469746,-0.000005\H,0,-2.280874,1.068742,0.883873\H,0,-
 2.280871,1.068743,-0.883876\H,0,-3.545516,-1.105438,-0.886133\H,0,-3.5
 45519,-1.105439,0.886122\H,0,-4.443846,0.138469,-0.000006\O,0,3.564007
 ,0.532843,-0.000012\H,0,2.838941,1.183539,-0.000008\\Version=ES64L-G16
 RevA.03\State=2-A\HF=-417.9979352\MP2=-419.2559137\MP3=-419.2835702\MP
 4D=-419.3142424\MP4DQ=-419.2892554\PUHF=-418.0047472\PMP2-0=-419.26169
 99\PMP3-0=-419.2876762\MP4SDQ=-419.307692\CCSD=-419.3077909\CCSD(T)=-4
 19.3597872\S2=0.816728\S2-1=0.79609\S2A=0.753016\RMSD=7.263e-09\PG=C01
  [X(C5H7O3)]\\@


 The earth never tires,
 The earth is rude, silent, incomprehensible at first,
 Nature is rude and incomprehensible at first,
 Be not discouraged, keep on,
 There are divine things well envelop'd,
 I swear to you there are divine things more beautiful than words can tell.
                                 -- Walt Whitman
 Job cpu time:       0 days 18 hours 25 minutes 22.6 seconds.
 Elapsed time:       0 days  0 hours 46 minutes 18.5 seconds.
 File lengths (MBytes):  RWF=  44733 Int=      0 D2E=      0 Chk=      7 Scr=      1
 Normal termination of Gaussian 16 at Wed Apr 23 04:50:33 2025.
