 Entering Link 1 = C:\G09W\l1.exe PID=      1692.
  
 Copyright (c) 1988,1990,1992,1993,1995,1998,2003,2009,2013,
            Gaussian, Inc.  All Rights Reserved.
  
 This is part of the Gaussian(R) 09 program.  It is based on
 the Gaussian(R) 03 system (copyright 2003, Gaussian, Inc.),
 the Gaussian(R) 98 system (copyright 1998, Gaussian, Inc.),
 the Gaussian(R) 94 system (copyright 1995, Gaussian, Inc.),
 the Gaussian 92(TM) system (copyright 1992, Gaussian, Inc.),
 the Gaussian 90(TM) system (copyright 1990, Gaussian, Inc.),
 the Gaussian 88(TM) system (copyright 1988, Gaussian, Inc.),
 the Gaussian 86(TM) system (copyright 1986, Carnegie Mellon
 University), and the Gaussian 82(TM) system (copyright 1983,
 Carnegie Mellon University). Gaussian is a federally registered
 trademark of Gaussian, Inc.
  
 This software contains proprietary and confidential information,
 including trade secrets, belonging to Gaussian, Inc.
  
 This software is provided under written license and may be
 used, copied, transmitted, or stored only in accord with that
 written license.
  
 The following legend is applicable only to US Government
 contracts under FAR:
  
                    RESTRICTED RIGHTS LEGEND
  
 Use, reproduction and disclosure by the US Government is
 subject to restrictions as set forth in subparagraphs (a)
 and (c) of the Commercial Computer Software - Restricted
 Rights clause in FAR 52.227-19.
  
 Gaussian, Inc.
 340 Quinnipiac St., Bldg. 40, Wallingford CT 06492
  
  
 ---------------------------------------------------------------
 Warning -- This program may not be used in any manner that
 competes with the business of Gaussian, Inc. or will provide
 assistance to any competitor of Gaussian, Inc.  The licensee
 of this program is prohibited from giving any competitor of
 Gaussian, Inc. access to this program.  By using this program,
 the user acknowledges that Gaussian, Inc. is engaged in the
 business of creating and licensing software in the field of
 computational chemistry and represents and warrants to the
 licensee that it is not a competitor of Gaussian, Inc. and that
 it will not use this program in any manner prohibited above.
 ---------------------------------------------------------------
  

 Cite this work as:
 Gaussian 09, Revision D.01,
 M. J. Frisch, G. W. Trucks, H. B. Schlegel, G. E. Scuseria, 
 M. A. Robb, J. R. Cheeseman, G. Scalmani, V. Barone, B. Mennucci, 
 G. A. Petersson, H. Nakatsuji, M. Caricato, X. Li, H. P. Hratchian, 
 A. F. Izmaylov, J. Bloino, G. Zheng, J. L. Sonnenberg, M. Hada, 
 M. Ehara, K. Toyota, R. Fukuda, J. Hasegawa, M. Ishida, T. Nakajima, 
 Y. Honda, O. Kitao, H. Nakai, T. Vreven, J. A. Montgomery, Jr., 
 J. E. Peralta, F. Ogliaro, M. Bearpark, J. J. Heyd, E. Brothers, 
 K. N. Kudin, V. N. Staroverov, T. Keith, R. Kobayashi, J. Normand, 
 K. Raghavachari, A. Rendell, J. C. Burant, S. S. Iyengar, J. Tomasi, 
 M. Cossi, N. Rega, J. M. Millam, M. Klene, J. E. Knox, J. B. Cross, 
 V. Bakken, C. Adamo, J. Jaramillo, R. Gomperts, R. E. Stratmann, 
 O. Yazyev, A. J. Austin, R. Cammi, C. Pomelli, J. W. Ochterski, 
 R. L. Martin, K. Morokuma, V. G. Zakrzewski, G. A. Voth, 
 P. Salvador, J. J. Dannenberg, S. Dapprich, A. D. Daniels, 
 O. Farkas, J. B. Foresman, J. V. Ortiz, J. Cioslowski, 
 and D. J. Fox, Gaussian, Inc., Wallingford CT, 2013.
 
 ******************************************
 Gaussian 09:  IA32W-G09RevD.01 24-Apr-2013
                25-Mar-2025 
 ******************************************
 %nprocshared=4
 Will use up to    4 processors via shared memory.
 %mem=150MW
 %chk=ethyl_propiolate.chk
 ----------------------------------------------------------------------
 # irc=(calcfc,maxpoints=10,maxcycle=900,stepsize=5) 6-311++g(d,p) geom
 =connectivity m062x
 ----------------------------------------------------------------------
 1/6=900,10=4,14=-1,18=10,26=3,38=1,39=5,42=10,44=3,57=2/1,23;
 2/12=2,17=6,18=5,29=1,40=1/2;
 3/5=4,6=6,7=1111,11=2,16=1,25=1,30=1,71=2,74=-55,140=1/1,2,3;
 4//1;
 5/5=2,38=5/2;
 8/6=4,10=90,11=11/1;
 11/6=1,8=1,9=11,15=111,16=1/1,2,10;
 10/6=1,13=1/2;
 6/7=2,8=2,9=2,10=2,28=1/1;
 7/10=1,18=20,25=1/1,2,3,16;
 1/6=900,10=4,14=-1,18=10,26=3,39=5,42=10,44=3/23(2);
 2/29=1/2;
 99/5=20/99;
 2/29=1/2;
 3/5=4,6=6,7=1111,11=2,16=1,25=1,30=1,71=2,74=-55,140=1/1,2,3;
 4/5=5,16=3,69=1/1;
 5/5=2,38=5/2;
 8/6=4,10=90,11=11/1;
 11/6=1,8=1,9=11,15=111,16=1/1,2,10;
 10/6=1,13=1/2;
 7/10=1,18=20,25=1/1,2,3,16;
 1/6=900,14=-1,18=10,26=3,39=5,42=10,44=3/23(-8);
 2/29=1/2;
 6/7=2,8=2,9=2,10=2,19=2,28=1/1;
 99/5=20,9=1/99;
 -------------------
 Title Card Required
 -------------------
 Symbolic Z-matrix:
 Charge =  0 Multiplicity = 2
 C                     2.9831    1.30965   0.30522 
 H                     3.74598   2.03677   0.45969 
 C                     2.12676   0.49024   0.13065 
 C                     1.11953  -0.53241  -0.10728 
 O                     1.34828  -1.6127   -0.56943 
 O                    -0.09522  -0.10242   0.25716 
 C                    -1.17522  -1.03151   0.0349 
 C                    -2.41892  -0.39038   0.57974 
 H                    -1.24978  -1.22616  -1.03685 
 H                    -0.93765  -1.97155   0.54007 
 H                    -2.35826  -0.16335   1.64324 
 H                    -2.55009   0.66339   0.02592 
 H                    -3.31954  -0.95214   0.33504 
 O                    -2.23394   1.80388  -0.59764 
 H                    -1.29516   1.82943  -0.34731 
 
 IRC-IRC-IRC-IRC-IRC-IRC-IRC-IRC-IRC-IRC-IRC-IRC-IRC-IRC-IRC-IRC-IRC-IRC
 ------------------------------------------------------------------------
 INPUT DATA FOR L123
 ------------------------------------------------------------------------
 GENERAL PARAMETERS:
 Follow reaction path in both directions.
 Maximum points per path      =  10
 Step size                    =   0.050 bohr
 Integration scheme           = HPC                                 
    Redo corrector integration= Yes                                 
    DWI Weight Power          =  2
    DWI will use Hessian update vectors when possible.
    Max correction cycles     = 900
 Initial Hessian              = CalcFC
 Hessian evaluation           = All updating
 Hessian updating method      = Bofill                              
 ------------------------------------------------------------------------
 IRC-IRC-IRC-IRC-IRC-IRC-IRC-IRC-IRC-IRC-IRC-IRC-IRC-IRC-IRC-IRC-IRC-IRC
                          Input orientation:                          
 ---------------------------------------------------------------------
 Center     Atomic      Atomic             Coordinates (Angstroms)
 Number     Number       Type             X           Y           Z
 ---------------------------------------------------------------------
      1          6           0        2.983098    1.309649    0.305220
      2          1           0        3.745981    2.036769    0.459693
      3          6           0        2.126762    0.490241    0.130649
      4          6           0        1.119531   -0.532411   -0.107278
      5          8           0        1.348277   -1.612703   -0.569428
      6          8           0       -0.095217   -0.102422    0.257164
      7          6           0       -1.175217   -1.031508    0.034903
      8          6           0       -2.418915   -0.390375    0.579742
      9          1           0       -1.249776   -1.226156   -1.036854
     10          1           0       -0.937653   -1.971554    0.540072
     11          1           0       -2.358262   -0.163352    1.643240
     12          1           0       -2.550094    0.663387    0.025915
     13          1           0       -3.319542   -0.952142    0.335041
     14          8           0       -2.233942    1.803880   -0.597638
     15          1           0       -1.295155    1.829427   -0.347311
 ---------------------------------------------------------------------
                    Distance matrix (angstroms):
                    1          2          3          4          5
     1  C    0.000000
     2  H    1.065155   0.000000
     3  C    1.198005   2.263159   0.000000
     4  C    2.652588   3.717577   1.454971   0.000000
     5  O    3.460894   4.486281   2.349153   1.197054   0.000000
     6  O    3.387075   4.401359   2.303138   1.339149   2.246748
     7  C    4.779715   5.814891   3.637025   2.352697   2.659140
     8  C    5.669849   6.626566   4.651919   3.607322   4.123883
     9  H    5.113579   6.151741   3.963596   2.637993   2.667918
    10  H    5.117982   6.165188   3.952050   2.592721   2.566172
    11  H    5.700014   6.595688   4.778133   3.910954   4.553564
    12  H    5.577802   6.458707   4.681232   3.861842   4.553275
    13  H    6.696257   7.672727   5.637772   4.480758   4.800306
    14  O    5.317605   6.077143   4.612135   4.116369   4.950366
    15  H    4.358832   5.109530   3.705588   3.386237   4.345725
                    6          7          8          9         10
     6  O    0.000000
     7  C    1.441874   0.000000
     8  C    2.363588   1.501561   0.000000
     9  H    2.066462   1.091838   2.163053   0.000000
    10  H    2.069635   1.093306   2.166988   1.771930   0.000000
    11  H    2.654485   2.177163   1.089149   3.088883   2.550432
    12  H    2.581930   2.182438   1.197642   2.527979   3.131651
    13  H    3.335320   2.166682   1.089307   2.498222   2.598968
    14  O    2.989786   3.091995   2.497037   3.215993   4.150741
    15  H    2.353143   2.888844   2.655143   3.132749   3.919530
                   11         12         13         14         15
    11  H    0.000000
    12  H    1.826482   0.000000
    13  H    1.804892   1.815914   0.000000
    14  O    2.984458   1.337720   3.105491   0.000000
    15  H    3.010591   1.753231   3.507260   0.971925   0.000000
 Symmetry turned off by external request.
 Stoichiometry    C5H7O3(2)
 Framework group  C1[X(C5H7O3)]
 Deg. of freedom    39
 Full point group                 C1      NOp   1
 Rotational constants (GHZ):      2.9516292      1.1608642      0.8982741
 Standard basis: 6-311++G(d,p) (5D, 7F)
   225 basis functions,   351 primitive gaussians,   233 cartesian basis functions
    31 alpha electrons       30 beta electrons
       nuclear repulsion energy       348.1289402144 Hartrees.
 NAtoms=   15 NActive=   15 NUniq=   15 SFac= 1.00D+00 NAtFMM=   60 NAOKFM=F Big=F
 Integral buffers will be    262144 words long.
 Raffenetti 2 integral format.
 Two-electron integral symmetry is turned off.
 One-electron integrals computed using PRISM.
 NBasis=   225 RedAO= T EigKep=  6.75D-06  NBF=   225
 NBsUse=   224 1.00D-06 EigRej=  7.97D-07 NBFU=   224
 ExpMin= 3.60D-02 ExpMax= 8.59D+03 ExpMxC= 1.30D+03 IAcc=3 IRadAn=         5 AccDes= 0.00D+00
 Harris functional with IExCor= 1009 and IRadAn=       5 diagonalized for initial guess.
 HarFok:  IExCor= 1009 AccDes= 0.00D+00 IRadAn=         5 IDoV= 1 UseB2=F ITyADJ=14
 ICtDFT=  3500011 ScaDFX=  1.000000  1.000000  1.000000  1.000000
 FoFCou: FMM=F IPFlag=           0 FMFlag=      100000 FMFlg1=           0
         NFxFlg=           0 DoJE=T BraDBF=F KetDBF=T FulRan=T
         wScrn=  0.000000 ICntrl=     500 IOpCl=  0 I1Cent=   200000004 NGrid=           0
         NMat0=    1 NMatS0=      1 NMatT0=    0 NMatD0=    1 NMtDS0=    0 NMtDT0=    0
 Symmetry not used in FoFCou.
 Initial guess <Sx>= 0.0000 <Sy>= 0.0000 <Sz>= 0.5000 <S**2>= 0.7500 S= 0.5000
 Requested convergence on RMS density matrix=1.00D-08 within 128 cycles.
 Requested convergence on MAX density matrix=1.00D-06.
 Requested convergence on             energy=1.00D-06.
 No special actions if energy rises.
 SCF Done:  E(UM062X) =  -420.199667684     A.U. after   19 cycles
            NFock= 19  Conv=0.67D-08     -V/T= 2.0033
 <Sx>= 0.0000 <Sy>= 0.0000 <Sz>= 0.5000 <S**2>= 0.7588 S= 0.5044
 <L.S>= 0.000000000000E+00
 Annihilation of the first spin contaminant:
 S**2 before annihilation     0.7588,   after     0.7500
 DoSCS=F DFT=T ScalE2(SS,OS)=  1.000000  1.000000
 Range of M.O.s used for correlation:     1   224
 NBasis=   225 NAE=    31 NBE=    30 NFC=     0 NFV=     0
 NROrb=    224 NOA=    31 NOB=    30 NVA=   193 NVB=   194

 **** Warning!!: The largest alpha MO coefficient is  0.16944266D+03


 **** Warning!!: The largest beta MO coefficient is  0.17784375D+03

 Symmetrizing basis deriv contribution to polar:
 IMax=3 JMax=2 DiffMx= 0.00D+00
 G2DrvN: will do    16 centers at a time, making    1 passes.
 Calling FoFCou, ICntrl=  3107 FMM=F I1Cent=   0 AccDes= 0.00D+00.
 End of G2Drv F.D. properties file   721 does not exist.
 End of G2Drv F.D. properties file   722 does not exist.
 End of G2Drv F.D. properties file   788 does not exist.
          IDoAtm=111111111111111
          Differentiating once with respect to nuclear coordinates.
          There are    48 degrees of freedom in the 1st order CPHF.  IDoFFX=6 NUNeed=     0.
     43 vectors produced by pass  0 Test12= 2.46D-14 2.08D-09 XBig12= 2.18D-01 1.52D-01.
 AX will form    43 AO Fock derivatives at one time.
     42 vectors produced by pass  1 Test12= 2.46D-14 2.08D-09 XBig12= 2.27D-02 2.53D-02.
     42 vectors produced by pass  2 Test12= 2.46D-14 2.08D-09 XBig12= 5.46D-04 3.27D-03.
     42 vectors produced by pass  3 Test12= 2.46D-14 2.08D-09 XBig12= 9.56D-06 3.89D-04.
     42 vectors produced by pass  4 Test12= 2.46D-14 2.08D-09 XBig12= 9.37D-08 2.62D-05.
     42 vectors produced by pass  5 Test12= 2.46D-14 2.08D-09 XBig12= 6.75D-10 3.41D-06.
     42 vectors produced by pass  6 Test12= 2.46D-14 2.08D-09 XBig12= 4.73D-12 2.40D-07.
     30 vectors produced by pass  7 Test12= 2.46D-14 2.08D-09 XBig12= 7.43D-14 5.65D-08.
     17 vectors produced by pass  8 Test12= 2.46D-14 2.08D-09 XBig12= 2.47D-15 9.06D-09.
      4 vectors produced by pass  9 Test12= 2.46D-14 2.08D-09 XBig12= 4.55D-16 3.20D-09.
      4 vectors produced by pass 10 Test12= 2.46D-14 2.08D-09 XBig12= 5.12D-16 3.49D-09.
      4 vectors produced by pass 11 Test12= 2.46D-14 2.08D-09 XBig12= 7.28D-16 5.26D-09.
      4 vectors produced by pass 12 Test12= 2.46D-14 2.08D-09 XBig12= 4.43D-16 3.73D-09.
      4 vectors produced by pass 13 Test12= 2.46D-14 2.08D-09 XBig12= 4.38D-16 3.30D-09.
      3 vectors produced by pass 14 Test12= 2.46D-14 2.08D-09 XBig12= 4.61D-16 4.04D-09.
      3 vectors produced by pass 15 Test12= 2.46D-14 2.08D-09 XBig12= 7.61D-16 3.58D-09.
      3 vectors produced by pass 16 Test12= 2.46D-14 2.08D-09 XBig12= 7.06D-16 4.84D-09.
      1 vectors produced by pass 17 Test12= 2.46D-14 2.08D-09 XBig12= 3.06D-16 2.19D-09.
 InvSVY:  IOpt=1 It=  1 EMax= 3.33D-16
 Solved reduced A of dimension   372 with    48 vectors.
 End of Minotr F.D. properties file   721 does not exist.
 End of Minotr F.D. properties file   722 does not exist.
 End of Minotr F.D. properties file   788 does not exist.

 **********************************************************************

            Population analysis using the SCF density.

 **********************************************************************

 Alpha  occ. eigenvalues --  -19.69897 -19.65453 -19.64441 -10.71785 -10.62165
 Alpha  occ. eigenvalues --  -10.57990 -10.57542 -10.56803  -1.27056  -1.17752
 Alpha  occ. eigenvalues --   -1.12441  -0.91992  -0.88462  -0.78918  -0.71456
 Alpha  occ. eigenvalues --   -0.66984  -0.61827  -0.61032  -0.59207  -0.57267
 Alpha  occ. eigenvalues --   -0.53017  -0.51813  -0.50288  -0.48062  -0.45845
 Alpha  occ. eigenvalues --   -0.41237  -0.40736  -0.40513  -0.38164  -0.37279
 Alpha  occ. eigenvalues --   -0.35515
 Alpha virt. eigenvalues --   -0.02503  -0.00595   0.00262   0.01781   0.01985
 Alpha virt. eigenvalues --    0.02401   0.03281   0.04821   0.05655   0.06075
 Alpha virt. eigenvalues --    0.06387   0.07513   0.08304   0.09219   0.10508
 Alpha virt. eigenvalues --    0.11014   0.11958   0.12475   0.13026   0.13198
 Alpha virt. eigenvalues --    0.13677   0.13900   0.14327   0.15868   0.16413
 Alpha virt. eigenvalues --    0.16946   0.17633   0.18123   0.18987   0.20690
 Alpha virt. eigenvalues --    0.21551   0.22148   0.23078   0.23582   0.25011
 Alpha virt. eigenvalues --    0.26334   0.28115   0.28452   0.29458   0.30046
 Alpha virt. eigenvalues --    0.30749   0.30964   0.31567   0.32629   0.33890
 Alpha virt. eigenvalues --    0.35130   0.36650   0.37224   0.37951   0.40098
 Alpha virt. eigenvalues --    0.42169   0.43230   0.46589   0.47172   0.49332
 Alpha virt. eigenvalues --    0.53119   0.54197   0.56074   0.58159   0.59225
 Alpha virt. eigenvalues --    0.60334   0.63712   0.65262   0.66376   0.68161
 Alpha virt. eigenvalues --    0.68596   0.69707   0.69873   0.72206   0.73653
 Alpha virt. eigenvalues --    0.74306   0.75335   0.78738   0.79948   0.84710
 Alpha virt. eigenvalues --    0.89297   0.90753   0.97641   1.01319   1.06389
 Alpha virt. eigenvalues --    1.06858   1.09183   1.10237   1.12014   1.13088
 Alpha virt. eigenvalues --    1.14059   1.16771   1.17182   1.19048   1.21044
 Alpha virt. eigenvalues --    1.21832   1.22353   1.26924   1.29079   1.30737
 Alpha virt. eigenvalues --    1.32355   1.35916   1.37402   1.42816   1.44539
 Alpha virt. eigenvalues --    1.45171   1.48510   1.53713   1.55243   1.57763
 Alpha virt. eigenvalues --    1.59601   1.60650   1.61756   1.62703   1.65238
 Alpha virt. eigenvalues --    1.67258   1.68140   1.69425   1.71800   1.75967
 Alpha virt. eigenvalues --    1.76664   1.83375   1.84172   1.86604   1.89888
 Alpha virt. eigenvalues --    1.93197   1.99068   2.00669   2.05608   2.08844
 Alpha virt. eigenvalues --    2.12361   2.14481   2.19379   2.25061   2.29013
 Alpha virt. eigenvalues --    2.36863   2.41839   2.49613   2.50373   2.53341
 Alpha virt. eigenvalues --    2.54445   2.59095   2.60909   2.63353   2.64030
 Alpha virt. eigenvalues --    2.65575   2.67559   2.70866   2.73674   2.81013
 Alpha virt. eigenvalues --    2.81427   2.85173   2.89074   2.95629   2.96274
 Alpha virt. eigenvalues --    2.97463   3.02682   3.03256   3.06070   3.11325
 Alpha virt. eigenvalues --    3.12515   3.17798   3.19676   3.21609   3.26340
 Alpha virt. eigenvalues --    3.29366   3.33450   3.36058   3.42550   3.47400
 Alpha virt. eigenvalues --    3.55324   3.66738   3.73772   3.77531   3.83561
 Alpha virt. eigenvalues --    3.84559   3.97486   4.06527   4.12360   4.16002
 Alpha virt. eigenvalues --    4.29395   5.09149   5.11011   5.15347   5.31041
 Alpha virt. eigenvalues --    5.32284   5.44861   5.59752   5.71669   5.93174
 Alpha virt. eigenvalues --   23.62139  23.91571  23.93880  23.99633  25.17082
 Alpha virt. eigenvalues --   49.96594  49.98758  50.09953
  Beta  occ. eigenvalues --  -19.69892 -19.64440 -19.64168 -10.71786 -10.62185
  Beta  occ. eigenvalues --  -10.57990 -10.57542 -10.56436  -1.27039  -1.17731
  Beta  occ. eigenvalues --   -1.07402  -0.91636  -0.88062  -0.78215  -0.70810
  Beta  occ. eigenvalues --   -0.66885  -0.61808  -0.60515  -0.58816  -0.54130
  Beta  occ. eigenvalues --   -0.52343  -0.49789  -0.48813  -0.45500  -0.43994
  Beta  occ. eigenvalues --   -0.40518  -0.40269  -0.38185  -0.38116  -0.37256
  Beta virt. eigenvalues --   -0.10604  -0.02494  -0.00513   0.00325   0.01884
  Beta virt. eigenvalues --    0.02220   0.02520   0.03312   0.04979   0.05686
  Beta virt. eigenvalues --    0.06117   0.06607   0.07640   0.08339   0.09222
  Beta virt. eigenvalues --    0.10585   0.11243   0.11999   0.12517   0.13070
  Beta virt. eigenvalues --    0.13246   0.13642   0.14178   0.14548   0.16014
  Beta virt. eigenvalues --    0.16578   0.17002   0.17705   0.18183   0.19207
  Beta virt. eigenvalues --    0.20805   0.21754   0.22184   0.23163   0.23790
  Beta virt. eigenvalues --    0.25295   0.26388   0.27739   0.28926   0.29350
  Beta virt. eigenvalues --    0.30184   0.30823   0.30927   0.31822   0.32659
  Beta virt. eigenvalues --    0.33910   0.35479   0.36820   0.37368   0.39517
  Beta virt. eigenvalues --    0.40349   0.42197   0.43358   0.46709   0.47377
  Beta virt. eigenvalues --    0.49513   0.53239   0.54283   0.56178   0.58298
  Beta virt. eigenvalues --    0.59375   0.60675   0.63847   0.65320   0.67610
  Beta virt. eigenvalues --    0.68314   0.68849   0.69967   0.70326   0.72426
  Beta virt. eigenvalues --    0.73770   0.74393   0.75408   0.79025   0.79979
  Beta virt. eigenvalues --    0.84728   0.89500   0.90811   0.98346   1.01471
  Beta virt. eigenvalues --    1.06789   1.07185   1.09976   1.10458   1.12696
  Beta virt. eigenvalues --    1.13915   1.14952   1.17026   1.17440   1.19802
  Beta virt. eigenvalues --    1.21270   1.22283   1.22536   1.27190   1.29111
  Beta virt. eigenvalues --    1.30760   1.32433   1.36018   1.37505   1.43262
  Beta virt. eigenvalues --    1.44937   1.45379   1.49118   1.54126   1.56443
  Beta virt. eigenvalues --    1.57847   1.59890   1.60899   1.61918   1.62794
  Beta virt. eigenvalues --    1.65399   1.67487   1.68406   1.69392   1.72926
  Beta virt. eigenvalues --    1.76258   1.76935   1.83373   1.84196   1.86488
  Beta virt. eigenvalues --    1.89972   1.93205   1.99078   2.01104   2.05848
  Beta virt. eigenvalues --    2.09270   2.12631   2.15129   2.19836   2.25416
  Beta virt. eigenvalues --    2.29675   2.38171   2.41834   2.49190   2.50149
  Beta virt. eigenvalues --    2.53509   2.54694   2.58667   2.61021   2.63836
  Beta virt. eigenvalues --    2.64037   2.65593   2.67413   2.69511   2.73476
  Beta virt. eigenvalues --    2.81053   2.81459   2.85144   2.88026   2.96132
  Beta virt. eigenvalues --    2.96647   3.00937   3.02969   3.03280   3.06113
  Beta virt. eigenvalues --    3.11457   3.12541   3.19284   3.22009   3.23305
  Beta virt. eigenvalues --    3.26398   3.29405   3.33505   3.36119   3.42570
  Beta virt. eigenvalues --    3.49724   3.55348   3.66756   3.73866   3.79008
  Beta virt. eigenvalues --    3.83870   3.85367   4.00018   4.06601   4.12442
  Beta virt. eigenvalues --    4.16198   4.30116   5.10964   5.11414   5.15359
  Beta virt. eigenvalues --    5.31211   5.37995   5.44901   5.62405   5.71681
  Beta virt. eigenvalues --    5.93176  23.62139  23.91612  23.93892  24.00003
  Beta virt. eigenvalues --   25.17083  49.95982  49.98711  50.09952
          Condensed to atoms (all electrons):
               1          2          3          4          5          6
     1  C    6.059350   0.446545  -1.017066   1.235470  -0.105703  -0.112281
     2  H    0.446545   0.422387  -0.085502   0.030440  -0.003426  -0.005934
     3  C   -1.017066  -0.085502   9.292253  -2.749039   0.163160  -0.196427
     4  C    1.235470   0.030440  -2.749039   7.667888   0.350841  -0.030947
     5  O   -0.105703  -0.003426   0.163160   0.350841   7.991530  -0.123505
     6  O   -0.112281  -0.005934  -0.196427  -0.030947  -0.123505   8.504098
     7  C    0.048347  -0.001178  -0.412750  -0.060059  -0.066211   0.278327
     8  C    0.033358   0.001775  -0.077717   0.145028   0.024596  -0.192008
     9  H   -0.003930  -0.000139   0.011221  -0.011826  -0.012576  -0.041450
    10  H    0.000616  -0.000117  -0.012250   0.003273  -0.006820  -0.033320
    11  H   -0.001602  -0.000136   0.001864  -0.010446  -0.002318  -0.005593
    12  H    0.000901   0.000119  -0.001518   0.008298  -0.000378  -0.002321
    13  H   -0.000750   0.000004   0.005267   0.002292   0.001985   0.018344
    14  O    0.000828  -0.000014  -0.008058  -0.003454  -0.000614   0.002404
    15  H   -0.004274  -0.000426   0.025265  -0.009889   0.000529   0.008288
               7          8          9         10         11         12
     1  C    0.048347   0.033358  -0.003930   0.000616  -0.001602   0.000901
     2  H   -0.001178   0.001775  -0.000139  -0.000117  -0.000136   0.000119
     3  C   -0.412750  -0.077717   0.011221  -0.012250   0.001864  -0.001518
     4  C   -0.060059   0.145028  -0.011826   0.003273  -0.010446   0.008298
     5  O   -0.066211   0.024596  -0.012576  -0.006820  -0.002318  -0.000378
     6  O    0.278327  -0.192008  -0.041450  -0.033320  -0.005593  -0.002321
     7  C    5.763376  -0.134190   0.449544   0.398674   0.033083  -0.081822
     8  C   -0.134190   5.952398  -0.068829  -0.024938   0.315868   0.334370
     9  H    0.449544  -0.068829   0.493659  -0.042496   0.005490  -0.012066
    10  H    0.398674  -0.024938  -0.042496   0.521255  -0.008512   0.009332
    11  H    0.033083   0.315868   0.005490  -0.008512   0.548556  -0.034250
    12  H   -0.081822   0.334370  -0.012066   0.009332  -0.034250   0.493048
    13  H   -0.036538   0.387420  -0.002362  -0.007789  -0.034816  -0.037246
    14  O   -0.004581  -0.027435  -0.009031   0.001343  -0.012015   0.084780
    15  H    0.009061   0.014657   0.004365  -0.000767  -0.001799  -0.048397
              13         14         15
     1  C   -0.000750   0.000828  -0.004274
     2  H    0.000004  -0.000014  -0.000426
     3  C    0.005267  -0.008058   0.025265
     4  C    0.002292  -0.003454  -0.009889
     5  O    0.001985  -0.000614   0.000529
     6  O    0.018344   0.002404   0.008288
     7  C   -0.036538  -0.004581   0.009061
     8  C    0.387420  -0.027435   0.014657
     9  H   -0.002362  -0.009031   0.004365
    10  H   -0.007789   0.001343  -0.000767
    11  H   -0.034816  -0.012015  -0.001799
    12  H   -0.037246   0.084780  -0.048397
    13  H    0.504941   0.002976   0.002611
    14  O    0.002976   8.015037   0.283501
    15  H    0.002611   0.283501   0.485010
          Atomic-Atomic Spin Densities.
               1          2          3          4          5          6
     1  C   -0.000912   0.000196   0.002345   0.000214   0.000411   0.000043
     2  H    0.000196   0.000184  -0.000835   0.000614   0.000014  -0.000068
     3  C    0.002345  -0.000835  -0.015391   0.008791  -0.001440  -0.001139
     4  C    0.000214   0.000614   0.008791  -0.008493   0.001950   0.001937
     5  O    0.000411   0.000014  -0.001440   0.001950  -0.000170   0.000466
     6  O    0.000043  -0.000068  -0.001139   0.001937   0.000466   0.004903
     7  C   -0.002159  -0.000056   0.009363  -0.006413  -0.001071   0.001180
     8  C    0.000487   0.000015  -0.002158   0.002956   0.000128  -0.005989
     9  H    0.000244   0.000033   0.000559   0.001127   0.000561   0.001723
    10  H    0.000025  -0.000022  -0.002293  -0.003096  -0.000611  -0.004726
    11  H    0.000041   0.000020   0.000611   0.001059   0.000025   0.001814
    12  H   -0.000009  -0.000072  -0.003019  -0.001517  -0.000247  -0.011534
    13  H   -0.000024   0.000002   0.000236   0.000184   0.000076   0.002138
    14  O    0.000227   0.000043   0.001267   0.001123   0.000267   0.008092
    15  H   -0.000606  -0.000132  -0.000196  -0.000745  -0.000203  -0.000769
               7          8          9         10         11         12
     1  C   -0.002159   0.000487   0.000244   0.000025   0.000041  -0.000009
     2  H   -0.000056   0.000015   0.000033  -0.000022   0.000020  -0.000072
     3  C    0.009363  -0.002158   0.000559  -0.002293   0.000611  -0.003019
     4  C   -0.006413   0.002956   0.001127  -0.003096   0.001059  -0.001517
     5  O   -0.001071   0.000128   0.000561  -0.000611   0.000025  -0.000247
     6  O    0.001180  -0.005989   0.001723  -0.004726   0.001814  -0.011534
     7  C   -0.006779  -0.037351  -0.002479   0.014967   0.000569   0.009953
     8  C   -0.037351   0.477813  -0.002259  -0.004073  -0.014581   0.080919
     9  H   -0.002479  -0.002259   0.004306  -0.003073  -0.000481  -0.002977
    10  H    0.014967  -0.004073  -0.003073   0.023433  -0.000200  -0.000028
    11  H    0.000569  -0.014581  -0.000481  -0.000200  -0.015180   0.006557
    12  H    0.009953   0.080919  -0.002977  -0.000028   0.006557  -0.078782
    13  H    0.003890  -0.019196   0.001554  -0.002159   0.006492  -0.000704
    14  O    0.000404  -0.097519   0.003431  -0.001519   0.004201  -0.050007
    15  H    0.002451   0.006048  -0.001325   0.000845  -0.001222   0.012341
              13         14         15
     1  C   -0.000024   0.000227  -0.000606
     2  H    0.000002   0.000043  -0.000132
     3  C    0.000236   0.001267  -0.000196
     4  C    0.000184   0.001123  -0.000745
     5  O    0.000076   0.000267  -0.000203
     6  O    0.002138   0.008092  -0.000769
     7  C    0.003890   0.000404   0.002451
     8  C   -0.019196  -0.097519   0.006048
     9  H    0.001554   0.003431  -0.001325
    10  H   -0.002159  -0.001519   0.000845
    11  H    0.006492   0.004201  -0.001222
    12  H   -0.000704  -0.050007   0.012341
    13  H   -0.002698   0.006124  -0.001148
    14  O    0.006124   0.800636   0.001085
    15  H   -0.001148   0.001085  -0.024843
 Mulliken charges and spin densities:
               1          2
     1  C   -0.579808   0.000523
     2  H    0.195602  -0.000063
     3  C    1.061298  -0.003298
     4  C   -0.567871  -0.000308
     5  O   -0.211089   0.000156
     6  O   -0.067677  -0.001928
     7  C   -0.183084  -0.013532
     8  C   -0.684353   0.385239
     9  H    0.240426   0.000941
    10  H    0.202517   0.017470
    11  H    0.206628  -0.010276
    12  H    0.287150  -0.039127
    13  H    0.193661  -0.005233
    14  O   -0.325668   0.677854
    15  H    0.232266  -0.008418
 Sum of Mulliken charges =   0.00000   1.00000
 Mulliken charges and spin densities with hydrogens summed into heavy atoms:
               1          2
     1  C   -0.384206   0.000459
     3  C    1.061298  -0.003298
     4  C   -0.567871  -0.000308
     5  O   -0.211089   0.000156
     6  O   -0.067677  -0.001928
     7  C    0.259859   0.004879
     8  C    0.003087   0.330603
    14  O   -0.093401   0.669436
 APT charges:
               1
     1  C    0.430071
     2  H    0.983057
     3  C   -0.842535
     4  C   -0.581078
     5  O   -0.069181
     6  O   -0.008875
     7  C   -0.720815
     8  C   -1.276505
     9  H    0.420292
    10  H    0.453054
    11  H    0.388516
    12  H    0.249312
    13  H    0.659501
    14  O   -0.111538
    15  H    0.026723
 Sum of APT charges =   0.00000
 APT charges with hydrogens summed into heavy atoms:
               1
     1  C    1.413128
     3  C   -0.842535
     4  C   -0.581078
     5  O   -0.069181
     6  O   -0.008875
     7  C    0.152531
     8  C    0.020824
    14  O   -0.084815
 Electronic spatial extent (au):  <R**2>=           1257.7585
 Charge=              0.0000 electrons
 Dipole moment (field-independent basis, Debye):
    X=              0.5046    Y=              0.0962    Z=              1.7228  Tot=              1.7977
 Quadrupole moment (field-independent basis, Debye-Ang):
   XX=            -44.5435   YY=            -49.9087   ZZ=            -48.8193
   XY=             15.7509   XZ=             -0.4979   YZ=             -0.1116
 Traceless Quadrupole moment (field-independent basis, Debye-Ang):
   XX=              3.2137   YY=             -2.1516   ZZ=             -1.0621
   XY=             15.7509   XZ=             -0.4979   YZ=             -0.1116
 Octapole moment (field-independent basis, Debye-Ang**2):
  XXX=             22.1899  YYY=              6.1148  ZZZ=             -1.3230  XYY=             12.0084
  XXY=              7.5322  XXZ=             13.8088  XZZ=             -4.0254  YZZ=             -2.5432
  YYZ=              6.0615  XYZ=             -3.5892
 Hexadecapole moment (field-independent basis, Debye-Ang**3):
 XXXX=          -1024.6856 YYYY=           -415.4608 ZZZZ=           -105.9566 XXXY=            141.2240
 XXXZ=              9.5252 YYYX=             46.8954 YYYZ=             -3.1011 ZZZX=             -5.7334
 ZZZY=              1.1390 XXYY=           -242.8664 XXZZ=           -217.7822 YYZZ=            -90.3952
 XXYZ=             20.2958 YYXZ=              7.3760 ZZXY=             -1.3454
 N-N= 3.481289402144D+02 E-N=-1.680453995520D+03  KE= 4.188234211241D+02
  Exact polarizability:   0.000   0.000   0.000   0.000   0.000   0.000
 Approx polarizability:  86.104  15.901 101.695   1.451   2.232  63.072
                          Isotropic Fermi Contact Couplings
        Atom                 a.u.       MegaHertz       Gauss      10(-4) cm-1
     1  C(13)              0.00005       0.05548       0.01980       0.01851
     2  H(1)               0.00000      -0.00946      -0.00338      -0.00316
     3  C(13)              0.00041       0.45533       0.16247       0.15188
     4  C(13)             -0.00065      -0.72756      -0.25961      -0.24269
     5  O(17)              0.00025      -0.15091      -0.05385      -0.05034
     6  O(17)             -0.00195       1.18073       0.42131       0.39385
     7  C(13)             -0.01361     -15.30509      -5.46124      -5.10523
     8  C(13)              0.14198     159.61690      56.95528      53.24247
     9  H(1)               0.00166       7.41029       2.64418       2.47181
    10  H(1)               0.00909      40.61760      14.49337      13.54857
    11  H(1)              -0.00252     -11.27875      -4.02454      -3.76219
    12  H(1)              -0.01861     -83.19615     -29.68645     -27.75125
    13  H(1)              -0.00190      -8.49360      -3.03073      -2.83316
    14  O(17)              0.12105     -73.37916     -26.18351     -24.47665
    15  H(1)              -0.01172     -52.40846     -18.70064     -17.48158
 --------------------------------------------------------
       Center         ----  Spin Dipole Couplings  ----
                      3XX-RR        3YY-RR        3ZZ-RR
 --------------------------------------------------------
     1   Atom        0.001526     -0.000651     -0.000875
     2   Atom        0.001089     -0.000516     -0.000572
     3   Atom        0.002655     -0.001144     -0.001511
     4   Atom        0.002832     -0.000847     -0.001985
     5   Atom        0.004122     -0.000441     -0.003680
     6   Atom        0.007050      0.006115     -0.013166
     7   Atom        0.006868      0.002735     -0.009603
     8   Atom       -0.232360      0.308945     -0.076585
     9   Atom       -0.002361      0.003013     -0.000651
    10   Atom       -0.000128      0.004442     -0.004314
    11   Atom       -0.029707     -0.004959      0.034666
    12   Atom       -0.102192      0.144545     -0.042352
    13   Atom        0.013972      0.005963     -0.019935
    14   Atom       -1.362607      1.733331     -0.370725
    15   Atom        0.119880     -0.049777     -0.070103
 --------------------------------------------------------
                        XY            XZ            YZ
 --------------------------------------------------------
     1   Atom       -0.000025      0.000373     -0.000273
     2   Atom        0.000225      0.000236     -0.000002
     3   Atom       -0.000289      0.000338     -0.000121
     4   Atom       -0.001802      0.000209     -0.000499
     5   Atom       -0.000051      0.001048      0.000961
     6   Atom        0.008402     -0.001965     -0.004916
     7   Atom       -0.014149      0.003138     -0.003912
     8   Atom       -0.041467      0.023677     -0.294504
     9   Atom       -0.005208     -0.005363      0.004186
    10   Atom       -0.005151     -0.000826     -0.002211
    11   Atom        0.000402      0.004213      0.002636
    12   Atom        0.029254     -0.015717     -0.138219
    13   Atom        0.024267      0.013936     -0.004060
    14   Atom        0.408044     -0.238814     -1.792913
    15   Atom        0.018451      0.050993     -0.024703
 --------------------------------------------------------


 ---------------------------------------------------------------------------------
              Anisotropic Spin Dipole Couplings in Principal Axis System
 ---------------------------------------------------------------------------------

       Atom             a.u.   MegaHertz   Gauss  10(-4) cm-1        Axes

              Baa    -0.0011    -0.147    -0.052    -0.049 -0.1157  0.5180  0.8475
     1 C(13)  Bbb    -0.0005    -0.066    -0.024    -0.022  0.1044  0.8549 -0.5082
              Bcc     0.0016     0.213     0.076     0.071  0.9878 -0.0297  0.1530
 
              Baa    -0.0006    -0.331    -0.118    -0.110 -0.1773  0.4039  0.8975
     2 H(1)   Bbb    -0.0005    -0.283    -0.101    -0.095 -0.0647  0.9052 -0.4201
              Bcc     0.0012     0.614     0.219     0.205  0.9820  0.1325  0.1344
 
              Baa    -0.0016    -0.210    -0.075    -0.070 -0.0615  0.2377  0.9694
     3 C(13)  Bbb    -0.0011    -0.153    -0.055    -0.051  0.0942  0.9683 -0.2314
              Bcc     0.0027     0.363     0.130     0.121  0.9937 -0.0771  0.0819
 
              Baa    -0.0022    -0.300    -0.107    -0.100  0.1385  0.4895  0.8609
     4 C(13)  Bbb    -0.0014    -0.182    -0.065    -0.061  0.3623  0.7840 -0.5041
              Bcc     0.0036     0.482     0.172     0.161  0.9217 -0.3817  0.0687
 
              Baa    -0.0041     0.295     0.105     0.098 -0.1242 -0.2556  0.9588
     5 O(17)  Bbb    -0.0002     0.014     0.005     0.005 -0.0496  0.9666  0.2513
              Bcc     0.0043    -0.308    -0.110    -0.103  0.9910  0.0163  0.1327
 
              Baa    -0.0143     1.038     0.370     0.346 -0.0029  0.2347  0.9721
     6 O(17)  Bbb    -0.0015     0.105     0.038     0.035  0.7121 -0.6819  0.1668
              Bcc     0.0158    -1.144    -0.408    -0.381  0.7020  0.6927 -0.1652
 
              Baa    -0.0110    -1.472    -0.525    -0.491  0.2350  0.4833  0.8433
     7 C(13)  Bbb    -0.0090    -1.202    -0.429    -0.401  0.6269  0.5877 -0.5115
              Bcc     0.0199     2.674     0.954     0.892  0.7428 -0.6489  0.1649
 
              Baa    -0.2368   -31.778   -11.339   -10.600  0.6723 -0.3113 -0.6716
     8 C(13)  Bbb    -0.2346   -31.480   -11.233   -10.501  0.7371  0.3645  0.5690
              Bcc     0.4714    63.257    22.572    21.100 -0.0677  0.8776 -0.4746
 
              Baa    -0.0072    -3.832    -1.368    -1.278  0.8152  0.1921  0.5463
     9 H(1)   Bbb    -0.0029    -1.552    -0.554    -0.518  0.2734  0.7039 -0.6556
              Bcc     0.0101     5.385     1.921     1.796 -0.5105  0.6838  0.5213
 
              Baa    -0.0059    -3.162    -1.128    -1.055  0.4677  0.4003  0.7880
    10 H(1)   Bbb    -0.0020    -1.083    -0.386    -0.361  0.7109  0.3593 -0.6045
              Bcc     0.0080     4.245     1.515     1.416 -0.5252  0.8430 -0.1165
 
              Baa    -0.0300   -15.998    -5.709    -5.336  0.9979 -0.0092 -0.0647
    11 H(1)   Bbb    -0.0051    -2.739    -0.977    -0.913  0.0049  0.9978 -0.0666
              Bcc     0.0351    18.737     6.686     6.250  0.0651  0.0662  0.9957
 
              Baa    -0.1158   -61.759   -22.037   -20.601  0.0157  0.4676  0.8838
    12 H(1)   Bbb    -0.1056   -56.342   -20.104   -18.794  0.9946 -0.0976  0.0339
              Bcc     0.2213   118.101    42.141    39.394  0.1021  0.8786 -0.4666
 
              Baa    -0.0303   -16.161    -5.767    -5.391 -0.4680  0.4014  0.7873
    13 H(1)   Bbb    -0.0055    -2.927    -1.044    -0.976 -0.4216  0.6815 -0.5981
              Bcc     0.0358    19.087     6.811     6.367  0.7767  0.6118  0.1497
 
              Baa    -1.4171   102.542    36.590    34.204  0.9693  0.0141  0.2454
    14 O(17)  Bbb    -1.3965   101.048    36.056    33.706 -0.2186  0.5064  0.8342
              Bcc     2.8136  -203.590   -72.646   -67.910  0.1125  0.8622 -0.4939
 
              Baa    -0.0994   -53.053   -18.931   -17.697 -0.2357  0.5017  0.8323
    15 H(1)   Bbb    -0.0341   -18.169    -6.483    -6.060  0.0629  0.8625 -0.5020
              Bcc     0.1335    71.222    25.414    23.757  0.9698  0.0660  0.2349
 

 ---------------------------------------------------------------------------------

 Calling FoFJK, ICntrl=    100147 FMM=F ISym2X=0 I1Cent= 0 IOpClX= 1 NMat=1 NMatS=1 NMatT=0.
 -------------------------------------------------------------------
 Center     Atomic                   Forces (Hartrees/Bohr)
 Number     Number              X              Y              Z
 -------------------------------------------------------------------
      1        6           0.000002726   -0.000009715   -0.000001059
      2        1           0.000005954   -0.000011373    0.000000846
      3        6           0.000001783   -0.000005889   -0.000002640
      4        6          -0.000001951   -0.000002841   -0.000004682
      5        8          -0.000004836   -0.000001946   -0.000009805
      6        8          -0.000000182   -0.000001224   -0.000001115
      7        6          -0.000002946    0.000002141   -0.000002743
      8        6           0.000000023    0.000002875    0.000001898
      9        1          -0.000005087    0.000006675   -0.000003440
     10        1          -0.000004155   -0.000000443   -0.000007060
     11        1           0.000002185   -0.000001363    0.000002772
     12        1           0.000001485    0.000005364    0.000006613
     13        1          -0.000001892    0.000006212    0.000001385
     14        8           0.000003964    0.000007611    0.000010483
     15        1           0.000002931    0.000003916    0.000008546
 -------------------------------------------------------------------
 Cartesian Forces:  Max     0.000011373 RMS     0.000004874
 IRC-IRC-IRC-IRC-IRC-IRC-IRC-IRC-IRC-IRC-IRC-IRC-IRC-IRC-IRC-IRC-IRC-IRC
          ******** Start new reaction path calculation ********
 Supplied step size of   0.0500 bohr.
    Integration on MW PES will use step size of   0.0537 sqrt(amu)*bohr.
 Point Number:   0          Path Number:   1
 Calculating another point on the path.
 IRC-IRC-IRC-IRC-IRC-IRC-IRC-IRC-IRC-IRC-IRC-IRC-IRC-IRC-IRC-IRC-IRC-IRC
                          Input orientation:                          
 ---------------------------------------------------------------------
 Center     Atomic      Atomic             Coordinates (Angstroms)
 Number     Number       Type             X           Y           Z
 ---------------------------------------------------------------------
      1          6           0        2.914376    1.311538    0.319146
      2          1           0        3.677280    2.038621    0.473634
      3          6           0        2.058049    0.492119    0.144574
      4          6           0        1.050730   -0.530536   -0.093337
      5          8           0        1.279577   -1.610816   -0.555498
      6          8           0       -0.163931   -0.100476    0.271026
      7          6           0       -1.243982   -1.030029    0.048985
      8          6           0       -2.488112   -0.388479    0.593810
      9          1           0       -1.318376   -1.224154   -1.022883
     10          1           0       -1.005648   -1.969731    0.553699
     11          1           0       -2.426569   -0.166410    1.658446
     12          1           0       -2.627203    0.644668    0.050995
     13          1           0       -3.386452   -0.955845    0.352453
     14          8           0       -2.302056    1.807916   -0.584876
     15          1           0       -1.363102    1.830453   -0.332905
 ---------------------------------------------------------------------
                    Distance matrix (angstroms):
                    1          2          3          4          5
     1  C    0.000000
     2  H    1.065147   0.000000
     3  C    1.198007   2.263152   0.000000
     4  C    2.652651   3.717632   1.455031   0.000000
     5  O    3.460886   4.486255   2.349140   1.197067   0.000000
     6  O    3.387045   4.401328   2.303118   1.339072   2.246773
     7  C    4.779945   5.815132   3.637235   2.352754   2.659147
     8  C    5.670307   6.627014   4.652402   3.607736   4.124378
     9  H    5.113411   6.151573   3.963432   2.637769   2.667830
    10  H    5.117454   6.164666   3.951497   2.592032   2.565422
    11  H    5.701207   6.597190   4.778835   3.910619   4.552294
    12  H    5.587998   6.470567   4.688668   3.863823   4.551700
    13  H    6.696460   7.673189   5.637588   4.479755   4.798457
    14  O    5.317406   6.076687   4.612367   4.117176   4.951433
    15  H    4.357897   5.108747   3.704511   3.385004   4.344610
                    6          7          8          9         10
     6  O    0.000000
     7  C    1.442179   0.000000
     8  C    2.364097   1.502091   0.000000
     9  H    2.066300   1.091842   2.163407   0.000000
    10  H    2.069422   1.092968   2.167872   1.771805   0.000000
    11  H    2.654960   2.175940   1.089290   3.088113   2.547833
    12  H    2.582898   2.172076   1.175325   2.521654   3.117248
    13  H    3.335105   2.165126   1.089574   2.498094   2.595514
    14  O    2.991004   3.094387   2.499614   3.217596   4.153029
    15  H    2.351857   2.888319   2.654828   3.131884   3.918577
                   11         12         13         14         15
    11  H    0.000000
    12  H    1.811629   0.000000
    13  H    1.802832   1.796936   0.000000
    14  O    2.990980   1.364990   3.113339   0.000000
    15  H    3.013952   1.775223   3.511000   0.972435   0.000000
 Symmetry turned off by external request.
 Stoichiometry    C5H7O3(2)
 Framework group  C1[X(C5H7O3)]
 Deg. of freedom    39
 Full point group                 C1      NOp   1
 Rotational constants (GHZ):      2.9490744      1.1607603      0.8980729
 Standard basis: 6-311++G(d,p) (5D, 7F)
   225 basis functions,   351 primitive gaussians,   233 cartesian basis functions
    31 alpha electrons       30 beta electrons
       nuclear repulsion energy       348.0814553727 Hartrees.
 NAtoms=   15 NActive=   15 NUniq=   15 SFac= 1.00D+00 NAtFMM=   60 NAOKFM=F Big=F
 Integral buffers will be    262144 words long.
 Raffenetti 2 integral format.
 Two-electron integral symmetry is turned off.
 One-electron integrals computed using PRISM.
 NBasis=   225 RedAO= T EigKep=  6.75D-06  NBF=   225
 NBsUse=   224 1.00D-06 EigRej=  7.97D-07 NBFU=   224
 Initial guess from the checkpoint file:  "ethyl_propiolate.chk"
 B after Tr=    -0.129957    0.003045    0.026572
         Rot=    1.000000   -0.000041   -0.000046   -0.000073 Ang=  -0.01 deg.
 Initial guess <Sx>= 0.0000 <Sy>= 0.0000 <Sz>= 0.5000 <S**2>= 0.7587 S= 0.5043
 ExpMin= 3.60D-02 ExpMax= 8.59D+03 ExpMxC= 1.30D+03 IAcc=3 IRadAn=         5 AccDes= 0.00D+00
 Harris functional with IExCor= 1009 and IRadAn=       5 diagonalized for initial guess.
 HarFok:  IExCor= 1009 AccDes= 0.00D+00 IRadAn=         5 IDoV= 1 UseB2=F ITyADJ=14
 ICtDFT=  3500011 ScaDFX=  1.000000  1.000000  1.000000  1.000000
 FoFCou: FMM=F IPFlag=           0 FMFlag=      100000 FMFlg1=           0
         NFxFlg=           0 DoJE=T BraDBF=F KetDBF=T FulRan=T
         wScrn=  0.000000 ICntrl=     500 IOpCl=  0 I1Cent=   200000004 NGrid=           0
         NMat0=    1 NMatS0=      1 NMatT0=    0 NMatD0=    1 NMtDS0=    0 NMtDT0=    0
 Symmetry not used in FoFCou.
 Requested convergence on RMS density matrix=1.00D-08 within 128 cycles.
 Requested convergence on MAX density matrix=1.00D-06.
 Requested convergence on             energy=1.00D-06.
 No special actions if energy rises.
 SCF Done:  E(UM062X) =  -420.199733031     A.U. after   13 cycles
            NFock= 13  Conv=0.91D-08     -V/T= 2.0032
 <Sx>= 0.0000 <Sy>= 0.0000 <Sz>= 0.5000 <S**2>= 0.7581 S= 0.5041
 <L.S>= 0.000000000000E+00
 Annihilation of the first spin contaminant:
 S**2 before annihilation     0.7581,   after     0.7500
 DoSCS=F DFT=T ScalE2(SS,OS)=  1.000000  1.000000
 Range of M.O.s used for correlation:     1   224
 NBasis=   225 NAE=    31 NBE=    30 NFC=     0 NFV=     0
 NROrb=    224 NOA=    31 NOB=    30 NVA=   193 NVB=   194

 **** Warning!!: The largest alpha MO coefficient is  0.16968138D+03


 **** Warning!!: The largest beta MO coefficient is  0.17790858D+03

 Symmetrizing basis deriv contribution to polar:
 IMax=3 JMax=2 DiffMx= 0.00D+00
 Calling FoFJK, ICntrl=      2147 FMM=F ISym2X=0 I1Cent= 0 IOpClX= 1 NMat=1 NMatS=1 NMatT=0.
 -------------------------------------------------------------------
 Center     Atomic                   Forces (Hartrees/Bohr)
 Number     Number              X              Y              Z
 -------------------------------------------------------------------
      1        6           0.000018681    0.000011926    0.000000296
      2        1           0.000009857   -0.000013322    0.000002820
      3        6           0.000027644    0.000001913   -0.000004784
      4        6          -0.000083948    0.000002461    0.000008461
      5        8           0.000050049    0.000025849   -0.000011135
      6        8           0.000043876    0.000129832   -0.000115616
      7        6          -0.000064582   -0.000445254    0.000166180
      8        6          -0.000536188   -0.000755359    0.000540047
      9        1           0.000012388    0.000017993   -0.000004155
     10        1           0.000070854   -0.000007186   -0.000035562
     11        1           0.000052232   -0.000490463    0.000122423
     12        1          -0.000920511   -0.001346765    0.000777780
     13        1           0.000210749   -0.000577399    0.000380688
     14        8           0.001058840    0.003522153   -0.001865079
     15        1           0.000050057   -0.000076379    0.000037636
 -------------------------------------------------------------------
 Cartesian Forces:  Max     0.003522153 RMS     0.000706993
 IRC-IRC-IRC-IRC-IRC-IRC-IRC-IRC-IRC-IRC-IRC-IRC-IRC-IRC-IRC-IRC-IRC-IRC
 Pt  1 Step number   1 out of a maximum of 900
 Modified Bulirsch-Stoer Extrapolation Cycles:
    EPS =    0.000010000000000
 Maximum DWI energy   std dev =  0.000001334 at pt    29
 Maximum DWI gradient std dev =  0.127111124 at pt     1
 CORRECTOR INTEGRATION CONVERGENCE:
   Recorrection delta-x convergence threshold:    0.010000
   Delta-x Convergence Met
 Point Number:   1          Path Number:   1
   CHANGE IN THE REACTION COORDINATE =    0.05350
   NET REACTION COORDINATE UP TO THIS POINT =    0.05350
  # OF POINTS ALONG THE PATH =   1
  # OF STEPS =   1

 Calculating another point on the path.
 IRC-IRC-IRC-IRC-IRC-IRC-IRC-IRC-IRC-IRC-IRC-IRC-IRC-IRC-IRC-IRC-IRC-IRC
                          Input orientation:                          
 ---------------------------------------------------------------------
 Center     Atomic      Atomic             Coordinates (Angstroms)
 Number     Number       Type             X           Y           Z
 ---------------------------------------------------------------------
      1          6           0        2.914399    1.311544    0.319148
      2          1           0        3.677438    2.038455    0.473674
      3          6           0        2.058075    0.492120    0.144569
      4          6           0        1.050651   -0.530527   -0.093332
      5          8           0        1.279614   -1.610795   -0.555503
      6          8           0       -0.163919   -0.100374    0.270934
      7          6           0       -1.244035   -1.030433    0.049115
      8          6           0       -2.488726   -0.389281    0.594388
      9          1           0       -1.318286   -1.223925   -1.022892
     10          1           0       -1.004783   -1.969870    0.553246
     11          1           0       -2.425842   -0.172138    1.660093
     12          1           0       -2.637442    0.627246    0.060951
     13          1           0       -3.384204   -0.963307    0.357109
     14          8           0       -2.301248    1.810671   -0.586336
     15          1           0       -1.362309    1.829333   -0.332311
 ---------------------------------------------------------------------
                    Distance matrix (angstroms):
                    1          2          3          4          5
     1  C    0.000000
     2  H    1.065133   0.000000
     3  C    1.198009   2.263140   0.000000
     4  C    2.652720   3.717684   1.455097   0.000000
     5  O    3.460868   4.486178   2.349118   1.197083   0.000000
     6  O    3.387016   4.401331   2.303100   1.338992   2.246811
     7  C    4.780204   5.815430   3.637473   2.352824   2.659171
     8  C    5.671183   6.627975   4.653235   3.608337   4.124892
     9  H    5.113247   6.151430   3.963280   2.637564   2.667809
    10  H    5.116881   6.164106   3.950887   2.591251   2.564513
    11  H    5.702422   6.598813   4.779493   3.910107   4.550715
    12  H    5.599809   6.483793   4.698205   3.868627   4.553260
    13  H    6.696924   7.674045   5.637539   4.478631   4.796176
    14  O    5.317142   6.076199   4.612645   4.118189   4.952772
    15  H    4.356917   5.108071   3.703319   3.383552   4.343277
                    6          7          8          9         10
     6  O    0.000000
     7  C    1.442520   0.000000
     8  C    2.364914   1.502549   0.000000
     9  H    2.066135   1.091857   2.163829   0.000000
    10  H    2.069244   1.092672   2.168419   1.771703   0.000000
    11  H    2.655411   2.174532   1.089419   3.087288   2.544870
    12  H    2.586860   2.165554   1.157583   2.518278   3.106919
    13  H    3.335014   2.163259   1.089811   2.498068   2.591001
    14  O    2.992521   3.097316   2.503806   3.219560   4.155955
    15  H    2.350279   2.887514   2.655152   3.130690   3.917394
                   11         12         13         14         15
    11  H    0.000000
    12  H    1.800290   0.000000
    13  H    1.800604   1.781916   0.000000
    14  O    2.998916   1.390144   3.123754   0.000000
    15  H    3.017724   1.796005   3.515992   0.972874   0.000000
 Symmetry turned off by external request.
 Stoichiometry    C5H7O3(2)
 Framework group  C1[X(C5H7O3)]
 Deg. of freedom    39
 Full point group                 C1      NOp   1
 Rotational constants (GHZ):      2.9454384      1.1606130      0.8977889
 Standard basis: 6-311++G(d,p) (5D, 7F)
   225 basis functions,   351 primitive gaussians,   233 cartesian basis functions
    31 alpha electrons       30 beta electrons
       nuclear repulsion energy       348.0118478261 Hartrees.
 NAtoms=   15 NActive=   15 NUniq=   15 SFac= 1.00D+00 NAtFMM=   60 NAOKFM=F Big=F
 Integral buffers will be    262144 words long.
 Raffenetti 2 integral format.
 Two-electron integral symmetry is turned off.
 One-electron integrals computed using PRISM.
 NBasis=   225 RedAO= T EigKep=  6.75D-06  NBF=   225
 NBsUse=   224 1.00D-06 EigRej=  7.97D-07 NBFU=   224
 Initial guess from the checkpoint file:  "ethyl_propiolate.chk"
 B after Tr=    -0.000085   -0.000472    0.000242
         Rot=    1.000000   -0.000048   -0.000050   -0.000072 Ang=  -0.01 deg.
 Initial guess <Sx>= 0.0000 <Sy>= 0.0000 <Sz>= 0.5000 <S**2>= 0.7581 S= 0.5040
 ExpMin= 3.60D-02 ExpMax= 8.59D+03 ExpMxC= 1.30D+03 IAcc=3 IRadAn=         5 AccDes= 0.00D+00
 Harris functional with IExCor= 1009 and IRadAn=       5 diagonalized for initial guess.
 HarFok:  IExCor= 1009 AccDes= 0.00D+00 IRadAn=         5 IDoV= 1 UseB2=F ITyADJ=14
 ICtDFT=  3500011 ScaDFX=  1.000000  1.000000  1.000000  1.000000
 FoFCou: FMM=F IPFlag=           0 FMFlag=      100000 FMFlg1=           0
         NFxFlg=           0 DoJE=T BraDBF=F KetDBF=T FulRan=T
         wScrn=  0.000000 ICntrl=     500 IOpCl=  0 I1Cent=   200000004 NGrid=           0
         NMat0=    1 NMatS0=      1 NMatT0=    0 NMatD0=    1 NMtDS0=    0 NMtDT0=    0
 Symmetry not used in FoFCou.
 Requested convergence on RMS density matrix=1.00D-08 within 128 cycles.
 Requested convergence on MAX density matrix=1.00D-06.
 Requested convergence on             energy=1.00D-06.
 No special actions if energy rises.
 SCF Done:  E(UM062X) =  -420.199897400     A.U. after   14 cycles
            NFock= 14  Conv=0.59D-08     -V/T= 2.0032
 <Sx>= 0.0000 <Sy>= 0.0000 <Sz>= 0.5000 <S**2>= 0.7576 S= 0.5038
 <L.S>= 0.000000000000E+00
 Annihilation of the first spin contaminant:
 S**2 before annihilation     0.7576,   after     0.7500
 DoSCS=F DFT=T ScalE2(SS,OS)=  1.000000  1.000000
 Range of M.O.s used for correlation:     1   224
 NBasis=   225 NAE=    31 NBE=    30 NFC=     0 NFV=     0
 NROrb=    224 NOA=    31 NOB=    30 NVA=   193 NVB=   194

 **** Warning!!: The largest alpha MO coefficient is  0.16991820D+03


 **** Warning!!: The largest beta MO coefficient is  0.17798660D+03

 Symmetrizing basis deriv contribution to polar:
 IMax=3 JMax=2 DiffMx= 0.00D+00
 Calling FoFJK, ICntrl=      2147 FMM=F ISym2X=0 I1Cent= 0 IOpClX= 1 NMat=1 NMatS=1 NMatT=0.
 -------------------------------------------------------------------
 Center     Atomic                   Forces (Hartrees/Bohr)
 Number     Number              X              Y              Z
 -------------------------------------------------------------------
      1        6           0.000035387    0.000020615    0.000002421
      2        1           0.000012979   -0.000007594    0.000004241
      3        6           0.000044121    0.000007593   -0.000007137
      4        6          -0.000136113    0.000018455    0.000014366
      5        8           0.000088971    0.000051247   -0.000007264
      6        8           0.000046913    0.000239732   -0.000211612
      7        6          -0.000114256   -0.000689747    0.000227395
      8        6          -0.001024745   -0.001982426    0.001306968
      9        1           0.000024728    0.000021178   -0.000000479
     10        1           0.000128427   -0.000017272   -0.000054727
     11        1           0.000098682   -0.000817802    0.000212618
     12        1          -0.001565381   -0.001904776    0.001117994
     13        1           0.000367237   -0.001061244    0.000673452
     14        8           0.001932270    0.006265770   -0.003325479
     15        1           0.000060780   -0.000143730    0.000047243
 -------------------------------------------------------------------
 Cartesian Forces:  Max     0.006265770 RMS     0.001258161
 IRC-IRC-IRC-IRC-IRC-IRC-IRC-IRC-IRC-IRC-IRC-IRC-IRC-IRC-IRC-IRC-IRC-IRC
 Pt  2 Step number   1 out of a maximum of 900
 Modified Bulirsch-Stoer Extrapolation Cycles:
    EPS =    0.000010000000000
 Maximum DWI energy   std dev =  0.000002230 at pt    36
 Maximum DWI gradient std dev =  0.079112493 at pt    27
 CORRECTOR INTEGRATION CONVERGENCE:
   Recorrection delta-x convergence threshold:    0.010000
   Delta-x Convergence Met
 Point Number:   2          Path Number:   1
   CHANGE IN THE REACTION COORDINATE =    0.05356
   NET REACTION COORDINATE UP TO THIS POINT =    0.10706
  # OF POINTS ALONG THE PATH =   2
  # OF STEPS =   1

 Calculating another point on the path.
 IRC-IRC-IRC-IRC-IRC-IRC-IRC-IRC-IRC-IRC-IRC-IRC-IRC-IRC-IRC-IRC-IRC-IRC
                          Input orientation:                          
 ---------------------------------------------------------------------
 Center     Atomic      Atomic             Coordinates (Angstroms)
 Number     Number       Type             X           Y           Z
 ---------------------------------------------------------------------
      1          6           0        2.914425    1.311555    0.319152
      2          1           0        3.677513    2.038404    0.473705
      3          6           0        2.058104    0.492123    0.144566
      4          6           0        1.050568   -0.530510   -0.093326
      5          8           0        1.279653   -1.610769   -0.555507
      6          8           0       -0.163911   -0.100252    0.270826
      7          6           0       -1.244096   -1.030829    0.049238
      8          6           0       -2.489442   -0.390703    0.595298
      9          1           0       -1.318144   -1.223779   -1.022887
     10          1           0       -1.003797   -1.970016    0.552825
     11          1           0       -2.425004   -0.178241    1.661940
     12          1           0       -2.648889    0.612774    0.069460
     13          1           0       -3.381627   -0.972033    0.362392
     14          8           0       -2.300317    1.813753   -0.587975
     15          1           0       -1.361534    1.828045   -0.331831
 ---------------------------------------------------------------------
                    Distance matrix (angstroms):
                    1          2          3          4          5
     1  C    0.000000
     2  H    1.065129   0.000000
     3  C    1.198013   2.263141   0.000000
     4  C    2.652792   3.717753   1.455163   0.000000
     5  O    3.460850   4.486143   2.349094   1.197101   0.000000
     6  O    3.386988   4.401313   2.303085   1.338913   2.246857
     7  C    4.780473   5.815721   3.637719   2.352898   2.659202
     8  C    5.672365   6.629230   4.654323   3.609075   4.125408
     9  H    5.113084   6.151278   3.963119   2.637329   2.667724
    10  H    5.116227   6.163470   3.950195   2.590387   2.563514
    11  H    5.703690   6.600465   4.780175   3.909560   4.549032
    12  H    5.612584   6.497630   4.709138   3.875510   4.557211
    13  H    6.697531   7.675063   5.637542   4.477385   4.793543
    14  O    5.316824   6.075532   4.612934   4.119305   4.954250
    15  H    4.355958   5.107362   3.702104   3.381997   4.341813
                    6          7          8          9         10
     6  O    0.000000
     7  C    1.442871   0.000000
     8  C    2.365954   1.502941   0.000000
     9  H    2.065977   1.091863   2.164366   0.000000
    10  H    2.069045   1.092436   2.168681   1.771596   0.000000
    11  H    2.655903   2.173076   1.089504   3.086517   2.541737
    12  H    2.593081   2.162240   1.144069   2.517346   3.100125
    13  H    3.334979   2.161148   1.090038   2.498067   2.585791
    14  O    2.994192   3.100530   2.509089   3.221865   4.159242
    15  H    2.348580   2.886549   2.656047   3.129388   3.916103
                   11         12         13         14         15
    11  H    0.000000
    12  H    1.792155   0.000000
    13  H    1.798349   1.770403   0.000000
    14  O    3.007608   1.412825   3.135766   0.000000
    15  H    3.021800   1.815269   3.521811   0.973204   0.000000
 Symmetry turned off by external request.
 Stoichiometry    C5H7O3(2)
 Framework group  C1[X(C5H7O3)]
 Deg. of freedom    39
 Full point group                 C1      NOp   1
 Rotational constants (GHZ):      2.9410991      1.1604407      0.8974530
 Standard basis: 6-311++G(d,p) (5D, 7F)
   225 basis functions,   351 primitive gaussians,   233 cartesian basis functions
    31 alpha electrons       30 beta electrons
       nuclear repulsion energy       347.9269265545 Hartrees.
 NAtoms=   15 NActive=   15 NUniq=   15 SFac= 1.00D+00 NAtFMM=   60 NAOKFM=F Big=F
 Integral buffers will be    262144 words long.
 Raffenetti 2 integral format.
 Two-electron integral symmetry is turned off.
 One-electron integrals computed using PRISM.
 NBasis=   225 RedAO= T EigKep=  6.75D-06  NBF=   225
 NBsUse=   224 1.00D-06 EigRej=  7.97D-07 NBFU=   224
 Initial guess from the checkpoint file:  "ethyl_propiolate.chk"
 B after Tr=    -0.000097   -0.000459    0.000234
         Rot=    1.000000   -0.000044   -0.000049   -0.000074 Ang=  -0.01 deg.
 Initial guess <Sx>= 0.0000 <Sy>= 0.0000 <Sz>= 0.5000 <S**2>= 0.7575 S= 0.5038
 ExpMin= 3.60D-02 ExpMax= 8.59D+03 ExpMxC= 1.30D+03 IAcc=3 IRadAn=         5 AccDes= 0.00D+00
 Harris functional with IExCor= 1009 and IRadAn=       5 diagonalized for initial guess.
 HarFok:  IExCor= 1009 AccDes= 0.00D+00 IRadAn=         5 IDoV= 1 UseB2=F ITyADJ=14
 ICtDFT=  3500011 ScaDFX=  1.000000  1.000000  1.000000  1.000000
 FoFCou: FMM=F IPFlag=           0 FMFlag=      100000 FMFlg1=           0
         NFxFlg=           0 DoJE=T BraDBF=F KetDBF=T FulRan=T
         wScrn=  0.000000 ICntrl=     500 IOpCl=  0 I1Cent=   200000004 NGrid=           0
         NMat0=    1 NMatS0=      1 NMatT0=    0 NMatD0=    1 NMtDS0=    0 NMtDT0=    0
 Symmetry not used in FoFCou.
 Requested convergence on RMS density matrix=1.00D-08 within 128 cycles.
 Requested convergence on MAX density matrix=1.00D-06.
 Requested convergence on             energy=1.00D-06.
 No special actions if energy rises.
 SCF Done:  E(UM062X) =  -420.200124851     A.U. after   17 cycles
            NFock= 17  Conv=0.80D-08     -V/T= 2.0032
 <Sx>= 0.0000 <Sy>= 0.0000 <Sz>= 0.5000 <S**2>= 0.7571 S= 0.5036
 <L.S>= 0.000000000000E+00
 Annihilation of the first spin contaminant:
 S**2 before annihilation     0.7571,   after     0.7500
 DoSCS=F DFT=T ScalE2(SS,OS)=  1.000000  1.000000
 Range of M.O.s used for correlation:     1   224
 NBasis=   225 NAE=    31 NBE=    30 NFC=     0 NFV=     0
 NROrb=    224 NOA=    31 NOB=    30 NVA=   193 NVB=   194

 **** Warning!!: The largest alpha MO coefficient is  0.17016221D+03


 **** Warning!!: The largest beta MO coefficient is  0.17809383D+03

 Symmetrizing basis deriv contribution to polar:
 IMax=3 JMax=2 DiffMx= 0.00D+00
 Calling FoFJK, ICntrl=      2147 FMM=F ISym2X=0 I1Cent= 0 IOpClX= 1 NMat=1 NMatS=1 NMatT=0.
 -------------------------------------------------------------------
 Center     Atomic                   Forces (Hartrees/Bohr)
 Number     Number              X              Y              Z
 -------------------------------------------------------------------
      1        6           0.000046729    0.000032402    0.000003889
      2        1           0.000013314   -0.000009651    0.000004712
      3        6           0.000057107    0.000012255   -0.000007841
      4        6          -0.000160317    0.000039279    0.000012714
      5        8           0.000112357    0.000074667    0.000001620
      6        8           0.000017202    0.000333109   -0.000291791
      7        6          -0.000126756   -0.000771336    0.000231614
      8        6          -0.001494190   -0.003319911    0.002084606
      9        1           0.000022594    0.000024455   -0.000001694
     10        1           0.000158866   -0.000024638   -0.000069467
     11        1           0.000144423   -0.000997618    0.000286639
     12        1          -0.001943223   -0.002079177    0.001221650
     13        1           0.000481507   -0.001436368    0.000897934
     14        8           0.002594011    0.008335321   -0.004436993
     15        1           0.000076375   -0.000212790    0.000062406
 -------------------------------------------------------------------
 Cartesian Forces:  Max     0.008335321 RMS     0.001688424
 IRC-IRC-IRC-IRC-IRC-IRC-IRC-IRC-IRC-IRC-IRC-IRC-IRC-IRC-IRC-IRC-IRC-IRC
 Pt  3 Step number   1 out of a maximum of 900
 Modified Bulirsch-Stoer Extrapolation Cycles:
    EPS =    0.000010000000000
 Maximum DWI energy   std dev =  0.000001600 at pt    36
 Maximum DWI gradient std dev =  0.048597980 at pt    28
 CORRECTOR INTEGRATION CONVERGENCE:
   Recorrection delta-x convergence threshold:    0.010000
   Delta-x Convergence Met
 Point Number:   3          Path Number:   1
   CHANGE IN THE REACTION COORDINATE =    0.05361
   NET REACTION COORDINATE UP TO THIS POINT =    0.16066
  # OF POINTS ALONG THE PATH =   3
  # OF STEPS =   1

 Calculating another point on the path.
 IRC-IRC-IRC-IRC-IRC-IRC-IRC-IRC-IRC-IRC-IRC-IRC-IRC-IRC-IRC-IRC-IRC-IRC
                          Input orientation:                          
 ---------------------------------------------------------------------
 Center     Atomic      Atomic             Coordinates (Angstroms)
 Number     Number       Type             X           Y           Z
 ---------------------------------------------------------------------
      1          6           0        2.914449    1.311572    0.319154
      2          1           0        3.677594    2.038348    0.473734
      3          6           0        2.058133    0.492130    0.144562
      4          6           0        1.050490   -0.530485   -0.093322
      5          8           0        1.279696   -1.610738   -0.555505
      6          8           0       -0.163917   -0.100120    0.270710
      7          6           0       -1.244155   -1.031193    0.049340
      8          6           0       -2.490243   -0.392548    0.596442
      9          1           0       -1.318048   -1.223629   -1.022893
     10          1           0       -1.002810   -1.970182    0.552380
     11          1           0       -2.424058   -0.184202    1.663853
     12          1           0       -2.660476    0.600361    0.076716
     13          1           0       -3.378923   -0.981330    0.368000
     14          8           0       -2.299314    1.817015   -0.589716
     15          1           0       -1.360806    1.826625   -0.331350
 ---------------------------------------------------------------------
                    Distance matrix (angstroms):
                    1          2          3          4          5
     1  C    0.000000
     2  H    1.065124   0.000000
     3  C    1.198017   2.263139   0.000000
     4  C    2.652858   3.717813   1.455223   0.000000
     5  O    3.460830   4.486098   2.349066   1.197119   0.000000
     6  O    3.386969   4.401304   2.303081   1.338850   2.246913
     7  C    4.780725   5.815996   3.637951   2.352968   2.659236
     8  C    5.673765   6.630726   4.655596   3.609930   4.125943
     9  H    5.112960   6.151164   3.963001   2.637143   2.667692
    10  H    5.115586   6.162847   3.949515   2.589537   2.562507
    11  H    5.704841   6.601990   4.780764   3.908972   4.547345
    12  H    5.625334   6.511265   4.720338   3.883169   4.562195
    13  H    6.698232   7.676202   5.637605   4.476135   4.790799
    14  O    5.316469   6.074813   4.613224   4.120480   4.955802
    15  H    4.355025   5.106708   3.700881   3.380381   4.340272
                    6          7          8          9         10
     6  O    0.000000
     7  C    1.443196   0.000000
     8  C    2.367151   1.503303   0.000000
     9  H    2.065841   1.091868   2.164944   0.000000
    10  H    2.068867   1.092244   2.168716   1.771497   0.000000
    11  H    2.656342   2.171684   1.089566   3.085817   2.538709
    12  H    2.600214   2.160713   1.133562   2.517577   3.095449
    13  H    3.335005   2.158996   1.090231   2.498099   2.580260
    14  O    2.995941   3.103875   2.515073   3.224289   4.162712
    15  H    2.346778   2.885421   2.657283   3.127955   3.914701
                   11         12         13         14         15
    11  H    0.000000
    12  H    1.786179   0.000000
    13  H    1.796222   1.761465   0.000000
    14  O    3.016456   1.433463   3.148572   0.000000
    15  H    3.025684   1.832862   3.527959   0.973469   0.000000
 Symmetry turned off by external request.
 Stoichiometry    C5H7O3(2)
 Framework group  C1[X(C5H7O3)]
 Deg. of freedom    39
 Full point group                 C1      NOp   1
 Rotational constants (GHZ):      2.9363691      1.1602554      0.8970893
 Standard basis: 6-311++G(d,p) (5D, 7F)
   225 basis functions,   351 primitive gaussians,   233 cartesian basis functions
    31 alpha electrons       30 beta electrons
       nuclear repulsion energy       347.8338885326 Hartrees.
 NAtoms=   15 NActive=   15 NUniq=   15 SFac= 1.00D+00 NAtFMM=   60 NAOKFM=F Big=F
 Integral buffers will be    262144 words long.
 Raffenetti 2 integral format.
 Two-electron integral symmetry is turned off.
 One-electron integrals computed using PRISM.
 NBasis=   225 RedAO= T EigKep=  6.75D-06  NBF=   225
 NBsUse=   224 1.00D-06 EigRej=  7.97D-07 NBFU=   224
 Initial guess from the checkpoint file:  "ethyl_propiolate.chk"
 B after Tr=    -0.000096   -0.000436    0.000220
         Rot=    1.000000   -0.000040   -0.000046   -0.000071 Ang=  -0.01 deg.
 Initial guess <Sx>= 0.0000 <Sy>= 0.0000 <Sz>= 0.5000 <S**2>= 0.7571 S= 0.5035
 ExpMin= 3.60D-02 ExpMax= 8.59D+03 ExpMxC= 1.30D+03 IAcc=3 IRadAn=         5 AccDes= 0.00D+00
 Harris functional with IExCor= 1009 and IRadAn=       5 diagonalized for initial guess.
 HarFok:  IExCor= 1009 AccDes= 0.00D+00 IRadAn=         5 IDoV= 1 UseB2=F ITyADJ=14
 ICtDFT=  3500011 ScaDFX=  1.000000  1.000000  1.000000  1.000000
 FoFCou: FMM=F IPFlag=           0 FMFlag=      100000 FMFlg1=           0
         NFxFlg=           0 DoJE=T BraDBF=F KetDBF=T FulRan=T
         wScrn=  0.000000 ICntrl=     500 IOpCl=  0 I1Cent=   200000004 NGrid=           0
         NMat0=    1 NMatS0=      1 NMatT0=    0 NMatD0=    1 NMtDS0=    0 NMtDT0=    0
 Symmetry not used in FoFCou.
 Requested convergence on RMS density matrix=1.00D-08 within 128 cycles.
 Requested convergence on MAX density matrix=1.00D-06.
 Requested convergence on             energy=1.00D-06.
 No special actions if energy rises.
 SCF Done:  E(UM062X) =  -420.200391578     A.U. after   17 cycles
            NFock= 17  Conv=0.61D-08     -V/T= 2.0032
 <Sx>= 0.0000 <Sy>= 0.0000 <Sz>= 0.5000 <S**2>= 0.7567 S= 0.5034
 <L.S>= 0.000000000000E+00
 Annihilation of the first spin contaminant:
 S**2 before annihilation     0.7567,   after     0.7500
 DoSCS=F DFT=T ScalE2(SS,OS)=  1.000000  1.000000
 Range of M.O.s used for correlation:     1   224
 NBasis=   225 NAE=    31 NBE=    30 NFC=     0 NFV=     0
 NROrb=    224 NOA=    31 NOB=    30 NVA=   193 NVB=   194

 **** Warning!!: The largest alpha MO coefficient is  0.17040702D+03


 **** Warning!!: The largest beta MO coefficient is  0.17821443D+03

 Symmetrizing basis deriv contribution to polar:
 IMax=3 JMax=2 DiffMx= 0.00D+00
 Calling FoFJK, ICntrl=      2147 FMM=F ISym2X=0 I1Cent= 0 IOpClX= 1 NMat=1 NMatS=1 NMatT=0.
 -------------------------------------------------------------------
 Center     Atomic                   Forces (Hartrees/Bohr)
 Number     Number              X              Y              Z
 -------------------------------------------------------------------
      1        6           0.000054744    0.000038264    0.000005048
      2        1           0.000014374   -0.000009308    0.000005095
      3        6           0.000064501    0.000016391   -0.000007826
      4        6          -0.000170480    0.000062183    0.000006861
      5        8           0.000124334    0.000096847    0.000013390
      6        8          -0.000032559    0.000411630   -0.000357343
      7        6          -0.000135929   -0.000769896    0.000206379
      8        6          -0.001876928   -0.004622046    0.002814341
      9        1           0.000015497    0.000028227   -0.000002508
     10        1           0.000181368   -0.000030823   -0.000082375
     11        1           0.000183208   -0.001088582    0.000343952
     12        1          -0.002186914   -0.002027883    0.001187588
     13        1           0.000559822   -0.001731068    0.001072402
     14        8           0.003120179    0.009901881   -0.005280557
     15        1           0.000084780   -0.000275819    0.000075554
 -------------------------------------------------------------------
 Cartesian Forces:  Max     0.009901881 RMS     0.002031561
 IRC-IRC-IRC-IRC-IRC-IRC-IRC-IRC-IRC-IRC-IRC-IRC-IRC-IRC-IRC-IRC-IRC-IRC
 Pt  4 Step number   1 out of a maximum of 900
 Modified Bulirsch-Stoer Extrapolation Cycles:
    EPS =    0.000010000000000
 Maximum DWI energy   std dev =  0.000001048 at pt    47
 Maximum DWI gradient std dev =  0.032890739 at pt    38
 CORRECTOR INTEGRATION CONVERGENCE:
   Recorrection delta-x convergence threshold:    0.010000
   Delta-x Convergence Met
 Point Number:   4          Path Number:   1
   CHANGE IN THE REACTION COORDINATE =    0.05363
   NET REACTION COORDINATE UP TO THIS POINT =    0.21429
  # OF POINTS ALONG THE PATH =   4
  # OF STEPS =   1

 Calculating another point on the path.
 IRC-IRC-IRC-IRC-IRC-IRC-IRC-IRC-IRC-IRC-IRC-IRC-IRC-IRC-IRC-IRC-IRC-IRC
                          Input orientation:                          
 ---------------------------------------------------------------------
 Center     Atomic      Atomic             Coordinates (Angstroms)
 Number     Number       Type             X           Y           Z
 ---------------------------------------------------------------------
      1          6           0        2.914474    1.311589    0.319157
      2          1           0        3.677671    2.038300    0.473761
      3          6           0        2.058162    0.492137    0.144559
      4          6           0        1.050417   -0.530453   -0.093321
      5          8           0        1.279737   -1.610703   -0.555499
      6          8           0       -0.163940   -0.099976    0.270586
      7          6           0       -1.244212   -1.031511    0.049420
      8          6           0       -2.491111   -0.394755    0.597779
      9          1           0       -1.318005   -1.223469   -1.022908
     10          1           0       -1.001819   -1.970353    0.551911
     11          1           0       -2.423021   -0.189916    1.665804
     12          1           0       -2.672021    0.589771    0.082857
     13          1           0       -3.376133   -0.991063    0.373866
     14          8           0       -2.298254    1.820406   -0.591530
     15          1           0       -1.360121    1.825036   -0.330857
 ---------------------------------------------------------------------
                    Distance matrix (angstroms):
                    1          2          3          4          5
     1  C    0.000000
     2  H    1.065120   0.000000
     3  C    1.198022   2.263140   0.000000
     4  C    2.652916   3.717867   1.455276   0.000000
     5  O    3.460806   4.486055   2.349035   1.197136   0.000000
     6  O    3.386961   4.401304   2.303089   1.338806   2.246979
     7  C    4.780956   5.816247   3.638163   2.353032   2.659269
     8  C    5.675350   6.632421   4.657024   3.610881   4.126485
     9  H    5.112879   6.151091   3.962926   2.637010   2.667711
    10  H    5.114945   6.162226   3.948832   2.588688   2.561484
    11  H    5.705859   6.603359   4.781253   3.908357   4.545683
    12  H    5.637889   6.524541   4.731593   3.891335   4.567929
    13  H    6.699025   7.677446   5.637733   4.474905   4.787985
    14  O    5.316086   6.074043   4.613511   4.121692   4.957401
    15  H    4.354114   5.106098   3.699635   3.378676   4.338620
                    6          7          8          9         10
     6  O    0.000000
     7  C    1.443488   0.000000
     8  C    2.368476   1.503633   0.000000
     9  H    2.065727   1.091871   2.165542   0.000000
    10  H    2.068694   1.092097   2.168549   1.771402   0.000000
    11  H    2.656721   2.170384   1.089620   3.085201   2.535849
    12  H    2.607962   2.160628   1.125684   2.518713   3.092543
    13  H    3.335100   2.156847   1.090406   2.498176   2.574506
    14  O    2.997733   3.107290   2.521624   3.226786   4.166300
    15  H    2.344836   2.884078   2.658755   3.126354   3.913137
                   11         12         13         14         15
    11  H    0.000000
    12  H    1.782031   0.000000
    13  H    1.794259   1.754849   0.000000
    14  O    3.025313   1.452227   3.161989   0.000000
    15  H    3.029265   1.848816   3.534311   0.973686   0.000000
 Symmetry turned off by external request.
 Stoichiometry    C5H7O3(2)
 Framework group  C1[X(C5H7O3)]
 Deg. of freedom    39
 Full point group                 C1      NOp   1
 Rotational constants (GHZ):      2.9313564      1.1600620      0.8967063
 Standard basis: 6-311++G(d,p) (5D, 7F)
   225 basis functions,   351 primitive gaussians,   233 cartesian basis functions
    31 alpha electrons       30 beta electrons
       nuclear repulsion energy       347.7345976511 Hartrees.
 NAtoms=   15 NActive=   15 NUniq=   15 SFac= 1.00D+00 NAtFMM=   60 NAOKFM=F Big=F
 Integral buffers will be    262144 words long.
 Raffenetti 2 integral format.
 Two-electron integral symmetry is turned off.
 One-electron integrals computed using PRISM.
 NBasis=   225 RedAO= T EigKep=  6.75D-06  NBF=   225
 NBsUse=   224 1.00D-06 EigRej=  7.97D-07 NBFU=   224
 Initial guess from the checkpoint file:  "ethyl_propiolate.chk"
 B after Tr=    -0.000094   -0.000412    0.000206
         Rot=    1.000000   -0.000035   -0.000044   -0.000068 Ang=  -0.01 deg.
 Initial guess <Sx>= 0.0000 <Sy>= 0.0000 <Sz>= 0.5000 <S**2>= 0.7567 S= 0.5034
 ExpMin= 3.60D-02 ExpMax= 8.59D+03 ExpMxC= 1.30D+03 IAcc=3 IRadAn=         5 AccDes= 0.00D+00
 Harris functional with IExCor= 1009 and IRadAn=       5 diagonalized for initial guess.
 HarFok:  IExCor= 1009 AccDes= 0.00D+00 IRadAn=         5 IDoV= 1 UseB2=F ITyADJ=14
 ICtDFT=  3500011 ScaDFX=  1.000000  1.000000  1.000000  1.000000
[...]
  Beta virt. eigenvalues --    0.59507   0.60636   0.63765   0.65134   0.66980
  Beta virt. eigenvalues --    0.68065   0.68626   0.70014   0.70513   0.72057
  Beta virt. eigenvalues --    0.73494   0.74252   0.75187   0.78384   0.79927
  Beta virt. eigenvalues --    0.84724   0.89372   0.90962   0.99381   1.01264
  Beta virt. eigenvalues --    1.06319   1.06860   1.09705   1.10586   1.12804
  Beta virt. eigenvalues --    1.14174   1.14667   1.16565   1.17343   1.18787
  Beta virt. eigenvalues --    1.20836   1.21576   1.22204   1.26315   1.28873
  Beta virt. eigenvalues --    1.31399   1.32062   1.35904   1.36112   1.39847
  Beta virt. eigenvalues --    1.44256   1.46316   1.48660   1.52477   1.55064
  Beta virt. eigenvalues --    1.57710   1.59445   1.61163   1.61998   1.63976
  Beta virt. eigenvalues --    1.64282   1.65557   1.67247   1.68433   1.71796
  Beta virt. eigenvalues --    1.72778   1.75938   1.82495   1.83757   1.86182
  Beta virt. eigenvalues --    1.88245   1.92646   1.98559   1.99572   2.05511
  Beta virt. eigenvalues --    2.08685   2.11785   2.15453   2.18306   2.21186
  Beta virt. eigenvalues --    2.25468   2.40182   2.41858   2.49277   2.51036
  Beta virt. eigenvalues --    2.52713   2.55266   2.57051   2.60906   2.63938
  Beta virt. eigenvalues --    2.64412   2.65613   2.68488   2.72158   2.74473
  Beta virt. eigenvalues --    2.80798   2.81354   2.84190   2.87817   2.95760
  Beta virt. eigenvalues --    2.96285   3.02181   3.03183   3.05905   3.11263
  Beta virt. eigenvalues --    3.12104   3.15705   3.19675   3.22761   3.25904
  Beta virt. eigenvalues --    3.26114   3.30598   3.34191   3.36215   3.42397
  Beta virt. eigenvalues --    3.52671   3.55284   3.66584   3.73689   3.81298
  Beta virt. eigenvalues --    3.81691   3.84185   4.04350   4.06705   4.11395
  Beta virt. eigenvalues --    4.15581   4.27096   5.10778   5.13493   5.15088
  Beta virt. eigenvalues --    5.30976   5.44611   5.54141   5.71479   5.77565
  Beta virt. eigenvalues --    5.92864  23.62018  23.91253  23.93631  23.95100
  Beta virt. eigenvalues --   25.17001  49.98158  50.01343  50.09717
          Condensed to atoms (all electrons):
               1          2          3          4          5          6
     1  C    6.087673   0.448262  -1.055584   1.244579  -0.106850  -0.111352
     2  H    0.448262   0.422608  -0.086919   0.029276  -0.003398  -0.005767
     3  C   -1.055584  -0.086919   9.370509  -2.775554   0.172071  -0.192781
     4  C    1.244579   0.029276  -2.775554   7.705473   0.344566  -0.029990
     5  O   -0.106850  -0.003398   0.172071   0.344566   7.993150  -0.123601
     6  O   -0.111352  -0.005767  -0.192781  -0.029990  -0.123601   8.500176
     7  C    0.038487  -0.002136  -0.422011  -0.094041  -0.069968   0.282688
     8  C    0.039856   0.002068  -0.094468   0.164035   0.024106  -0.213072
     9  H   -0.003134  -0.000072   0.013033  -0.003049  -0.012684  -0.040148
    10  H    0.000010  -0.000162  -0.012015  -0.002428  -0.005161  -0.036492
    11  H   -0.002646  -0.000221   0.001893  -0.017942  -0.002611  -0.004964
    12  H    0.000827   0.000113  -0.002585   0.003867  -0.000251   0.006212
    13  H   -0.000421   0.000035   0.006133   0.008891   0.002099   0.018371
    14  O   -0.000349  -0.000032  -0.001542  -0.007853  -0.000329   0.003807
    15  H   -0.002827  -0.000286   0.022392  -0.006399   0.000523   0.011883
               7          8          9         10         11         12
     1  C    0.038487   0.039856  -0.003134   0.000010  -0.002646   0.000827
     2  H   -0.002136   0.002068  -0.000072  -0.000162  -0.000221   0.000113
     3  C   -0.422011  -0.094468   0.013033  -0.012015   0.001893  -0.002585
     4  C   -0.094041   0.164035  -0.003049  -0.002428  -0.017942   0.003867
     5  O   -0.069968   0.024106  -0.012684  -0.005161  -0.002611  -0.000251
     6  O    0.282688  -0.213072  -0.040148  -0.036492  -0.004964   0.006212
     7  C    5.852505  -0.181816   0.430918   0.403679   0.047124  -0.053195
     8  C   -0.181816   6.262842  -0.070326  -0.024492   0.301753   0.084755
     9  H    0.430918  -0.070326   0.490820  -0.043899   0.002467  -0.006164
    10  H    0.403679  -0.024492  -0.043899   0.519871  -0.005959   0.004014
    11  H    0.047124   0.301753   0.002467  -0.005959   0.540224  -0.011933
    12  H   -0.053195   0.084755  -0.006164   0.004014  -0.011933   0.416701
    13  H   -0.047039   0.373037  -0.000152  -0.008391  -0.046305  -0.015878
    14  O   -0.004242  -0.023137  -0.008466   0.000167  -0.016387   0.297304
    15  H    0.006685   0.011412   0.003760  -0.000366  -0.003410  -0.065169
              13         14         15
     1  C   -0.000421  -0.000349  -0.002827
     2  H    0.000035  -0.000032  -0.000286
     3  C    0.006133  -0.001542   0.022392
     4  C    0.008891  -0.007853  -0.006399
     5  O    0.002099  -0.000329   0.000523
     6  O    0.018371   0.003807   0.011883
     7  C   -0.047039  -0.004242   0.006685
     8  C    0.373037  -0.023137   0.011412
     9  H   -0.000152  -0.008466   0.003760
    10  H   -0.008391   0.000167  -0.000366
    11  H   -0.046305  -0.016387  -0.003410
    12  H   -0.015878   0.297304  -0.065169
    13  H    0.501938   0.000705   0.002926
    14  O    0.000705   7.885676   0.324308
    15  H    0.002926   0.324308   0.461280
          Atomic-Atomic Spin Densities.
               1          2          3          4          5          6
     1  C   -0.001621  -0.000487  -0.001850   0.002667   0.000175   0.000732
     2  H   -0.000487  -0.000069   0.000499   0.000079   0.000000  -0.000002
     3  C   -0.001850   0.000499   0.013378  -0.007542  -0.000844  -0.000964
     4  C    0.002667   0.000079  -0.007542   0.000473   0.001324   0.001312
     5  O    0.000175   0.000000  -0.000844   0.001324   0.000809   0.001642
     6  O    0.000732  -0.000002  -0.000964   0.001312   0.001642   0.011174
     7  C    0.000463   0.000045   0.001725   0.001385  -0.001146   0.008281
     8  C    0.000167  -0.000059  -0.003726   0.002266  -0.000592  -0.019147
     9  H   -0.000049   0.000020   0.001772   0.000921   0.000861   0.003079
    10  H    0.000270  -0.000031  -0.004697  -0.003347  -0.001620  -0.009220
    11  H    0.000103   0.000025   0.000438   0.001442   0.000067   0.003214
    12  H    0.000277  -0.000020  -0.002473   0.000049  -0.000021  -0.006126
    13  H   -0.000087   0.000002   0.000588  -0.000386   0.000086   0.002242
    14  O    0.000090   0.000025   0.001175   0.000885   0.000157   0.005962
    15  H   -0.000062  -0.000062  -0.001178   0.000034  -0.000154  -0.000794
               7          8          9         10         11         12
     1  C    0.000463   0.000167  -0.000049   0.000270   0.000103   0.000277
     2  H    0.000045  -0.000059   0.000020  -0.000031   0.000025  -0.000020
     3  C    0.001725  -0.003726   0.001772  -0.004697   0.000438  -0.002473
     4  C    0.001385   0.002266   0.000921  -0.003347   0.001442   0.000049
     5  O   -0.001146  -0.000592   0.000861  -0.001620   0.000067  -0.000021
     6  O    0.008281  -0.019147   0.003079  -0.009220   0.003214  -0.006126
     7  C   -0.040920  -0.057275   0.003164   0.023047   0.005864   0.007798
     8  C   -0.057275   1.067895  -0.009755  -0.013351  -0.027827   0.027713
     9  H    0.003164  -0.009755   0.012162  -0.008168  -0.000200  -0.000948
    10  H    0.023047  -0.013351  -0.008168   0.064430  -0.001371  -0.000895
    11  H    0.005864  -0.027827  -0.000200  -0.001371  -0.025876   0.007442
    12  H    0.007798   0.027713  -0.000948  -0.000895   0.007442  -0.099948
    13  H    0.010086  -0.032388   0.002136  -0.004257   0.010577   0.004430
    14  O    0.004829  -0.115221   0.002597  -0.001493   0.003242   0.015508
    15  H   -0.000705   0.012467  -0.000910   0.000933  -0.001276   0.006120
              13         14         15
     1  C   -0.000087   0.000090  -0.000062
     2  H    0.000002   0.000025  -0.000062
     3  C    0.000588   0.001175  -0.001178
     4  C   -0.000386   0.000885   0.000034
     5  O    0.000086   0.000157  -0.000154
     6  O    0.002242   0.005962  -0.000794
     7  C    0.010086   0.004829  -0.000705
     8  C   -0.032388  -0.115221   0.012467
     9  H    0.002136   0.002597  -0.000910
    10  H   -0.004257  -0.001493   0.000933
    11  H    0.010577   0.003242  -0.001276
    12  H    0.004430   0.015508   0.006120
    13  H   -0.019419   0.004202  -0.001212
    14  O    0.004202   0.323390  -0.004809
    15  H   -0.001212  -0.004809  -0.005759
 Mulliken charges and spin densities:
               1          2
     1  C   -0.576531   0.000787
     2  H    0.196631  -0.000036
     3  C    1.057429  -0.003699
     4  C   -0.563430   0.001562
     5  O   -0.211662   0.000743
     6  O   -0.064971   0.001383
     7  C   -0.187638  -0.033359
     8  C   -0.656552   0.831167
     9  H    0.247095   0.006680
    10  H    0.211624   0.040230
    11  H    0.218918  -0.024138
    12  H    0.341381  -0.041095
    13  H    0.204049  -0.023401
    14  O   -0.449630   0.240539
    15  H    0.233287   0.002636
 Sum of Mulliken charges =   0.00000   1.00000
 Mulliken charges and spin densities with hydrogens summed into heavy atoms:
               1          2
     1  C   -0.379900   0.000751
     3  C    1.057429  -0.003699
     4  C   -0.563430   0.001562
     5  O   -0.211662   0.000743
     6  O   -0.064971   0.001383
     7  C    0.271081   0.013552
     8  C   -0.233585   0.783628
    14  O    0.125038   0.202080
 APT charges:
               1
     1  C    0.421821
     2  H    0.974213
     3  C   -0.838917
     4  C   -0.559706
     5  O   -0.074083
     6  O   -0.002606
     7  C   -0.739586
     8  C   -1.198958
     9  H    0.424167
    10  H    0.458368
    11  H    0.401406
    12  H    0.190696
    13  H    0.688009
    14  O   -0.144596
    15  H   -0.000229
 Sum of APT charges =   0.00000
 APT charges with hydrogens summed into heavy atoms:
               1
     1  C    1.396034
     3  C   -0.838917
     4  C   -0.559706
     5  O   -0.074083
     6  O   -0.002606
     7  C    0.142949
     8  C   -0.109542
    14  O    0.045871
 Electronic spatial extent (au):  <R**2>=           1258.9833
 Charge=              0.0000 electrons
 Dipole moment (field-independent basis, Debye):
    X=              0.5415    Y=             -0.6658    Z=              2.0975  Tot=              2.2662
 Quadrupole moment (field-independent basis, Debye-Ang):
   XX=            -44.0292   YY=            -51.5471   ZZ=            -48.8920
   XY=             17.4874   XZ=             -1.5136   YZ=              0.6870
 Traceless Quadrupole moment (field-independent basis, Debye-Ang):
   XX=              4.1269   YY=             -3.3910   ZZ=             -0.7359
   XY=             17.4874   XZ=             -1.5136   YZ=              0.6870
 Octapole moment (field-independent basis, Debye-Ang**2):
  XXX=             29.7150  YYY=              0.5341  ZZZ=             -2.4910  XYY=             19.9164
  XXY=              1.6407  XXZ=             15.4744  XZZ=             -0.2336  YZZ=             -3.5749
  YYZ=              7.1926  XYZ=             -5.2225
 Hexadecapole moment (field-independent basis, Debye-Ang**3):
 XXXX=          -1020.4960 YYYY=           -426.9986 ZZZZ=           -105.9794 XXXY=            150.7579
 XXXZ=              1.3682 YYYX=             59.6002 YYYZ=              1.3845 ZZZX=             -7.9984
 ZZZY=              2.2830 XXYY=           -254.4716 XXZZ=           -217.8825 YYZZ=            -92.1767
 XXYZ=             25.5698 YYXZ=              2.7789 ZZXY=              1.0524
 N-N= 3.485381323954D+02 E-N=-1.681218858808D+03  KE= 4.188528017018D+02
  Exact polarizability:   0.000   0.000   0.000   0.000   0.000   0.000
 Approx polarizability:  86.375  15.524  96.607   1.212   4.997  61.765
                          Isotropic Fermi Contact Couplings
        Atom                 a.u.       MegaHertz       Gauss      10(-4) cm-1
     1  C(13)              0.00011       0.12220       0.04360       0.04076
     2  H(1)               0.00000      -0.00206      -0.00073      -0.00069
     3  C(13)              0.00108       1.21819       0.43468       0.40634
     4  C(13)             -0.00127      -1.43266      -0.51121      -0.47788
     5  O(17)              0.00100      -0.60533      -0.21600      -0.20192
     6  O(17)              0.00661      -4.00620      -1.42951      -1.33633
     7  C(13)             -0.02843     -31.95580     -11.40262     -10.65931
     8  C(13)              0.24962     280.61640     100.13090      93.60355
     9  H(1)               0.00426      19.01965       6.78668       6.34427
    10  H(1)               0.02082      93.05875      33.20568      31.04106
    11  H(1)              -0.00667     -29.80537     -10.63530      -9.94200
    12  H(1)              -0.02701    -120.73206     -43.08020     -40.27188
    13  H(1)              -0.00885     -39.57405     -14.12100     -13.20048
    14  O(17)              0.07192     -43.59797     -15.55684     -14.54272
    15  H(1)              -0.00383     -17.12172      -6.10946      -5.71119
 --------------------------------------------------------
       Center         ----  Spin Dipole Couplings  ----
                      3XX-RR        3YY-RR        3ZZ-RR
 --------------------------------------------------------
     1   Atom        0.001337     -0.000291     -0.001046
     2   Atom        0.000919     -0.000365     -0.000554
     3   Atom        0.002829     -0.001115     -0.001714
     4   Atom        0.004318     -0.001641     -0.002677
     5   Atom        0.010162     -0.002974     -0.007188
     6   Atom        0.022838     -0.000714     -0.022124
     7   Atom        0.018800     -0.003898     -0.014903
     8   Atom       -0.448383      0.579482     -0.131099
     9   Atom       -0.001837     -0.001751      0.003588
    10   Atom        0.001438      0.006183     -0.007621
    11   Atom       -0.056500     -0.007252      0.063752
    12   Atom       -0.106763      0.150648     -0.043885
    13   Atom        0.032025      0.004244     -0.036269
    14   Atom       -0.575390      0.731014     -0.155624
    15   Atom        0.046851     -0.014517     -0.032333
 --------------------------------------------------------
                        XY            XZ            YZ
 --------------------------------------------------------
     1   Atom        0.000363      0.000190     -0.000347
     2   Atom        0.000425      0.000096     -0.000007
     3   Atom        0.000803     -0.000091     -0.000003
     4   Atom       -0.000913     -0.000128     -0.000521
     5   Atom        0.003545     -0.002124      0.000296
     6   Atom        0.021770     -0.004664     -0.003581
     7   Atom       -0.024013      0.008006     -0.005899
     8   Atom       -0.072246      0.043852     -0.577429
     9   Atom       -0.006729     -0.010680      0.006928
    10   Atom       -0.008632     -0.002757     -0.003007
    11   Atom        0.000470      0.007671      0.016781
    12   Atom        0.036930     -0.019566     -0.143251
    13   Atom        0.043339      0.031107     -0.006130
    14   Atom        0.155255     -0.092360     -0.747574
    15   Atom        0.017078      0.015886     -0.012477
 --------------------------------------------------------


 ---------------------------------------------------------------------------------
              Anisotropic Spin Dipole Couplings in Principal Axis System
 ---------------------------------------------------------------------------------

       Atom             a.u.   MegaHertz   Gauss  10(-4) cm-1        Axes

              Baa    -0.0012    -0.164    -0.058    -0.055 -0.1233  0.3896  0.9127
     1 C(13)  Bbb    -0.0002    -0.027    -0.010    -0.009 -0.1623  0.8994 -0.4058
              Bcc     0.0014     0.191     0.068     0.064  0.9790  0.1982  0.0476
 
              Baa    -0.0006    -0.306    -0.109    -0.102 -0.1621  0.3622  0.9179
     2 H(1)   Bbb    -0.0005    -0.255    -0.091    -0.085 -0.2432  0.8868 -0.3929
              Bcc     0.0011     0.561     0.200     0.187  0.9563  0.2869  0.0556
 
              Baa    -0.0017    -0.230    -0.082    -0.077  0.0251 -0.0291  0.9993
     3 C(13)  Bbb    -0.0013    -0.171    -0.061    -0.057 -0.1913  0.9810  0.0333
              Bcc     0.0030     0.401     0.143     0.134  0.9812  0.1920 -0.0191
 
              Baa    -0.0029    -0.393    -0.140    -0.131  0.0684  0.4162  0.9067
     4 C(13)  Bbb    -0.0015    -0.205    -0.073    -0.068  0.1308  0.8972 -0.4217
              Bcc     0.0045     0.598     0.213     0.199  0.9890 -0.1475 -0.0069
 
              Baa    -0.0076     0.548     0.196     0.183  0.1523 -0.1798  0.9718
     5 O(17)  Bbb    -0.0037     0.267     0.095     0.089 -0.2120  0.9545  0.2098
              Bcc     0.0113    -0.816    -0.291    -0.272  0.9653  0.2380 -0.1072
 
              Baa    -0.0228     1.647     0.588     0.549  0.0464  0.1153  0.9922
     6 O(17)  Bbb    -0.0136     0.987     0.352     0.329 -0.5181  0.8520 -0.0748
              Bcc     0.0364    -2.634    -0.940    -0.878  0.8541  0.5106 -0.0993
 
              Baa    -0.0193    -2.590    -0.924    -0.864  0.4740  0.8401  0.2639
     7 C(13)  Bbb    -0.0166    -2.234    -0.797    -0.745 -0.3000 -0.1277  0.9453
              Bcc     0.0359     4.824     1.721     1.609  0.8278 -0.5273  0.1915
 
              Baa    -0.4567   -61.291   -21.870   -20.445  0.6973 -0.3112 -0.6457
     8 C(13)  Bbb    -0.4507   -60.478   -21.580   -20.173  0.7140  0.3798  0.5882
              Bcc     0.9074   121.769    43.450    40.618 -0.0622  0.8712 -0.4870
 
              Baa    -0.0104    -5.545    -1.979    -1.850  0.8249  0.2275  0.5175
     9 H(1)   Bbb    -0.0065    -3.450    -1.231    -1.151  0.0806  0.8587 -0.5061
              Bcc     0.0169     8.995     3.210     3.000 -0.5595  0.4592  0.6900
 
              Baa    -0.0106    -5.655    -2.018    -1.886  0.4562  0.3789  0.8052
    10 H(1)   Bbb    -0.0022    -1.169    -0.417    -0.390  0.6579  0.4657 -0.5919
              Bcc     0.0128     6.824     2.435     2.276 -0.5992  0.7997 -0.0369
 
              Baa    -0.0570   -30.410   -10.851   -10.144  0.9978  0.0126 -0.0651
    11 H(1)   Bbb    -0.0110    -5.862    -2.092    -1.955 -0.0264  0.9759 -0.2164
              Bcc     0.0680    36.271    12.942    12.099  0.0609  0.2177  0.9741
 
              Baa    -0.1198   -63.904   -22.803   -21.316  0.0003  0.4681  0.8837
    12 H(1)   Bbb    -0.1119   -59.717   -21.309   -19.919  0.9925 -0.1084  0.0571
              Bcc     0.2317   123.621    44.111    41.236  0.1225  0.8770 -0.4646
 
              Baa    -0.0579   -30.874   -11.017   -10.298 -0.4668  0.4034  0.7870
    13 H(1)   Bbb    -0.0105    -5.581    -1.991    -1.862 -0.3342  0.7434 -0.5793
              Bcc     0.0683    36.455    13.008    12.160  0.8188  0.5334  0.2122
 
              Baa    -0.5949    43.045    15.360    14.358  0.9644  0.0348  0.2620
    14 O(17)  Bbb    -0.5806    42.011    14.990    14.013 -0.2436  0.5019  0.8299
              Bcc     1.1755   -85.056   -30.350   -28.372  0.1026  0.8642 -0.4925
 
              Baa    -0.0441   -23.556    -8.405    -7.857 -0.2384  0.4904  0.8383
    15 H(1)   Bbb    -0.0090    -4.783    -1.707    -1.595 -0.1089  0.8442 -0.5248
              Bcc     0.0531    28.339    10.112     9.453  0.9650  0.2164  0.1478
 

 ---------------------------------------------------------------------------------


 This type of calculation cannot be archived.


 IF YOU WANT TO LEARN FROM THE THEORETICAL PHYSICISTS ABOUT THE
 METHODS WHICH THEY USE, I ADVISE YOU TO FOLLOW THIS PRINCIPLE VERY STRICTLY:
 DON'T LISTEN TO THEIR WORDS; PAY ATTENTION, INSTEAD, TO THEIR ACTIONS.
 -- A.EINSTEIN, 1934
 Job cpu time:       0 days  1 hours  2 minutes 48.0 seconds.
 File lengths (MBytes):  RWF=    151 Int=      0 D2E=      0 Chk=      9 Scr=      1
 Normal termination of Gaussian 09 at Tue Mar 25 10:29:13 2025.
