 Entering Gaussian System, Link 0=g16
 Initial command:
 /opt/g16/l1.exe "/home/loki/Research/Transition_states/Addition/ts4_irc_points/Gau-451471.inp" -scrdir="/home/loki/Research/Transition_states/Addition/ts4_irc_points/"
 Entering Link 1 = /opt/g16/l1.exe PID=    451474.
  
 Copyright (c) 1988,1990,1992,1993,1995,1998,2003,2009,2016,
            Gaussian, Inc.  All Rights Reserved.
  
 This is part of the Gaussian(R) 16 program.  It is based on
 the Gaussian(R) 09 system (copyright 2009, Gaussian, Inc.),
 the Gaussian(R) 03 system (copyright 2003, Gaussian, Inc.),
 the Gaussian(R) 98 system (copyright 1998, Gaussian, Inc.),
 the Gaussian(R) 94 system (copyright 1995, Gaussian, Inc.),
 the Gaussian 92(TM) system (copyright 1992, Gaussian, Inc.),
 the Gaussian 90(TM) system (copyright 1990, Gaussian, Inc.),
 the Gaussian 88(TM) system (copyright 1988, Gaussian, Inc.),
 the Gaussian 86(TM) system (copyright 1986, Carnegie Mellon
 University), and the Gaussian 82(TM) system (copyright 1983,
 Carnegie Mellon University). Gaussian is a federally registered
 trademark of Gaussian, Inc.
  
 This software contains proprietary and confidential information,
 including trade secrets, belonging to Gaussian, Inc.
  
 This software is provided under written license and may be
 used, copied, transmitted, or stored only in accord with that
 written license.
  
 The following legend is applicable only to US Government
 contracts under FAR:
  
                    RESTRICTED RIGHTS LEGEND
  
 Use, reproduction and disclosure by the US Government is
 subject to restrictions as set forth in subparagraphs (a)
 and (c) of the Commercial Computer Software - Restricted
 Rights clause in FAR 52.227-19.
  
 Gaussian, Inc.
 340 Quinnipiac St., Bldg. 40, Wallingford CT 06492
  
  
 ---------------------------------------------------------------
 Warning -- This program may not be used in any manner that
 competes with the business of Gaussian, Inc. or will provide
 assistance to any competitor of Gaussian, Inc.  The licensee
 of this program is prohibited from giving any competitor of
 Gaussian, Inc. access to this program.  By using this program,
 the user acknowledges that Gaussian, Inc. is engaged in the
 business of creating and licensing software in the field of
 computational chemistry and represents and warrants to the
 licensee that it is not a competitor of Gaussian, Inc. and that
 it will not use this program in any manner prohibited above.
 ---------------------------------------------------------------
  

 Cite this work as:
 Gaussian 16, Revision A.03,
 M. J. Frisch, G. W. Trucks, H. B. Schlegel, G. E. Scuseria, 
 M. A. Robb, J. R. Cheeseman, G. Scalmani, V. Barone, 
 G. A. Petersson, H. Nakatsuji, X. Li, M. Caricato, A. V. Marenich, 
 J. Bloino, B. G. Janesko, R. Gomperts, B. Mennucci, H. P. Hratchian, 
 J. V. Ortiz, A. F. Izmaylov, J. L. Sonnenberg, D. Williams-Young, 
 F. Ding, F. Lipparini, F. Egidi, J. Goings, B. Peng, A. Petrone, 
 T. Henderson, D. Ranasinghe, V. G. Zakrzewski, J. Gao, N. Rega, 
 G. Zheng, W. Liang, M. Hada, M. Ehara, K. Toyota, R. Fukuda, 
 J. Hasegawa, M. Ishida, T. Nakajima, Y. Honda, O. Kitao, H. Nakai, 
 T. Vreven, K. Throssell, J. A. Montgomery, Jr., J. E. Peralta, 
 F. Ogliaro, M. J. Bearpark, J. J. Heyd, E. N. Brothers, K. N. Kudin, 
 V. N. Staroverov, T. A. Keith, R. Kobayashi, J. Normand, 
 K. Raghavachari, A. P. Rendell, J. C. Burant, S. S. Iyengar, 
 J. Tomasi, M. Cossi, J. M. Millam, M. Klene, C. Adamo, R. Cammi, 
 J. W. Ochterski, R. L. Martin, K. Morokuma, O. Farkas, 
 J. B. Foresman, and D. J. Fox, Gaussian, Inc., Wallingford CT, 2016.
 
 ******************************************
 Gaussian 16:  ES64L-G16RevA.03 25-Dec-2016
                28-Mar-2025 
 ******************************************
 %chk=ethyl_propiolate.chk
 %nprocshared=6
 Will use up to    6 processors via shared memory.
 %mem=12GB
 --------------------------
 # freq 6-311++g(d,p) m062x
 --------------------------
 1/10=4,30=1,38=1/1,3;
 2/12=2,17=6,18=5,40=1/2;
 3/5=4,6=6,7=1111,11=2,25=1,30=1,71=2,74=-55,140=1/1,2,3;
 4//1;
 5/5=2,38=5,98=1/2;
 8/6=4,10=90,11=11/1;
 11/6=1,8=1,9=11,15=111,16=1/1,2,10;
 10/6=1/2;
 6/7=2,8=2,9=2,10=2,28=1/1;
 7/8=1,10=1,25=1/1,2,3,16;
 1/10=4,30=1/3;
 99//99;
 -------------------
 Title Card Required
 -------------------
 Symbolic Z-matrix:
 Charge =  0 Multiplicity = 2
 C                    -1.76728  -0.15217   1.03387 
 H                    -2.57983  -0.6017    1.55584 
 C                    -0.80651   0.41613   0.57681 
 C                     0.33266   1.12631  -0.01235 
 O                     0.40269   2.31939   0.02035 
 O                     1.27106   0.37868  -0.59174 
 C                     1.1888   -1.06248  -0.58164 
 C                     1.75816  -1.62613   0.70477 
 H                     0.15582  -1.37516  -0.74727 
 H                     1.78586  -1.36139  -1.4417 
 H                     2.78193  -1.27901   0.85081 
 H                     1.15832  -1.32625   1.56589 
 H                     1.76287  -2.71684   0.65723 
 O                    -2.36206  -1.1562   -0.79178 
 H                    -2.54536  -0.35123  -1.30348 
 

 GradGradGradGradGradGradGradGradGradGradGradGradGradGradGradGradGradGrad
 Berny optimization.
 Initialization pass.
 Trust Radius=3.00D-01 FncErr=1.00D-07 GrdErr=1.00D-07 EigMax=2.50D+02 EigMin=1.00D-04
 Number of steps in this run=      2 maximum allowed number of steps=      2.
 GradGradGradGradGradGradGradGradGradGradGradGradGradGradGradGradGradGrad

                          Input orientation:                          
 ---------------------------------------------------------------------
 Center     Atomic      Atomic             Coordinates (Angstroms)
 Number     Number       Type             X           Y           Z
 ---------------------------------------------------------------------
      1          6           0       -1.767275   -0.152169    1.033865
      2          1           0       -2.579828   -0.601704    1.555835
      3          6           0       -0.806506    0.416134    0.576813
      4          6           0        0.332664    1.126310   -0.012350
      5          8           0        0.402689    2.319386    0.020349
      6          8           0        1.271060    0.378680   -0.591739
      7          6           0        1.188801   -1.062483   -0.581635
      8          6           0        1.758161   -1.626125    0.704773
      9          1           0        0.155816   -1.375155   -0.747269
     10          1           0        1.785855   -1.361387   -1.441696
     11          1           0        2.781929   -1.279010    0.850805
     12          1           0        1.158323   -1.326246    1.565890
     13          1           0        1.762869   -2.716838    0.657226
     14          8           0       -2.362058   -1.156195   -0.791780
     15          1           0       -2.545355   -0.351234   -1.303480
 ---------------------------------------------------------------------
                    Distance matrix (angstroms):
                    1          2          3          4          5
     1  C    0.000000
     2  H    1.065259   0.000000
     3  C    1.206210   2.266969   0.000000
     4  C    2.671857   3.732003   1.466005   0.000000
     5  O    3.441590   4.448134   2.322536   1.195576   0.000000
     6  O    3.486527   4.516920   2.383946   1.332377   2.212478
     7  C    3.489541   4.357024   2.740358   2.418237   3.523832
     8  C    3.835303   4.537829   3.280962   3.181541   4.227623
     9  H    2.892475   3.658724   2.426515   2.613180   3.781510
    10  H    4.496148   5.349906   3.735545   3.216120   4.195094
    11  H    4.690260   5.450160   3.978121   3.539703   4.393051
    12  H    3.196972   3.807734   2.806192   3.031103   4.031168
    13  H    4.379646   4.913279   4.052612   4.154949   5.255402
    14  O    2.166752   2.422020   2.600963   3.616472   4.514758
    15  H    2.471481   2.870471   2.673565   3.483267   4.192338
                    6          7          8          9         10
     6  O    0.000000
     7  C    1.443544   0.000000
     8  C    2.436689   1.515490   0.000000
     9  H    2.084202   1.091905   2.176906   0.000000
    10  H    2.003815   1.088817   2.162911   1.771848   0.000000
    11  H    2.666757   2.153329   1.090832   3.075639   2.500902
    12  H    2.752244   2.163877   1.091447   2.521531   3.072557
    13  H    3.374022   2.145046   1.091759   2.520980   2.498650
    14  O    3.949102   3.558306   4.408708   2.527769   4.203531
    15  H    3.950237   3.869219   4.917182   2.941787   4.449595
                   11         12         13         14         15
    11  H    0.000000
    12  H    1.774732   0.000000
    13  H    1.772937   1.767736   0.000000
    14  O    5.401275   4.240355   4.642224   0.000000
    15  H    5.820796   4.785516   5.291620   0.971286   0.000000
 Stoichiometry    C5H7O3(2)
 Framework group  C1[X(C5H7O3)]
 Deg. of freedom    39
 Full point group                 C1      NOp   1
 Largest Abelian subgroup         C1      NOp   1
 Largest concise Abelian subgroup C1      NOp   1
                         Standard orientation:                         
 ---------------------------------------------------------------------
 Center     Atomic      Atomic             Coordinates (Angstroms)
 Number     Number       Type             X           Y           Z
 ---------------------------------------------------------------------
      1          6           0       -1.783816   -0.053257    1.033129
      2          1           0       -2.597695   -0.490469    1.563434
      3          6           0       -0.820480    0.502206    0.565811
      4          6           0        0.321822    1.196643   -0.035916
      5          8           0        0.401663    2.389392   -0.016485
      6          8           0        1.251579    0.435151   -0.611166
      7          6           0        1.157680   -1.005099   -0.585048
      8          6           0        1.728076   -1.559399    0.704955
      9          1           0        0.121478   -1.311110   -0.742842
     10          1           0        1.748519   -1.318161   -1.444363
     11          1           0        2.755255   -1.219084    0.842813
     12          1           0        1.134465   -1.245327    1.565327
     13          1           0        1.723731   -2.650565    0.669244
     14          8           0       -2.394708   -1.072115   -0.778929
     15          1           0       -2.573710   -0.271276   -1.298556
 ---------------------------------------------------------------------
 Rotational constants (GHZ):           2.1158247           1.6752778           1.1620057
 Standard basis: 6-311++G(d,p) (5D, 7F)
 There are   233 symmetry adapted cartesian basis functions of A   symmetry.
 There are   225 symmetry adapted basis functions of A   symmetry.
   225 basis functions,   351 primitive gaussians,   233 cartesian basis functions
    31 alpha electrons       30 beta electrons
       nuclear repulsion energy       356.2100850563 Hartrees.
 NAtoms=   15 NActive=   15 NUniq=   15 SFac= 1.00D+00 NAtFMM=   60 NAOKFM=F Big=F
 Integral buffers will be    131072 words long.
 Raffenetti 2 integral format.
 Two-electron integral symmetry is turned on.
 One-electron integrals computed using PRISM.
 NBasis=   225 RedAO= T EigKep=  1.59D-06  NBF=   225
 NBsUse=   225 1.00D-06 EigRej= -1.00D+00 NBFU=   225
 ExpMin= 3.60D-02 ExpMax= 8.59D+03 ExpMxC= 1.30D+03 IAcc=3 IRadAn=         5 AccDes= 0.00D+00
 Harris functional with IExCor= 1009 and IRadAn=       5 diagonalized for initial guess.
 HarFok:  IExCor= 1009 AccDes= 0.00D+00 IRadAn=         5 IDoV= 1 UseB2=F ITyADJ=14
 ICtDFT=  3500011 ScaDFX=  1.000000  1.000000  1.000000  1.000000
 FoFCou: FMM=F IPFlag=           0 FMFlag=      100000 FMFlg1=           0
         NFxFlg=           0 DoJE=T BraDBF=F KetDBF=T FulRan=T
         wScrn=  0.000000 ICntrl=       500 IOpCl=  0 I1Cent=   200000004 NGrid=           0
         NMat0=    1 NMatS0=      1 NMatT0=    0 NMatD0=    1 NMtDS0=    0 NMtDT0=    0
 Petite list used in FoFCou.
 Initial guess <Sx>= 0.0000 <Sy>= 0.0000 <Sz>= 0.5000 <S**2>= 0.7500 S= 0.5000
 Keep R1 and R2 ints in memory in canonical form, NReq=652863693.
 Requested convergence on RMS density matrix=1.00D-08 within 128 cycles.
 Requested convergence on MAX density matrix=1.00D-06.
 Requested convergence on             energy=1.00D-06.
 No special actions if energy rises.
 SCF Done:  E(UM062X) =  -420.199314769     A.U. after   24 cycles
            NFock= 24  Conv=0.39D-08     -V/T= 2.0032
 <Sx>= 0.0000 <Sy>= 0.0000 <Sz>= 0.5000 <S**2>= 0.7620 S= 0.5060
 <L.S>=  0.00000000000    
 Annihilation of the first spin contaminant:
 S**2 before annihilation     0.7620,   after     0.7501
 DoSCS=F DFT=T ScalE2(SS,OS)=  1.000000  1.000000
 Range of M.O.s used for correlation:     1   225
 NBasis=   225 NAE=    31 NBE=    30 NFC=     0 NFV=     0
 NROrb=    225 NOA=    31 NOB=    30 NVA=   194 NVB=   195

 **** Warning!!: The largest alpha MO coefficient is  0.28042183D+03


 **** Warning!!: The largest beta MO coefficient is  0.27899182D+03

 Symmetrizing basis deriv contribution to polar:
 IMax=3 JMax=2 DiffMx= 0.00D+00
 G2DrvN: will do    16 centers at a time, making    1 passes.
 Calling FoFCou, ICntrl=  3107 FMM=F I1Cent=   0 AccDes= 0.00D+00.
 End of G2Drv F.D. properties file   721 does not exist.
 End of G2Drv F.D. properties file   722 does not exist.
 End of G2Drv F.D. properties file   788 does not exist.
          IDoAtm=111111111111111
          Differentiating once with respect to electric field.
                with respect to dipole field.
          Differentiating once with respect to nuclear coordinates.
 Keep R1 and R2 ints in memory in canonical form, NReq=652870569.
          There are    48 degrees of freedom in the 1st order CPHF.  IDoFFX=6 NUNeed=     3.
     45 vectors produced by pass  0 Test12= 2.47D-14 2.08D-09 XBig12= 8.42D+01 2.26D+00.
 AX will form    45 AO Fock derivatives at one time.
     45 vectors produced by pass  1 Test12= 2.47D-14 2.08D-09 XBig12= 1.64D+01 4.84D-01.
     45 vectors produced by pass  2 Test12= 2.47D-14 2.08D-09 XBig12= 7.79D-01 1.25D-01.
     45 vectors produced by pass  3 Test12= 2.47D-14 2.08D-09 XBig12= 1.16D-02 1.73D-02.
     45 vectors produced by pass  4 Test12= 2.47D-14 2.08D-09 XBig12= 1.17D-04 1.66D-03.
     45 vectors produced by pass  5 Test12= 2.47D-14 2.08D-09 XBig12= 1.14D-06 1.50D-04.
     39 vectors produced by pass  6 Test12= 2.47D-14 2.08D-09 XBig12= 7.65D-09 8.42D-06.
     20 vectors produced by pass  7 Test12= 2.47D-14 2.08D-09 XBig12= 6.23D-11 7.07D-07.
      4 vectors produced by pass  8 Test12= 2.47D-14 2.08D-09 XBig12= 5.91D-13 6.45D-08.
      2 vectors produced by pass  9 Test12= 2.47D-14 2.08D-09 XBig12= 5.67D-15 6.97D-09.
      2 vectors produced by pass 10 Test12= 2.47D-14 2.08D-09 XBig12= 1.25D-15 6.62D-09.
      1 vectors produced by pass 11 Test12= 2.47D-14 2.08D-09 XBig12= 2.50D-16 2.50D-09.
 InvSVY:  IOpt=1 It=  1 EMax= 7.11D-15
 Solved reduced A of dimension   338 with    48 vectors.
 Isotropic polarizability for W=    0.000000       73.69 Bohr**3.
 End of Minotr F.D. properties file   721 does not exist.
 End of Minotr F.D. properties file   722 does not exist.
 End of Minotr F.D. properties file   788 does not exist.

 **********************************************************************

            Population analysis using the SCF density.

 **********************************************************************

 Orbital symmetries:
 Alpha Orbitals:
       Occupied  (A) (A) (A) (A) (A) (A) (A) (A) (A) (A) (A) (A)
                 (A) (A) (A) (A) (A) (A) (A) (A) (A) (A) (A) (A)
                 (A) (A) (A) (A) (A) (A) (A)
       Virtual   (A) (A) (A) (A) (A) (A) (A) (A) (A) (A) (A) (A)
                 (A) (A) (A) (A) (A) (A) (A) (A) (A) (A) (A) (A)
                 (A) (A) (A) (A) (A) (A) (A) (A) (A) (A) (A) (A)
                 (A) (A) (A) (A) (A) (A) (A) (A) (A) (A) (A) (A)
                 (A) (A) (A) (A) (A) (A) (A) (A) (A) (A) (A) (A)
                 (A) (A) (A) (A) (A) (A) (A) (A) (A) (A) (A) (A)
                 (A) (A) (A) (A) (A) (A) (A) (A) (A) (A) (A) (A)
                 (A) (A) (A) (A) (A) (A) (A) (A) (A) (A) (A) (A)
                 (A) (A) (A) (A) (A) (A) (A) (A) (A) (A) (A) (A)
                 (A) (A) (A) (A) (A) (A) (A) (A) (A) (A) (A) (A)
                 (A) (A) (A) (A) (A) (A) (A) (A) (A) (A) (A) (A)
                 (A) (A) (A) (A) (A) (A) (A) (A) (A) (A) (A) (A)
                 (A) (A) (A) (A) (A) (A) (A) (A) (A) (A) (A) (A)
                 (A) (A) (A) (A) (A) (A) (A) (A) (A) (A) (A) (A)
                 (A) (A) (A) (A) (A) (A) (A) (A) (A) (A) (A) (A)
                 (A) (A) (A) (A) (A) (A) (A) (A) (A) (A) (A) (A)
                 (A) (A)
 Beta  Orbitals:
       Occupied  (A) (A) (A) (A) (A) (A) (A) (A) (A) (A) (A) (A)
                 (A) (A) (A) (A) (A) (A) (A) (A) (A) (A) (A) (A)
                 (A) (A) (A) (A) (A) (A)
       Virtual   (A) (A) (A) (A) (A) (A) (A) (A) (A) (A) (A) (A)
                 (A) (A) (A) (A) (A) (A) (A) (A) (A) (A) (A) (A)
                 (A) (A) (A) (A) (A) (A) (A) (A) (A) (A) (A) (A)
                 (A) (A) (A) (A) (A) (A) (A) (A) (A) (A) (A) (A)
                 (A) (A) (A) (A) (A) (A) (A) (A) (A) (A) (A) (A)
                 (A) (A) (A) (A) (A) (A) (A) (A) (A) (A) (A) (A)
                 (A) (A) (A) (A) (A) (A) (A) (A) (A) (A) (A) (A)
                 (A) (A) (A) (A) (A) (A) (A) (A) (A) (A) (A) (A)
                 (A) (A) (A) (A) (A) (A) (A) (A) (A) (A) (A) (A)
                 (A) (A) (A) (A) (A) (A) (A) (A) (A) (A) (A) (A)
                 (A) (A) (A) (A) (A) (A) (A) (A) (A) (A) (A) (A)
                 (A) (A) (A) (A) (A) (A) (A) (A) (A) (A) (A) (A)
                 (A) (A) (A) (A) (A) (A) (A) (A) (A) (A) (A) (A)
                 (A) (A) (A) (A) (A) (A) (A) (A) (A) (A) (A) (A)
                 (A) (A) (A) (A) (A) (A) (A) (A) (A) (A) (A) (A)
                 (A) (A) (A) (A) (A) (A) (A) (A) (A) (A) (A) (A)
                 (A) (A) (A)
 The electronic state is 2-A.
 Alpha  occ. eigenvalues --  -19.68385 -19.68163 -19.63175 -10.71146 -10.61061
 Alpha  occ. eigenvalues --  -10.59470 -10.58780 -10.54457  -1.25471  -1.16947
 Alpha  occ. eigenvalues --   -1.14040  -0.90771  -0.88530  -0.77722  -0.74175
 Alpha  occ. eigenvalues --   -0.64473  -0.62530  -0.58526  -0.57122  -0.56132
 Alpha  occ. eigenvalues --   -0.53270  -0.51238  -0.49528  -0.47403  -0.46078
 Alpha  occ. eigenvalues --   -0.43818  -0.42147  -0.39884  -0.38626  -0.37469
 Alpha  occ. eigenvalues --   -0.35630
 Alpha virt. eigenvalues --   -0.02255  -0.00852   0.00487   0.00788   0.02140
 Alpha virt. eigenvalues --    0.02338   0.03780   0.04376   0.05630   0.06015
 Alpha virt. eigenvalues --    0.06653   0.07849   0.08560   0.09012   0.09372
 Alpha virt. eigenvalues --    0.10565   0.10988   0.11734   0.12214   0.13508
 Alpha virt. eigenvalues --    0.13533   0.14082   0.14265   0.15063   0.16047
 Alpha virt. eigenvalues --    0.16838   0.17160   0.18056   0.19128   0.19420
 Alpha virt. eigenvalues --    0.20044   0.21391   0.22367   0.23957   0.23992
 Alpha virt. eigenvalues --    0.25005   0.26426   0.27217   0.28091   0.28961
 Alpha virt. eigenvalues --    0.30165   0.30938   0.31727   0.32280   0.33420
 Alpha virt. eigenvalues --    0.34277   0.35184   0.35720   0.36859   0.38921
 Alpha virt. eigenvalues --    0.40214   0.42217   0.44941   0.46199   0.50038
 Alpha virt. eigenvalues --    0.50765   0.52024   0.54302   0.57281   0.57752
 Alpha virt. eigenvalues --    0.60845   0.61302   0.62583   0.64112   0.67126
 Alpha virt. eigenvalues --    0.67690   0.68990   0.70917   0.71647   0.72018
 Alpha virt. eigenvalues --    0.73019   0.74755   0.77376   0.78912   0.82171
 Alpha virt. eigenvalues --    0.85941   0.86170   0.90938   0.96704   1.00010
 Alpha virt. eigenvalues --    1.01456   1.02853   1.05256   1.07081   1.08298
 Alpha virt. eigenvalues --    1.12503   1.14934   1.18193   1.21848   1.22198
 Alpha virt. eigenvalues --    1.24052   1.26096   1.28332   1.29979   1.31873
 Alpha virt. eigenvalues --    1.33055   1.33496   1.36614   1.41775   1.44762
 Alpha virt. eigenvalues --    1.46401   1.46978   1.48824   1.50208   1.54362
 Alpha virt. eigenvalues --    1.58502   1.60296   1.61532   1.61779   1.64086
 Alpha virt. eigenvalues --    1.66220   1.69789   1.71154   1.71537   1.76783
 Alpha virt. eigenvalues --    1.78482   1.79669   1.81314   1.83216   1.86408
 Alpha virt. eigenvalues --    1.91087   1.93725   1.99477   2.01839   2.04116
 Alpha virt. eigenvalues --    2.07959   2.09091   2.13709   2.20103   2.30801
 Alpha virt. eigenvalues --    2.34682   2.40131   2.47203   2.50927   2.51607
 Alpha virt. eigenvalues --    2.54725   2.55353   2.57686   2.62319   2.63496
 Alpha virt. eigenvalues --    2.65273   2.67774   2.70380   2.74028   2.75181
 Alpha virt. eigenvalues --    2.80331   2.82187   2.84463   2.87469   2.89960
 Alpha virt. eigenvalues --    2.94684   2.95569   2.98470   3.01177   3.05003
 Alpha virt. eigenvalues --    3.07482   3.10573   3.13719   3.15885   3.16475
 Alpha virt. eigenvalues --    3.23879   3.26436   3.32221   3.35329   3.41486
 Alpha virt. eigenvalues --    3.43126   3.51820   3.63266   3.75881   3.84562
 Alpha virt. eigenvalues --    3.85012   3.86315   3.87804   4.03549   4.13701
 Alpha virt. eigenvalues --    4.14546   4.30411   5.10449   5.12034   5.15321
 Alpha virt. eigenvalues --    5.16834   5.27520   5.42906   5.54343   5.68814
 Alpha virt. eigenvalues --    5.98194  23.61694  23.91815  23.94265  24.04617
 Alpha virt. eigenvalues --   25.10367  49.93911  49.99314  50.12315
  Beta  occ. eigenvalues --  -19.68383 -19.66644 -19.63115 -10.71166 -10.61062
  Beta  occ. eigenvalues --  -10.59489 -10.58622 -10.54457  -1.25421  -1.16828
  Beta  occ. eigenvalues --   -1.07150  -0.90061  -0.88521  -0.77628  -0.74055
  Beta  occ. eigenvalues --   -0.64338  -0.62343  -0.58413  -0.56908  -0.53363
  Beta  occ. eigenvalues --   -0.53062  -0.49696  -0.47313  -0.46056  -0.42578
  Beta  occ. eigenvalues --   -0.40627  -0.40279  -0.38945  -0.37609  -0.36844
  Beta virt. eigenvalues --   -0.10550  -0.01501  -0.00610   0.00650   0.01102
  Beta virt. eigenvalues --    0.02340   0.02443   0.04075   0.04521   0.05857
  Beta virt. eigenvalues --    0.06142   0.06709   0.07953   0.08817   0.09129
  Beta virt. eigenvalues --    0.09744   0.10515   0.11221   0.11776   0.12333
  Beta virt. eigenvalues --    0.13555   0.13745   0.14202   0.14353   0.15126
  Beta virt. eigenvalues --    0.16411   0.16903   0.17250   0.18198   0.19296
  Beta virt. eigenvalues --    0.19588   0.20223   0.21453   0.22288   0.23626
  Beta virt. eigenvalues --    0.24089   0.24697   0.26572   0.27368   0.28135
  Beta virt. eigenvalues --    0.29031   0.30319   0.31044   0.31864   0.32310
  Beta virt. eigenvalues --    0.33472   0.34296   0.35148   0.35752   0.36857
  Beta virt. eigenvalues --    0.39008   0.40355   0.42397   0.44988   0.46193
  Beta virt. eigenvalues --    0.50117   0.50824   0.52165   0.54411   0.57798
  Beta virt. eigenvalues --    0.58102   0.60827   0.61705   0.62578   0.64351
  Beta virt. eigenvalues --    0.67375   0.67772   0.69028   0.71005   0.71682
  Beta virt. eigenvalues --    0.72132   0.73201   0.74870   0.77452   0.78983
  Beta virt. eigenvalues --    0.82225   0.86136   0.86283   0.90994   0.96972
  Beta virt. eigenvalues --    1.00415   1.02410   1.03163   1.05540   1.07537
  Beta virt. eigenvalues --    1.09517   1.13388   1.15502   1.18591   1.22112
  Beta virt. eigenvalues --    1.22447   1.24481   1.26548   1.28749   1.30164
  Beta virt. eigenvalues --    1.31888   1.33606   1.33990   1.36698   1.41860
  Beta virt. eigenvalues --    1.45035   1.46792   1.47401   1.49938   1.50247
  Beta virt. eigenvalues --    1.54877   1.58513   1.60539   1.61558   1.61859
  Beta virt. eigenvalues --    1.64377   1.66507   1.69868   1.71329   1.71749
  Beta virt. eigenvalues --    1.76956   1.78832   1.80186   1.81427   1.83410
  Beta virt. eigenvalues --    1.86510   1.91194   1.93818   1.99489   2.02072
  Beta virt. eigenvalues --    2.04196   2.09062   2.09401   2.13734   2.20095
  Beta virt. eigenvalues --    2.30797   2.34688   2.40424   2.47382   2.50931
  Beta virt. eigenvalues --    2.51641   2.54770   2.55429   2.57894   2.62416
  Beta virt. eigenvalues --    2.63699   2.65283   2.67834   2.70494   2.74049
  Beta virt. eigenvalues --    2.75154   2.80363   2.82604   2.85909   2.89497
  Beta virt. eigenvalues --    2.91199   2.95494   2.98250   2.99844   3.01753
  Beta virt. eigenvalues --    3.05668   3.08959   3.11404   3.14268   3.18027
  Beta virt. eigenvalues --    3.19135   3.24256   3.26595   3.32256   3.35382
  Beta virt. eigenvalues --    3.41552   3.43267   3.51970   3.63357   3.75977
  Beta virt. eigenvalues --    3.84596   3.85277   3.87500   3.89732   4.03583
  Beta virt. eigenvalues --    4.13707   4.14845   4.30418   5.13145   5.14748
  Beta virt. eigenvalues --    5.17009   5.20246   5.27646   5.42946   5.56723
  Beta virt. eigenvalues --    5.68877   5.98222  23.61738  23.91815  23.94264
  Beta virt. eigenvalues --   24.04617  25.10503  49.93421  49.99301  50.12248
          Condensed to atoms (all electrons):
               1          2          3          4          5          6
     1  C   22.420303   0.673389  -9.259912  -6.493263  -0.084614   0.228005
     2  H    0.673389   0.425399  -0.289745  -0.025211  -0.003844  -0.002188
     3  C   -9.259912  -0.289745  13.503243   0.802504  -0.065195  -0.228062
     4  C   -6.493263  -0.025211   0.802504  11.540068   0.479368  -0.074420
     5  O   -0.084614  -0.003844  -0.065195   0.479368   8.002491  -0.085683
     6  O    0.228005  -0.002188  -0.228062  -0.074420  -0.085683   8.177859
     7  C   -0.380558  -0.007622   0.170704   0.101536  -0.007582   0.236442
     8  C    0.394756   0.004867  -0.171170  -0.212148   0.012121  -0.120726
     9  H   -0.108881  -0.003769   0.068937   0.020843  -0.000003  -0.017459
    10  H   -0.089252  -0.001985   0.020850   0.055947   0.000027  -0.074585
    11  H    0.012613   0.000357  -0.002937  -0.013292   0.000362  -0.007412
    12  H   -0.101770  -0.003475   0.081471   0.035208  -0.000267  -0.012209
    13  H    0.019571   0.001068  -0.020048  -0.004112   0.000498   0.015961
    14  O    0.120919  -0.001117  -0.080523  -0.104261  -0.002443   0.002738
    15  H    0.096897   0.005067  -0.048999  -0.031169   0.000028   0.000037
               7          8          9         10         11         12
     1  C   -0.380558   0.394756  -0.108881  -0.089252   0.012613  -0.101770
     2  H   -0.007622   0.004867  -0.003769  -0.001985   0.000357  -0.003475
     3  C    0.170704  -0.171170   0.068937   0.020850  -0.002937   0.081471
     4  C    0.101536  -0.212148   0.020843   0.055947  -0.013292   0.035208
     5  O   -0.007582   0.012121  -0.000003   0.000027   0.000362  -0.000267
     6  O    0.236442  -0.120726  -0.017459  -0.074585  -0.007412  -0.012209
     7  C    5.530417  -0.056542   0.411246   0.454644  -0.051950   0.028008
     8  C   -0.056542   5.513286  -0.050161  -0.073306   0.444742   0.326464
     9  H    0.411246  -0.050161   0.514795  -0.031213   0.005646  -0.011637
    10  H    0.454644  -0.073306  -0.031213   0.530222  -0.013063   0.017338
    11  H   -0.051950   0.444742   0.005646  -0.013063   0.521358  -0.054020
    12  H    0.028008   0.326464  -0.011637   0.017338  -0.054020   0.593617
    13  H   -0.058445   0.420940  -0.010395   0.000669  -0.032073  -0.032320
    14  O   -0.001898   0.000378   0.010297   0.001468   0.000083   0.000377
    15  H    0.002365  -0.001227  -0.004840  -0.000512   0.000065  -0.000194
              13         14         15
     1  C    0.019571   0.120919   0.096897
     2  H    0.001068  -0.001117   0.005067
     3  C   -0.020048  -0.080523  -0.048999
     4  C   -0.004112  -0.104261  -0.031169
     5  O    0.000498  -0.002443   0.000028
     6  O    0.015961   0.002738   0.000037
     7  C   -0.058445  -0.001898   0.002365
     8  C    0.420940   0.000378  -0.001227
     9  H   -0.010395   0.010297  -0.004840
    10  H    0.000669   0.001468  -0.000512
    11  H   -0.032073   0.000083   0.000065
    12  H   -0.032320   0.000377  -0.000194
    13  H    0.535772  -0.001344   0.000107
    14  O   -0.001344   8.056369   0.269807
    15  H    0.000107   0.269807   0.473430
          Atomic-Atomic Spin Densities.
               1          2          3          4          5          6
     1  C    0.710526   0.059072  -0.664250  -0.181729  -0.029594  -0.003643
     2  H    0.059072   0.005370  -0.043949  -0.015407  -0.000621  -0.000036
     3  C   -0.664250  -0.043949   0.805272   0.228909   0.002534  -0.010128
     4  C   -0.181729  -0.015407   0.228909  -0.068390   0.015925   0.015910
     5  O   -0.029594  -0.000621   0.002534   0.015925   0.039519   0.000209
     6  O   -0.003643  -0.000036  -0.010128   0.015910   0.000209  -0.004827
     7  C   -0.014845  -0.000312   0.031358  -0.009695   0.000690   0.005172
     8  C    0.005728   0.000049  -0.010480   0.002139  -0.000033  -0.002372
     9  H   -0.024286  -0.000945   0.015077   0.011807   0.000293  -0.000210
    10  H   -0.009900  -0.000175   0.006266   0.005404   0.000046   0.001284
    11  H    0.004376   0.000115  -0.003662  -0.001137  -0.000117  -0.000651
    12  H   -0.009459   0.000127   0.005292   0.003846   0.000146   0.000962
    13  H    0.000832  -0.000073   0.001498  -0.001678   0.000002   0.000119
    14  O    0.155792   0.009295  -0.228489  -0.031484  -0.000634  -0.000736
    15  H   -0.024750  -0.001688   0.023249   0.006512   0.000138  -0.000024
               7          8          9         10         11         12
     1  C   -0.014845   0.005728  -0.024286  -0.009900   0.004376  -0.009459
     2  H   -0.000312   0.000049  -0.000945  -0.000175   0.000115   0.000127
     3  C    0.031358  -0.010480   0.015077   0.006266  -0.003662   0.005292
     4  C   -0.009695   0.002139   0.011807   0.005404  -0.001137   0.003846
     5  O    0.000690  -0.000033   0.000293   0.000046  -0.000117   0.000146
     6  O    0.005172  -0.002372  -0.000210   0.001284  -0.000651   0.000962
     7  C   -0.015213   0.009714  -0.003427  -0.003111   0.001634  -0.002853
     8  C    0.009714  -0.007248  -0.000464   0.001836  -0.001569   0.003058
     9  H   -0.003427  -0.000464   0.008352   0.001307  -0.000429   0.000239
    10  H   -0.003111   0.001836   0.001307  -0.000891   0.000494  -0.000987
    11  H    0.001634  -0.001569  -0.000429   0.000494  -0.000675   0.000983
    12  H   -0.002853   0.003058   0.000239  -0.000987   0.000983  -0.001757
    13  H   -0.001088   0.001133  -0.000088  -0.000324   0.000391  -0.000621
    14  O    0.003653  -0.000452  -0.007966  -0.000945   0.000110  -0.000071
    15  H   -0.000596   0.000188   0.001318   0.000207  -0.000038   0.000052
              13         14         15
     1  C    0.000832   0.155792  -0.024750
     2  H   -0.000073   0.009295  -0.001688
     3  C    0.001498  -0.228489   0.023249
     4  C   -0.001678  -0.031484   0.006512
     5  O    0.000002  -0.000634   0.000138
     6  O    0.000119  -0.000736  -0.000024
     7  C   -0.001088   0.003653  -0.000596
     8  C    0.001133  -0.000452   0.000188
     9  H   -0.000088  -0.007966   0.001318
    10  H   -0.000324  -0.000945   0.000207
    11  H    0.000391   0.000110  -0.000038
    12  H   -0.000621  -0.000071   0.000052
    13  H   -0.000216   0.000149   0.000003
    14  O    0.000149   0.951830   0.010175
    15  H    0.000003   0.010175  -0.030836
 Mulliken charges and spin densities:
               1          2
     1  C   -1.448202  -0.026129
     2  H    0.228809   0.010821
     3  C    1.518881   0.158496
     4  C   -0.077600  -0.019069
     5  O   -0.245263   0.028503
     6  O   -0.038299   0.001028
     7  C   -0.370765   0.001081
     8  C   -0.432274   0.001227
     9  H    0.206596   0.000578
    10  H    0.202750   0.000510
    11  H    0.189519  -0.000176
    12  H    0.133411  -0.001042
    13  H    0.164150   0.000036
    14  O   -0.270849   0.860226
    15  H    0.239138  -0.016091
 Sum of Mulliken charges =  -0.00000   1.00000
 Mulliken charges and spin densities with hydrogens summed into heavy atoms:
               1          2
     1  C   -1.219393  -0.015308
     3  C    1.518881   0.158496
     4  C   -0.077600  -0.019069
     5  O   -0.245263   0.028503
     6  O   -0.038299   0.001028
     7  C    0.038580   0.002168
     8  C    0.054805   0.000045
    14  O   -0.031711   0.844135
 APT charges:
               1
     1  C   -0.320799
     2  H    0.239945
     3  C   -0.230556
     4  C    1.505883
     5  O   -0.845971
     6  O   -0.913642
     7  C    0.479405
     8  C   -0.024265
     9  H    0.002343
    10  H   -0.009937
    11  H    0.013309
    12  H    0.009354
    13  H    0.011994
    14  O   -0.181528
    15  H    0.264464
 Sum of APT charges =   0.00000
 APT charges with hydrogens summed into heavy atoms:
               1
     1  C   -0.080854
     3  C   -0.230556
     4  C    1.505883
     5  O   -0.845971
     6  O   -0.913642
     7  C    0.471812
     8  C    0.010392
    14  O    0.082936
 Electronic spatial extent (au):  <R**2>=           1072.4369
 Charge=             -0.0000 electrons
 Dipole moment (field-independent basis, Debye):
    X=             -1.1713    Y=             -3.2072    Z=              0.4292  Tot=              3.4413
 Quadrupole moment (field-independent basis, Debye-Ang):
   XX=            -43.3258   YY=            -57.0018   ZZ=            -43.9045
   XY=             -6.3042   XZ=             -0.2877   YZ=             -1.1386
 Traceless Quadrupole moment (field-independent basis, Debye-Ang):
   XX=              4.7516   YY=             -8.9244   ZZ=              4.1729
   XY=             -6.3042   XZ=             -0.2877   YZ=             -1.1386
 Octapole moment (field-independent basis, Debye-Ang**2):
  XXX=            -12.5819  YYY=            -22.3111  ZZZ=             -8.6322  XYY=              4.0060
  XXY=              0.7058  XXZ=              1.6815  XZZ=            -10.6197  YZZ=             -0.9915
  YYZ=             -1.3103  XYZ=              7.8064
 Hexadecapole moment (field-independent basis, Debye-Ang**3):
 XXXX=           -628.0833 YYYY=           -560.7279 ZZZZ=           -183.9379 XXXY=             -7.0774
 XXXZ=             -1.7150 YYYX=             -7.6598 YYYZ=             -1.2660 ZZZX=              3.2745
 ZZZY=              0.3345 XXYY=           -209.1949 XXZZ=           -110.1599 YYZZ=           -116.7194
 XXYZ=             -8.3047 YYXZ=             -1.3083 ZZXY=              6.5040
 N-N= 3.562100850563D+02 E-N=-1.696825300766D+03  KE= 4.188580172227D+02
  Exact polarizability:  80.179   8.609  78.712  -0.653   3.554  62.166
 Approx polarizability:  88.293  15.021  94.091  -6.798   0.683  70.971
                          Isotropic Fermi Contact Couplings
        Atom                 a.u.       MegaHertz       Gauss      10(-4) cm-1
     1  C(13)              0.01368      15.37686       5.48685       5.12917
     2  H(1)               0.00426      19.05571       6.79955       6.35630
     3  C(13)              0.03646      40.98815      14.62559      13.67217
     4  C(13)             -0.01024     -11.50872      -4.10660      -3.83889
     5  O(17)              0.00770      -4.66724      -1.66539      -1.55682
     6  O(17)             -0.00097       0.58574       0.20901       0.19538
     7  C(13)             -0.00009      -0.10181      -0.03633      -0.03396
     8  C(13)             -0.00005      -0.05949      -0.02123      -0.01984
     9  H(1)               0.00013       0.57420       0.20489       0.19153
    10  H(1)               0.00009       0.38594       0.13771       0.12874
    11  H(1)              -0.00001      -0.04097      -0.01462      -0.01367
    12  H(1)               0.00004       0.16491       0.05884       0.05501
    13  H(1)              -0.00001      -0.04181      -0.01492      -0.01395
    14  O(17)              0.12986     -78.72222     -28.09005     -26.25891
    15  H(1)              -0.01448     -64.73170     -23.09788     -21.59217
 --------------------------------------------------------
       Center         ----  Spin Dipole Couplings  ----
                      3XX-RR        3YY-RR        3ZZ-RR
 --------------------------------------------------------
     1   Atom        0.006395     -0.012717      0.006322
     2   Atom       -0.007975     -0.007476      0.015451
     3   Atom       -0.093861     -0.023848      0.117709
     4   Atom        0.004757      0.007850     -0.012606
     5   Atom       -0.057033     -0.058020      0.115052
     6   Atom        0.014923     -0.003758     -0.011165
     7   Atom        0.005287     -0.002471     -0.002816
     8   Atom        0.002606     -0.001286     -0.001320
     9   Atom        0.012835     -0.005189     -0.007646
    10   Atom        0.003195     -0.001622     -0.001572
    11   Atom        0.001846     -0.000874     -0.000972
    12   Atom        0.001866     -0.001028     -0.000838
    13   Atom        0.001567     -0.000356     -0.001211
    14   Atom       -0.436674     -0.179307      0.615981
    15   Atom       -0.088255      0.087928      0.000327
 --------------------------------------------------------
                        XY            XZ            YZ
 --------------------------------------------------------
     1   Atom        0.025371     -0.029201      0.003114
     2   Atom       -0.001888     -0.003998      0.004751
     3   Atom        0.039952      0.103494      0.147102
     4   Atom        0.005852     -0.007847     -0.000422
     5   Atom       -0.001035      0.031149     -0.025481
     6   Atom        0.006914      0.003174      0.003735
     7   Atom       -0.001957     -0.000895      0.000830
     8   Atom       -0.001561      0.000973      0.000006
     9   Atom       -0.004334     -0.001107      0.002451
    10   Atom       -0.000783     -0.001203      0.000482
    11   Atom       -0.000581      0.000728     -0.000039
    12   Atom       -0.001846      0.002889     -0.000791
    13   Atom       -0.001599      0.001016     -0.000392
    14   Atom        1.401186      1.711883      1.894099
    15   Atom       -0.023930      0.057123     -0.096971
 --------------------------------------------------------


 ---------------------------------------------------------------------------------
              Anisotropic Spin Dipole Couplings in Principal Axis System
 ---------------------------------------------------------------------------------

       Atom             a.u.   MegaHertz   Gauss  10(-4) cm-1        Axes

              Baa    -0.0398    -5.347    -1.908    -1.784 -0.6296  0.6394 -0.4413
     1 C(13)  Bbb    -0.0010    -0.131    -0.047    -0.044  0.2423  0.7013  0.6704
              Bcc     0.0408     5.478     1.955     1.827  0.7382  0.3151 -0.5964
 
              Baa    -0.0096    -5.139    -1.834    -1.714  0.7430  0.6692 -0.0083
     2 H(1)   Bbb    -0.0075    -4.001    -1.428    -1.335 -0.6476  0.7159 -0.2610
              Bcc     0.0171     9.140     3.261     3.049 -0.1687  0.1993  0.9653
 
              Baa    -0.1438   -19.295    -6.885    -6.436  0.7686  0.3775 -0.5165
     3 C(13)  Bbb    -0.1015   -13.616    -4.859    -4.542 -0.5614  0.7850 -0.2618
              Bcc     0.2453    32.912    11.744    10.978  0.3067  0.4912  0.8153
 
              Baa    -0.0158    -2.115    -0.755    -0.705  0.3752 -0.0765  0.9238
     4 C(13)  Bbb     0.0023     0.306     0.109     0.102 -0.6414  0.6981  0.3183
              Bcc     0.0135     1.809     0.645     0.603  0.6692  0.7119 -0.2129
 
              Baa    -0.0654     4.732     1.689     1.579  0.7294 -0.6486 -0.2175
     5 O(17)  Bbb    -0.0586     4.242     1.514     1.415  0.6629  0.7486 -0.0091
              Bcc     0.1240    -8.975    -3.202    -2.994  0.1687 -0.1376  0.9760
 
              Baa    -0.0127     0.921     0.329     0.307 -0.0122 -0.3765  0.9263
     6 O(17)  Bbb    -0.0051     0.368     0.131     0.123 -0.3550  0.8677  0.3480
              Bcc     0.0178    -1.289    -0.460    -0.430  0.9348  0.3246  0.1442
 
              Baa    -0.0035    -0.475    -0.169    -0.158 -0.0846 -0.7039  0.7053
     7 C(13)  Bbb    -0.0023    -0.315    -0.112    -0.105  0.2534  0.6693  0.6984
              Bcc     0.0059     0.789     0.282     0.263  0.9636 -0.2378 -0.1218
 
              Baa    -0.0020    -0.273    -0.097    -0.091  0.3686  0.7766 -0.5109
     8 C(13)  Bbb    -0.0013    -0.175    -0.062    -0.058  0.0097  0.5464  0.8375
              Bcc     0.0033     0.448     0.160     0.149  0.9295 -0.3137  0.1938
 
              Baa    -0.0093    -4.937    -1.762    -1.647 -0.0707 -0.5693  0.8191
     9 H(1)   Bbb    -0.0047    -2.504    -0.893    -0.835  0.2311  0.7895  0.5686
              Bcc     0.0139     7.441     2.655     2.482  0.9704 -0.2295 -0.0758
 
              Baa    -0.0021    -1.121    -0.400    -0.374  0.0788 -0.6406  0.7639
    10 H(1)   Bbb    -0.0015    -0.814    -0.290    -0.272  0.2773  0.7501  0.6004
              Bcc     0.0036     1.935     0.690     0.645  0.9575 -0.1645 -0.2368
 
              Baa    -0.0012    -0.637    -0.227    -0.213 -0.2860 -0.4123  0.8650
    11 H(1)   Bbb    -0.0009    -0.501    -0.179    -0.167  0.0690  0.8915  0.4477
              Bcc     0.0021     1.138     0.406     0.380  0.9557 -0.1877  0.2266
 
              Baa    -0.0028    -1.477    -0.527    -0.493 -0.5849 -0.2730  0.7638
    12 H(1)   Bbb    -0.0017    -0.884    -0.316    -0.295  0.1274  0.8990  0.4189
              Bcc     0.0044     2.361     0.843     0.788  0.8010 -0.3423  0.4911
 
              Baa    -0.0016    -0.842    -0.300    -0.281 -0.4162 -0.2658  0.8695
    13 H(1)   Bbb    -0.0012    -0.633    -0.226    -0.211  0.3355  0.8440  0.4186
              Bcc     0.0028     1.475     0.526     0.492  0.8451 -0.4659  0.2621
 
              Baa    -1.7208   124.513    44.429    41.533 -0.3783  0.8350 -0.3996
    14 O(17)  Bbb    -1.7012   123.100    43.925    41.062  0.7807  0.0558 -0.6224
              Bcc     3.4220  -247.613   -88.354   -82.595  0.4974  0.5475  0.6730
 
              Baa    -0.1194   -63.700   -22.730   -21.248  0.8417 -0.1460 -0.5199
    15 H(1)   Bbb    -0.0418   -22.324    -7.966    -7.446  0.4997  0.5758  0.6472
              Bcc     0.1612    86.024    30.695    28.694 -0.2048  0.8045 -0.5576
 

 ---------------------------------------------------------------------------------

 Calling FoFJK, ICntrl=    100127 FMM=F ISym2X=0 I1Cent= 0 IOpClX= 1 NMat=1 NMatS=1 NMatT=0.
 Full mass-weighted force constant matrix:
 Low frequencies --- -111.7390  -65.0156  -39.5125   -7.0462    0.0005    0.0007
 Low frequencies ---    0.0008   27.0069   71.2256
 ******    2 imaginary frequencies (negative Signs) ****** 
 Diagonal vibrational polarizability:
      115.3659545      22.7714737      97.5806766
 Harmonic frequencies (cm**-1), IR intensities (KM/Mole), Raman scattering
 activities (A**4/AMU), depolarization ratios for plane and unpolarized
 incident light, reduced masses (AMU), force constants (mDyne/A),
 and normal coordinates:
                      1                      2                      3
                      A                      A                      A
 Frequencies --   -111.7297               -47.7369                67.6453
 Red. masses --     12.4246                 5.9498                 9.8113
 Frc consts  --      0.0914                 0.0080                 0.0265
 IR Inten    --     18.1042                 6.6896                 6.1482
  Atom  AN      X      Y      Z        X      Y      Z        X      Y      Z
     1   6    -0.19  -0.29  -0.59     0.12  -0.24   0.08    -0.06   0.03   0.14
     2   1    -0.04  -0.05  -0.16     0.20  -0.35   0.11    -0.09   0.02   0.09
     3   6    -0.05  -0.04  -0.14     0.06  -0.12   0.08    -0.04   0.04   0.20
     4   6    -0.01  -0.02  -0.02    -0.04  -0.06  -0.03    -0.09  -0.03   0.02
     5   8    -0.03  -0.01   0.03    -0.15  -0.05  -0.16    -0.05  -0.03  -0.06
     6   8     0.03   0.01   0.03     0.00  -0.03  -0.00    -0.21  -0.09  -0.10
     7   6     0.03   0.00  -0.02     0.09  -0.04   0.08    -0.22  -0.09   0.01
     8   6    -0.02  -0.02  -0.01     0.11   0.06   0.11    -0.04  -0.00  -0.03
     9   1     0.04   0.01  -0.08     0.10  -0.10   0.08    -0.23  -0.10   0.16
    10   1     0.07   0.03  -0.00     0.11  -0.05   0.10    -0.32  -0.14  -0.05
    11   1    -0.03  -0.02   0.04     0.09   0.13   0.09    -0.02  -0.00  -0.19
    12   1    -0.05  -0.04  -0.03     0.09   0.08   0.09     0.08   0.06   0.03
    13   1    -0.02  -0.02  -0.03     0.17   0.06   0.17    -0.05  -0.00   0.04
    14   8     0.17   0.28   0.54    -0.13   0.36  -0.12     0.62   0.16  -0.10
    15   1     0.19   0.00   0.11    -0.11   0.51   0.10     0.21   0.19   0.10
                      4                      5                      6
                      A                      A                      A
 Frequencies --     77.7439               105.6358               178.8476
 Red. masses --      3.9307                 3.5571                 2.6772
 Frc consts  --      0.0140                 0.0234                 0.0505
 IR Inten    --      1.2484                 0.2811                 2.2700
  Atom  AN      X      Y      Z        X      Y      Z        X      Y      Z
     1   6    -0.11   0.04  -0.08    -0.14   0.14  -0.02    -0.12   0.19   0.07
     2   1    -0.16   0.11  -0.11    -0.20   0.23  -0.05    -0.24   0.39   0.05
     3   6    -0.04  -0.01  -0.02    -0.06   0.03   0.01     0.02  -0.12   0.01
     4   6     0.00  -0.05   0.02    -0.04  -0.00   0.02    -0.00  -0.10  -0.00
     5   8     0.13  -0.06   0.18    -0.09   0.00  -0.10    -0.09  -0.09   0.04
     6   8    -0.12  -0.07  -0.16     0.05  -0.02   0.18     0.04   0.00  -0.06
     7   6    -0.03  -0.07   0.05     0.01  -0.02   0.05     0.16  -0.00  -0.09
     8   6     0.23   0.18   0.05     0.26  -0.15  -0.12    -0.03   0.02   0.00
     9   1    -0.03  -0.16   0.26    -0.03   0.02   0.24     0.20  -0.08  -0.27
    10   1    -0.15  -0.15  -0.00    -0.19   0.04  -0.10     0.34   0.06   0.01
    11   1     0.22   0.29  -0.18     0.30  -0.19  -0.30    -0.14   0.27   0.29
    12   1     0.35   0.29   0.09     0.45  -0.21   0.03    -0.32  -0.21  -0.11
    13   1     0.30   0.18   0.24     0.23  -0.15  -0.22     0.26   0.03  -0.10
    14   8    -0.08   0.02  -0.03    -0.02   0.03  -0.01     0.03   0.05   0.04
    15   1     0.10  -0.00  -0.14     0.02   0.01  -0.06     0.06   0.05   0.02
                      7                      8                      9
                      A                      A                      A
 Frequencies --    228.3520               233.2922               307.5264
 Red. masses --      1.2207                 1.3665                 2.6749
 Frc consts  --      0.0375                 0.0438                 0.1490
 IR Inten    --      0.7157                69.0440                22.4157
  Atom  AN      X      Y      Z        X      Y      Z        X      Y      Z
     1   6     0.02  -0.04  -0.01    -0.01  -0.01  -0.03    -0.07   0.01  -0.16
     2   1     0.05  -0.10  -0.02    -0.08   0.02  -0.13    -0.20   0.09  -0.31
     3   6    -0.02   0.06   0.02     0.07  -0.01   0.13     0.16  -0.02   0.26
     4   6    -0.01   0.03   0.01     0.02   0.00   0.04     0.07  -0.00   0.09
     5   8     0.05   0.03  -0.03    -0.03   0.01  -0.04    -0.01   0.01  -0.07
     6   8    -0.05  -0.02   0.02    -0.01   0.01  -0.02     0.01   0.01  -0.02
     7   6    -0.02  -0.02   0.02    -0.01   0.01  -0.01    -0.03   0.01  -0.01
     8   6     0.02  -0.02  -0.00    -0.02  -0.00  -0.01    -0.01   0.03  -0.01
     9   1    -0.01  -0.05   0.02    -0.01   0.00  -0.00    -0.04   0.04   0.00
    10   1    -0.01   0.01   0.01    -0.01   0.00  -0.01    -0.05  -0.01  -0.01
    11   1    -0.16   0.45   0.22    -0.00  -0.05  -0.02    -0.03   0.08  -0.02
    12   1    -0.26  -0.49  -0.03     0.00   0.03  -0.00    -0.02   0.02  -0.01
    13   1     0.56  -0.02  -0.24    -0.07  -0.00   0.00     0.03   0.03   0.01
    14   8    -0.01  -0.01  -0.00    -0.05  -0.01   0.01    -0.02  -0.05  -0.03
    15   1     0.06  -0.01  -0.04     0.87  -0.08  -0.42    -0.79  -0.02   0.27
                     10                     11                     12
                      A                      A                      A
 Frequencies --    362.1160               408.7527               554.9720
 Red. masses --      2.8329                 3.6941                 5.1696
 Frc consts  --      0.2189                 0.3637                 0.9381
 IR Inten    --      2.5953                 3.4495                14.9946
  Atom  AN      X      Y      Z        X      Y      Z        X      Y      Z
     1   6    -0.06  -0.04   0.01    -0.07  -0.05   0.05    -0.19  -0.10   0.11
     2   1    -0.02  -0.16  -0.03    -0.04  -0.12   0.05    -0.25  -0.03   0.09
     3   6    -0.11   0.15   0.11    -0.11   0.03   0.04    -0.11  -0.22   0.04
     4   6    -0.07   0.04   0.03    -0.01  -0.07   0.06    -0.03  -0.04  -0.01
     5   8     0.09   0.03  -0.04     0.12  -0.08  -0.10     0.25  -0.08  -0.14
     6   8    -0.14  -0.01  -0.03     0.07  -0.07   0.22     0.03   0.15  -0.08
     7   6     0.22  -0.03  -0.05    -0.02  -0.02  -0.17    -0.01   0.28   0.12
     8   6     0.04  -0.08   0.02    -0.04   0.22  -0.11    -0.01   0.00   0.01
     9   1     0.32  -0.26  -0.30    -0.02   0.01  -0.24    -0.04   0.33   0.24
    10   1     0.50   0.17   0.06     0.04   0.09  -0.17    -0.17   0.09   0.08
    11   1     0.12  -0.37   0.10    -0.10   0.41  -0.20     0.05  -0.21   0.11
    12   1     0.05   0.09  -0.04    -0.09   0.49  -0.23     0.05  -0.29   0.16
    13   1    -0.27  -0.08   0.05     0.08   0.21   0.30    -0.14   0.01  -0.43
    14   8    -0.01  -0.00   0.00    -0.00   0.00   0.00     0.01   0.00   0.00
    15   1    -0.09   0.01   0.05     0.10   0.00  -0.03     0.05   0.04   0.05
                     13                     14                     15
                      A                      A                      A
 Frequencies --    612.8248               631.8024               746.8229
 Red. masses --      1.0774                 5.7257                 1.3363
 Frc consts  --      0.2384                 1.3466                 0.4391
 IR Inten    --    104.6294                 4.7728                34.1145
  Atom  AN      X      Y      Z        X      Y      Z        X      Y      Z
     1   6    -0.01  -0.00  -0.02    -0.04  -0.05  -0.00     0.08  -0.11  -0.01
     2   1    -0.08   0.10  -0.05     0.10  -0.34  -0.02    -0.31   0.90   0.22
     3   6     0.01  -0.02  -0.02    -0.20   0.39   0.15    -0.00   0.06   0.02
     4   6     0.00   0.02  -0.00     0.06  -0.15  -0.07    -0.04  -0.02  -0.05
     5   8     0.00   0.02  -0.00    -0.11  -0.16   0.06     0.01  -0.03   0.01
     6   8    -0.01  -0.00   0.01     0.25   0.03  -0.15    -0.02  -0.00   0.02
     7   6    -0.01  -0.01  -0.00     0.03   0.05   0.02     0.00   0.03   0.01
     8   6     0.00  -0.00  -0.00    -0.00  -0.00   0.01    -0.00   0.01  -0.00
     9   1     0.00  -0.03  -0.03    -0.09   0.31   0.28     0.01   0.01  -0.01
    10   1     0.01   0.01   0.00    -0.26  -0.26  -0.07     0.02   0.04   0.02
    11   1    -0.00   0.01  -0.02    -0.01  -0.03   0.12     0.01  -0.02  -0.00
    12   1     0.01   0.01   0.00    -0.07  -0.08  -0.01     0.01  -0.02   0.01
    13   1     0.01  -0.00   0.02    -0.02   0.00  -0.10    -0.02   0.01  -0.05
    14   8    -0.01  -0.05  -0.02    -0.01  -0.02  -0.01    -0.00  -0.00  -0.02
    15   1     0.38   0.53   0.74     0.17   0.20   0.27    -0.04  -0.04  -0.07
                     16                     17                     18
                      A                      A                      A
 Frequencies --    755.1203               764.6323               794.6674
 Red. masses --      5.4553                 5.6099                 1.1849
 Frc consts  --      1.8327                 1.9325                 0.4409
 IR Inten    --      3.0011                 8.1311                75.0904
  Atom  AN      X      Y      Z        X      Y      Z        X      Y      Z
     1   6     0.17   0.11  -0.08    -0.02  -0.13   0.11    -0.07   0.01  -0.07
     2   1     0.27  -0.10  -0.14    -0.50   0.40  -0.17     0.48   0.09   0.86
     3   6     0.05   0.12  -0.16    -0.19  -0.01  -0.16     0.00  -0.01   0.02
     4   6     0.07  -0.19   0.28     0.28   0.07   0.40     0.03   0.01   0.05
     5   8    -0.05  -0.22  -0.08    -0.07   0.12  -0.11    -0.01   0.01  -0.01
     6   8    -0.18  -0.04   0.04     0.04   0.02  -0.14     0.00   0.00  -0.01
     7   6    -0.01   0.21   0.09     0.01  -0.11  -0.04     0.00  -0.01  -0.00
     8   6    -0.03   0.09  -0.04     0.01  -0.04   0.01     0.00  -0.00   0.00
     9   1     0.08  -0.01  -0.12    -0.04  -0.01   0.11    -0.00  -0.00   0.01
    10   1     0.19   0.27   0.20    -0.13  -0.15  -0.12    -0.01  -0.01  -0.01
    11   1     0.05  -0.12  -0.09    -0.02   0.04   0.09    -0.00   0.00   0.01
    12   1     0.12  -0.18   0.16    -0.10   0.07  -0.10    -0.01   0.01  -0.01
    13   1    -0.15   0.10  -0.46     0.05  -0.05   0.21     0.00  -0.00   0.02
    14   8     0.00  -0.00   0.01     0.01   0.01   0.01    -0.01  -0.02  -0.03
    15   1     0.02   0.05   0.08    -0.07  -0.06  -0.07     0.04   0.02   0.01
                     19                     20                     21
                      A                      A                      A
 Frequencies --    817.2294               951.0419              1103.5922
 Red. masses --      1.1498                 2.2685                 3.7770
 Frc consts  --      0.4524                 1.2089                 2.7103
 IR Inten    --      5.0721                11.6186                56.9600
  Atom  AN      X      Y      Z        X      Y      Z        X      Y      Z
     1   6     0.02   0.01  -0.01     0.04   0.02  -0.02     0.05   0.03  -0.03
     2   1     0.02   0.00  -0.02     0.05   0.03  -0.03     0.05   0.04  -0.02
     3   6     0.02  -0.01  -0.01     0.02   0.02  -0.01     0.02   0.00  -0.01
     4   6    -0.02  -0.01   0.01    -0.08  -0.05   0.04    -0.16  -0.02   0.09
     5   8     0.01  -0.01  -0.00     0.03  -0.08  -0.02     0.04  -0.06  -0.03
     6   8    -0.04  -0.01   0.02    -0.02   0.14  -0.01     0.02   0.21  -0.02
     7   6     0.06   0.01  -0.02    -0.06   0.04  -0.11     0.12  -0.21   0.21
     8   6     0.04   0.01  -0.02     0.05  -0.17   0.12    -0.11  -0.02  -0.18
     9   1    -0.01   0.01   0.49    -0.10   0.22  -0.18     0.09  -0.14   0.35
    10   1    -0.38  -0.00  -0.31    -0.13   0.20  -0.21     0.06  -0.32   0.23
    11   1     0.01  -0.11   0.47    -0.05   0.18   0.02    -0.18   0.29  -0.45
    12   1    -0.35   0.10  -0.32     0.08   0.18   0.02    -0.07   0.24  -0.25
    13   1    -0.19   0.01   0.05     0.32  -0.18   0.70     0.08  -0.02   0.06
    14   8     0.00  -0.00   0.00     0.00  -0.00   0.00     0.00   0.00   0.00
    15   1    -0.00   0.01   0.02     0.01   0.01   0.01    -0.01   0.01   0.02
                     22                     23                     24
                      A                      A                      A
 Frequencies --   1128.4143              1179.8855              1263.0250
 Red. masses --      2.4637                 1.8977                 2.8870
 Frc consts  --      1.8483                 1.5565                 2.7134
 IR Inten    --     45.4419                61.9570               353.2383
  Atom  AN      X      Y      Z        X      Y      Z        X      Y      Z
     1   6    -0.03  -0.02   0.01     0.02   0.01  -0.01    -0.04  -0.02   0.02
     2   1    -0.03  -0.02   0.02     0.02   0.03  -0.01    -0.04  -0.06   0.02
     3   6    -0.01  -0.00   0.01     0.01  -0.01  -0.01    -0.01   0.01   0.01
     4   6     0.09   0.02  -0.06    -0.10   0.03   0.06     0.25  -0.04  -0.14
     5   8    -0.02   0.03   0.02     0.01   0.04  -0.00    -0.02  -0.04   0.01
     6   8    -0.04  -0.14  -0.03    -0.00  -0.10  -0.01    -0.13   0.12   0.07
     7   6     0.06   0.18   0.16     0.15   0.06  -0.09     0.10  -0.09  -0.02
     8   6    -0.04  -0.12  -0.12    -0.11  -0.00   0.06    -0.10   0.01   0.06
     9   1     0.08   0.20   0.04     0.02   0.35   0.26     0.02   0.01   0.35
    10   1     0.04   0.26   0.12    -0.26  -0.48  -0.19    -0.19   0.45  -0.41
    11   1    -0.19   0.38  -0.19    -0.06   0.05  -0.35    -0.04   0.01  -0.40
    12   1    -0.06   0.40  -0.31     0.29  -0.06   0.34     0.16  -0.04   0.24
    13   1     0.19  -0.12   0.47     0.24   0.00  -0.09     0.18   0.02  -0.15
    14   8     0.00  -0.00  -0.00     0.00  -0.00   0.00    -0.00   0.00  -0.00
    15   1    -0.00  -0.00  -0.00    -0.00   0.01   0.01    -0.00  -0.01  -0.02
                     25                     26                     27
                      A                      A                      A
 Frequencies --   1357.8772              1406.9310              1436.7692
 Red. masses --      1.2681                 1.2600                 1.3537
 Frc consts  --      1.3776                 1.4695                 1.6464
 IR Inten    --    113.1064                21.7696                16.8026
  Atom  AN      X      Y      Z        X      Y      Z        X      Y      Z
     1   6    -0.01  -0.00   0.00    -0.01  -0.00   0.00     0.01   0.00  -0.00
     2   1    -0.01  -0.01   0.00    -0.01  -0.01   0.00     0.01   0.01  -0.00
     3   6     0.00  -0.00  -0.00    -0.00   0.00   0.00     0.00  -0.00  -0.00
     4   6     0.07  -0.01  -0.04     0.04  -0.00  -0.02    -0.04   0.00   0.02
     5   8    -0.00  -0.01   0.00    -0.00  -0.01   0.00     0.00   0.01  -0.00
     6   8    -0.08   0.04   0.04    -0.02   0.03   0.02     0.01  -0.03  -0.03
     7   6     0.02  -0.03   0.00    -0.01   0.04  -0.03     0.04  -0.08   0.09
     8   6     0.05   0.00  -0.01    -0.05   0.03  -0.11    -0.02   0.07  -0.06
     9   1    -0.14   0.68  -0.27     0.03  -0.21   0.23    -0.05   0.47  -0.37
    10   1     0.07  -0.57   0.23     0.15  -0.28   0.20    -0.21   0.43  -0.27
    11   1     0.04  -0.01   0.08    -0.01  -0.27   0.40     0.07  -0.30   0.14
    12   1    -0.12   0.03  -0.15     0.31  -0.21   0.24     0.05  -0.28   0.12
    13   1    -0.07   0.00  -0.03     0.26   0.00   0.48     0.13   0.06   0.27
    14   8    -0.00  -0.00   0.00    -0.00   0.00  -0.00    -0.00  -0.00   0.00
    15   1     0.01  -0.00  -0.01    -0.00  -0.00  -0.00     0.01   0.00  -0.00
                     28                     29                     30
                      A                      A                      A
 Frequencies --   1492.5549              1503.0071              1535.2543
 Red. masses --      1.0406                 1.0476                 1.0962
 Frc consts  --      1.3658                 1.3943                 1.5223
 IR Inten    --      3.9144                 2.3153                11.3394
  Atom  AN      X      Y      Z        X      Y      Z        X      Y      Z
     1   6     0.00   0.00  -0.00    -0.00  -0.00   0.00     0.01   0.00  -0.00
     2   1     0.00   0.00  -0.00    -0.00   0.00  -0.00     0.01   0.01  -0.00
     3   6     0.00  -0.00   0.00    -0.00   0.00   0.00     0.00  -0.00  -0.00
     4   6    -0.01   0.00   0.00     0.00  -0.00  -0.00    -0.03  -0.00   0.01
     5   8     0.00  -0.00  -0.00     0.00   0.00  -0.00     0.00   0.01  -0.00
     6   8     0.01  -0.00  -0.00    -0.00   0.01   0.00     0.01  -0.02  -0.01
     7   6    -0.02   0.01   0.01     0.00  -0.03   0.02    -0.02  -0.05  -0.05
     8   6    -0.04   0.01   0.03    -0.02  -0.04  -0.02    -0.00  -0.01  -0.00
     9   1    -0.02  -0.02  -0.01     0.02   0.00  -0.21    -0.24   0.43   0.51
    10   1     0.04  -0.00   0.06    -0.15   0.00  -0.10     0.52   0.37   0.19
    11   1     0.16  -0.52  -0.02    -0.16   0.21   0.52    -0.04   0.06   0.12
    12   1    -0.16   0.40  -0.22     0.47   0.44   0.15     0.10   0.08   0.04
    13   1     0.64   0.01  -0.23     0.02  -0.01  -0.36    -0.02  -0.00  -0.09
    14   8     0.00  -0.00   0.00    -0.00  -0.00   0.00    -0.00  -0.00  -0.00
    15   1     0.00   0.00   0.00     0.00  -0.00  -0.00     0.00   0.00   0.00
                     31                     32                     33
                      A                      A                      A
 Frequencies --   1855.8042              2195.9112              3072.6185
 Red. masses --     12.9548                 5.9676                 1.0354
 Frc consts  --     26.2873                16.9543                 5.7595
 IR Inten    --    504.5970                53.4632                 7.6359
  Atom  AN      X      Y      Z        X      Y      Z        X      Y      Z
     1   6    -0.03  -0.02   0.01    -0.31  -0.17   0.16    -0.00   0.00  -0.00
     2   1    -0.05   0.00   0.04    -0.58  -0.33   0.33     0.00   0.00  -0.00
     3   6     0.03  -0.00  -0.01     0.43   0.24  -0.22    -0.00   0.00  -0.00
     4   6     0.05   0.82   0.02    -0.07  -0.04   0.04    -0.00   0.00   0.00
     5   8    -0.05  -0.54  -0.00    -0.00  -0.00  -0.00     0.00  -0.00  -0.00
     6   8     0.01  -0.05  -0.01    -0.00  -0.00   0.00     0.00  -0.00  -0.00
     7   6     0.02  -0.03  -0.01    -0.00  -0.00   0.00    -0.00  -0.00  -0.00
     8   6    -0.00   0.01   0.00    -0.00   0.00   0.00     0.02  -0.02   0.04
     9   1    -0.03   0.11   0.00    -0.01   0.01   0.00     0.04   0.01   0.01
    10   1     0.04   0.02  -0.03     0.00   0.00   0.00    -0.01   0.01   0.02
    11   1     0.00   0.00   0.01    -0.00  -0.00   0.00    -0.52  -0.18  -0.06
    12   1     0.02  -0.01   0.02    -0.00   0.00  -0.00     0.33  -0.17  -0.45
    13   1    -0.02   0.00  -0.03     0.00   0.00  -0.00     0.00   0.59   0.03
    14   8     0.00   0.00  -0.00    -0.00  -0.01  -0.01     0.00   0.00  -0.00
    15   1    -0.01  -0.01  -0.00    -0.00  -0.00   0.00    -0.00  -0.00   0.00
                     34                     35                     36
                      A                      A                      A
 Frequencies --   3101.6497              3144.4015              3152.1808
 Red. masses --      1.0624                 1.1042                 1.1014
 Frc consts  --      6.0219                 6.4324                 6.4480
 IR Inten    --     10.2519                 2.6987                12.3028
  Atom  AN      X      Y      Z        X      Y      Z        X      Y      Z
     1   6    -0.00   0.00   0.00    -0.00  -0.00   0.00     0.00  -0.00   0.00
     2   1    -0.00  -0.00   0.00    -0.00  -0.00   0.00     0.00   0.00  -0.00
     3   6     0.00   0.00  -0.00     0.00  -0.00   0.00     0.00  -0.00  -0.00
     4   6    -0.00   0.00   0.00     0.00  -0.00  -0.00    -0.00   0.00   0.00
     5   8     0.00  -0.00  -0.00     0.00   0.00   0.00     0.00  -0.00  -0.00
     6   8     0.00  -0.00   0.00    -0.00   0.00  -0.00     0.00   0.00  -0.00
     7   6    -0.04  -0.03  -0.04    -0.05   0.00   0.03     0.02  -0.01  -0.02
     8   6     0.00   0.01   0.00     0.06  -0.04  -0.04    -0.04  -0.08  -0.02
     9   1     0.80   0.22   0.11     0.30   0.09   0.05    -0.04  -0.01  -0.01
    10   1    -0.29   0.15   0.40     0.25  -0.13  -0.35    -0.17   0.09   0.24
    11   1    -0.04  -0.01  -0.00    -0.31  -0.12  -0.05     0.58   0.18   0.07
    12   1     0.01   0.00  -0.00    -0.37   0.19   0.53    -0.09   0.03   0.12
    13   1    -0.00  -0.13  -0.01     0.01   0.36   0.01    -0.00   0.71   0.02
    14   8    -0.00   0.00   0.00    -0.00   0.00   0.00     0.00   0.00  -0.00
    15   1    -0.00  -0.00   0.00     0.00  -0.00   0.00     0.00  -0.00  -0.00
                     37                     38                     39
                      A                      A                      A
 Frequencies --   3167.4201              3480.6245              3799.2055
 Red. masses --      1.1067                 1.1608                 1.0674
 Frc consts  --      6.5416                 8.2857                 9.0774
 IR Inten    --     17.1551                73.3395                43.7465
  Atom  AN      X      Y      Z        X      Y      Z        X      Y      Z
     1   6     0.00  -0.00   0.00    -0.09  -0.05   0.05    -0.00  -0.00  -0.00
     2   1     0.00   0.00  -0.00     0.76   0.41  -0.49     0.00   0.00  -0.00
     3   6     0.00  -0.00   0.00     0.03   0.01  -0.01     0.00   0.00  -0.00
     4   6    -0.00   0.00  -0.00    -0.00  -0.00   0.00     0.00   0.00  -0.00
     5   8    -0.00  -0.00   0.00     0.00  -0.00  -0.00    -0.00  -0.00   0.00
     6   8    -0.00  -0.00   0.00     0.00  -0.00  -0.00    -0.00   0.00   0.00
     7   6     0.06  -0.01  -0.04    -0.00   0.00   0.00    -0.00  -0.00  -0.00
     8   6     0.05   0.00  -0.02    -0.00   0.00   0.00     0.00  -0.00  -0.00
     9   1    -0.40  -0.11  -0.06     0.00   0.00   0.00     0.00  -0.00   0.00
    10   1    -0.36   0.18   0.52     0.00  -0.00  -0.00    -0.00   0.00   0.00
    11   1    -0.42  -0.14  -0.06     0.00   0.00   0.00    -0.00   0.00  -0.00
    12   1    -0.22   0.12   0.33    -0.00   0.00  -0.00    -0.00  -0.00   0.00
    13   1     0.01  -0.01  -0.01     0.00  -0.00  -0.00    -0.00   0.00   0.00
    14   8     0.00  -0.00  -0.00    -0.00  -0.00  -0.00     0.01  -0.05   0.03
    15   1     0.00  -0.00  -0.00     0.00  -0.00   0.00    -0.18   0.83  -0.53

 -------------------
 - Thermochemistry -
 -------------------
 Temperature   298.150 Kelvin.  Pressure   1.00000 Atm.
 Atom     1 has atomic number  6 and mass  12.00000
 Atom     2 has atomic number  1 and mass   1.00783
 Atom     3 has atomic number  6 and mass  12.00000
 Atom     4 has atomic number  6 and mass  12.00000
 Atom     5 has atomic number  8 and mass  15.99491
 Atom     6 has atomic number  8 and mass  15.99491
 Atom     7 has atomic number  6 and mass  12.00000
 Atom     8 has atomic number  6 and mass  12.00000
 Atom     9 has atomic number  1 and mass   1.00783
 Atom    10 has atomic number  1 and mass   1.00783
 Atom    11 has atomic number  1 and mass   1.00783
 Atom    12 has atomic number  1 and mass   1.00783
 Atom    13 has atomic number  1 and mass   1.00783
 Atom    14 has atomic number  8 and mass  15.99491
 Atom    15 has atomic number  1 and mass   1.00783
 Molecular mass:   115.03952 amu.
 Principal axes and moments of inertia in atomic units:
                           1         2         3
     Eigenvalues --   852.972931077.278741553.12601
           X            0.98720  -0.15909   0.01085
           Y            0.15927   0.98707  -0.01823
           Z           -0.00781   0.01972   0.99977
 This molecule is an asymmetric top.
 Rotational symmetry number  1.
 Warning -- assumption of classical behavior for rotation
           may cause significant error
 Rotational temperatures (Kelvin)      0.10154     0.08040     0.05577
 Rotational constants (GHZ):           2.11582     1.67528     1.16201
    2 imaginary frequencies ignored.
 Zero-point vibrational energy     292942.4 (Joules/Mol)
                                   70.01492 (Kcal/Mol)
 Warning -- explicit consideration of  11 degrees of freedom as
           vibrations may cause significant error
 Vibrational temperatures:     97.33   111.86   151.99   257.32   328.55
          (Kelvin)            335.66   442.46   521.00   588.10   798.48
                              881.72   909.02  1074.51  1086.45  1100.14
                             1143.35  1175.81  1368.34  1587.82  1623.54
                             1697.59  1817.21  1953.68  2024.26  2067.19
                             2147.45  2162.49  2208.89  2670.09  3159.43
                             4420.81  4462.58  4524.09  4535.29  4557.21
                             5007.84  5466.21
 
 Zero-point correction=                           0.111576 (Hartree/Particle)
 Thermal correction to Energy=                    0.120465
 Thermal correction to Enthalpy=                  0.121409
 Thermal correction to Gibbs Free Energy=         0.076659
 Sum of electronic and zero-point Energies=           -419.3480733
 Sum of electronic and thermal Energies=              -420.078850
 Sum of electronic and thermal Enthalpies=            -420.077906
 Sum of electronic and thermal Free Energies=         -420.122656
 
                     E (Thermal)             CV                S
                      KCal/Mol        Cal/Mol-Kelvin    Cal/Mol-Kelvin
 Total                   75.593             30.434             94.186
 Electronic               0.000              0.000              1.377
 Translational            0.889              2.981             40.136
 Rotational               0.889              2.981             28.747
 Vibrational             73.816             24.473             23.926
 Vibration     1          0.598              1.970              4.221
 Vibration     2          0.599              1.964              3.947
 Vibration     3          0.605              1.945              3.348
 Vibration     4          0.629              1.868              2.340
 Vibration     5          0.651              1.798              1.892
 Vibration     6          0.654              1.790              1.853
 Vibration     7          0.697              1.659              1.376
 Vibration     8          0.736              1.550              1.113
 Vibration     9          0.773              1.451              0.931
 Vibration    10          0.910              1.129              0.534
 Vibration    11          0.972              1.005              0.428
                       Q            Log10(Q)             Ln(Q)
 Total Bot       0.548946D-35        -35.260470        -81.190233
 Total V=0       0.115035D+17         16.060828         36.981423
 Vib (Bot)       0.132341D-48        -48.878305       -112.546457
 Vib (Bot)    1  0.304984D+01          0.484277          1.115089
 Vib (Bot)    2  0.264991D+01          0.423231          0.974526
 Vib (Bot)    3  0.194061D+01          0.287938          0.663002
 Vib (Bot)    4  0.112347D+01          0.050562          0.116423
 Vib (Bot)    5  0.863140D+00         -0.063919         -0.147179
 Vib (Bot)    6  0.843032D+00         -0.074156         -0.170750
 Vib (Bot)    7  0.615763D+00         -0.210587         -0.484894
 Vib (Bot)    8  0.505450D+00         -0.296322         -0.682306
 Vib (Bot)    9  0.433237D+00         -0.363274         -0.836470
 Vib (Bot)   10  0.281424D+00         -0.550639         -1.267894
 Vib (Bot)   11  0.240439D+00         -0.618996         -1.425291
 Vib (V=0)       0.277328D+03          2.442993          5.625199
 Vib (V=0)    1  0.359055D+01          0.555161          1.278306
 Vib (V=0)    2  0.319667D+01          0.504698          1.162109
 Vib (V=0)    3  0.250399D+01          0.398632          0.917884
 Vib (V=0)    4  0.172971D+01          0.237973          0.547954
 Vib (V=0)    5  0.149750D+01          0.175367          0.403798
 Vib (V=0)    6  0.148015D+01          0.170307          0.392147
 Vib (V=0)    7  0.129320D+01          0.111665          0.257118
 Vib (V=0)    8  0.121097D+01          0.083134          0.191423
 Vib (V=0)    9  0.116158D+01          0.065051          0.149785
 Vib (V=0)   10  0.107376D+01          0.030907          0.071166
 Vib (V=0)   11  0.105481D+01          0.023173          0.053358
 Electronic      0.200000D+01          0.301030          0.693147
 Translational   0.484981D+08          7.685724         17.697035
 Rotational      0.427642D+06          5.631081         12.966042
 ***** Axes restored to original set *****
 -------------------------------------------------------------------
 Center     Atomic                   Forces (Hartrees/Bohr)
 Number     Number              X              Y              Z
 -------------------------------------------------------------------
      1        6           0.001708446    0.003567047    0.007947017
      2        1           0.000070193    0.000184610    0.000228671
      3        6           0.000811786    0.000608251    0.000368979
      4        6          -0.000193424   -0.000147482    0.000140072
      5        8           0.000280158    0.000147266   -0.000128226
      6        8          -0.000059326   -0.000041788   -0.000233225
      7        6          -0.000013643    0.000031019   -0.000127262
      8        6           0.000011935    0.000056751    0.000079679
      9        1           0.000111401    0.000043051    0.000054542
     10        1          -0.000035374   -0.000010567    0.000098680
     11        1          -0.000000017   -0.000034811    0.000004654
     12        1          -0.000002816    0.000038335   -0.000100850
     13        1           0.000012645    0.000023563    0.000010903
     14        8          -0.002596381   -0.004314923   -0.008212563
     15        1          -0.000105583   -0.000150323   -0.000131072
 -------------------------------------------------------------------
 Cartesian Forces:  Max     0.008212563 RMS     0.001962058

 GradGradGradGradGradGradGradGradGradGradGradGradGradGradGradGradGradGrad
 Berny optimization.
 Search for a local minimum.
 Step number   1 out of a maximum of    2
 All quantities printed in internal units (Hartrees-Bohrs-Radians)
 Second derivative matrix not updated -- analytic derivatives used.
 ITU=  0
     Eigenvalues ---   -0.00621  -0.00059   0.00078   0.00180   0.00212
     Eigenvalues ---    0.00227   0.00318   0.00538   0.01803   0.02136
     Eigenvalues ---    0.02159   0.02832   0.03286   0.05569   0.06139
     Eigenvalues ---    0.07564   0.07793   0.08689   0.08899   0.10055
     Eigenvalues ---    0.11500   0.13980   0.16848   0.17116   0.23079
     Eigenvalues ---    0.24839   0.27487   0.35068   0.51711   0.62747
     Eigenvalues ---    0.71421   0.77796   0.78157   0.86215   0.86759
     Eigenvalues ---    0.94224   0.95708   1.75967   2.57864
 Eigenvalue     1 is  -6.21D-03 should be greater than     0.000000 Eigenvector:
                          Z14       Z1        Y14       Y1        X1
   1                    0.59698  -0.58240   0.31009  -0.27558  -0.18364
                          X14       Z15       Z3        X15       Z2
   1                    0.15944   0.13787  -0.13565   0.10682  -0.10241
 Eigenvalue     2 is  -5.92D-04 should be greater than     0.000000 Eigenvector:
                          Y15       Y14       Y2        Y1        X14
   1                    0.54874   0.40318  -0.32517  -0.23132  -0.19869
                          Z5        Z13       X2        X5        Z14
   1                   -0.17865   0.16232   0.16065  -0.15943  -0.15433
 Quadratic step=2.224D+00 exceeds max=3.000D-01 adjusted using Lamda=-3.691D-02.
 Angle between NR and scaled steps=  19.22 degrees.
 Angle between quadratic step and forces=   8.04 degrees.
 Linear search not attempted -- first point.
 B after Tr=    -0.000423   -0.001891   -0.002068
         Rot=    1.000000   -0.000129    0.000357   -0.000241 Ang=  -0.05 deg.
 Variable       Old X    -DE/DX   Delta X   Delta X   Delta X     New X
                                 (Linear)    (Quad)   (Total)
    X1       -3.33967   0.00171   0.00000   0.05395   0.05210  -3.28757
    Y1       -0.28756   0.00357   0.00000   0.09088   0.08686  -0.20070
    Z1        1.95372   0.00795   0.00000   0.17789   0.17342   2.12714
    X2       -4.87517   0.00007   0.00000  -0.00035  -0.00234  -4.87751
    Y2       -1.13706   0.00018   0.00000   0.00944   0.00443  -1.13262
    Z2        2.94010   0.00023   0.00000   0.01902   0.01317   2.95328
    X3       -1.52408   0.00081   0.00000   0.01100   0.00939  -1.51468
    Y3        0.78638   0.00061   0.00000   0.01010   0.00719   0.79357
    Z3        1.09002   0.00037   0.00000   0.02829   0.02535   1.11537
    X4        0.62864  -0.00019   0.00000   0.00437   0.00293   0.63157
    Y4        2.12842  -0.00015   0.00000   0.00477   0.00318   2.13160
    Z4       -0.02334   0.00014   0.00000   0.00489   0.00383  -0.01951
    X5        0.76097   0.00028   0.00000   0.00992   0.00735   0.76832
    Y5        4.38300   0.00015   0.00000   0.00386   0.00233   4.38534
    Z5        0.03845  -0.00013   0.00000  -0.00575  -0.00614   0.03232
    X6        2.40196  -0.00006   0.00000  -0.00331  -0.00327   2.39868
    Y6        0.71560  -0.00004   0.00000   0.00054   0.00010   0.71570
    Z6       -1.11822  -0.00023   0.00000  -0.00573  -0.00590  -1.12413
    X7        2.24651  -0.00001   0.00000  -0.00072   0.00060   2.24711
    Y7       -2.00780   0.00003   0.00000   0.00209   0.00156  -2.00624
    Z7       -1.09913  -0.00013   0.00000   0.00035  -0.00063  -1.09976
    X8        3.32244   0.00001   0.00000  -0.00063  -0.00053   3.32192
    Y8       -3.07293   0.00006   0.00000   0.00148   0.00084  -3.07209
    Z8        1.33183   0.00008   0.00000   0.00047  -0.00002   1.33181
    X9        0.29445   0.00011   0.00000   0.00005   0.00188   0.29633
    Y9       -2.59867   0.00004   0.00000   0.00022  -0.00116  -2.59983
    Z9       -1.41213   0.00005   0.00000   0.00177  -0.00076  -1.41289
   X10        3.37478  -0.00004   0.00000  -0.00126   0.00150   3.37627
   Y10       -2.57265  -0.00001   0.00000  -0.00028   0.00016  -2.57249
   Z10       -2.72441   0.00010   0.00000   0.00083   0.00051  -2.72390
   X11        5.25708  -0.00000   0.00000   0.00006  -0.00035   5.25674
   Y11       -2.41698  -0.00003   0.00000  -0.00046  -0.00023  -2.41721
   Z11        1.60779   0.00000   0.00000  -0.00021   0.00086   1.60864
   X12        2.18891  -0.00000   0.00000  -0.00054  -0.00187   2.18704
   Y12       -2.50624   0.00004   0.00000   0.00198   0.00038  -2.50586
   Z12        2.95910  -0.00010   0.00000  -0.00033  -0.00148   2.95763
   X13        3.33134   0.00001   0.00000  -0.00133  -0.00017   3.33117
   Y13       -5.13408   0.00002   0.00000   0.00129   0.00068  -5.13340
   Z13        1.24198   0.00001   0.00000  -0.00019  -0.00120   1.24077
   X14       -4.46364  -0.00260   0.00000  -0.06071  -0.05884  -4.52248
   Y14       -2.18489  -0.00431   0.00000  -0.10572  -0.10936  -2.29425
   Z14       -1.49625  -0.00821   0.00000  -0.17392  -0.17981  -1.67606
   X15       -4.81002  -0.00011   0.00000  -0.01007  -0.00840  -4.81842
   Y15       -0.66374  -0.00015   0.00000   0.00661   0.00303  -0.66070
   Z15       -2.46322  -0.00013   0.00000  -0.01551  -0.02119  -2.48441
         Item               Value     Threshold  Converged?
 Maximum Force            0.008213     0.000450     NO 
 RMS     Force            0.001962     0.000300     NO 
 Maximum Displacement     0.179811     0.001800     NO 
 RMS     Displacement     0.044670     0.001200     NO 
 Predicted change in Energy=-4.162585D-03
 GradGradGradGradGradGradGradGradGradGradGradGradGradGradGradGradGradGrad


 ----------------------------------------------------------------------

 Electric dipole moment (input orientation):
 (Debye = 10**-18 statcoulomb cm , SI units = C m)
                  (au)            (Debye)         (10**-30 SI)
   Tot        0.135390D+01      0.344127D+01      0.114788D+02
   x         -0.451245D+00     -0.114695D+01     -0.382582D+01
   y         -0.126726D+01     -0.322106D+01     -0.107443D+02
   z          0.153176D+00      0.389334D+00      0.129868D+01

 Dipole polarizability, Alpha (input orientation).
 (esu units = cm**3 , SI units = C**2 m**2 J**-1)
 Alpha(0;0):
               (au)            (10**-24 esu)      (10**-40 SI)
   iso        0.736857D+02      0.109191D+02      0.121491D+02
   aniso      0.237011D+02      0.351214D+01      0.390779D+01
   xx         0.800439D+02      0.118613D+02      0.131975D+02
   yx         0.861067D+01      0.127597D+01      0.141971D+01
   yy         0.787731D+02      0.116730D+02      0.129879D+02
   zx        -0.511403D+00     -0.757821D-01     -0.843189D-01
   zy         0.376651D+01      0.558139D+00      0.621014D+00
   zz         0.622400D+02      0.922302D+01      0.102620D+02

 ----------------------------------------------------------------------

 Dipole orientation:
     6         -2.27463503          2.70344347          1.60328228
     1         -3.09007119          3.87615913          3.02178969
     6         -1.22907569          1.61484805         -0.10477437
     6         -0.03837614          0.25517794         -2.20438427
     8         -0.53052546          0.75600069         -4.35181451
     8          1.58900494         -1.56746458         -1.59687794
     6          2.21869094         -2.08592337          1.00622603
     6          4.29598672         -0.33885844          1.91962731
     1          0.52270877         -1.95762982          2.17447695
     1          2.85097364         -4.04368224          0.97500556
     1          5.94570206         -0.48308345          0.69206780
     1          3.65911676          1.62263504          1.95110243
     1          4.85170319         -0.86433496          3.83575375
     8         -3.90455304         -0.61476077          3.36350260
     1         -4.96496940         -1.09888067          1.94573092

 Electric dipole moment (dipole orientation):
 (Debye = 10**-18 statcoulomb cm , SI units = C m)
                  (au)            (Debye)         (10**-30 SI)
   Tot        0.135390D+01      0.344127D+01      0.114788D+02
   x          0.000000D+00      0.000000D+00      0.000000D+00
   y          0.000000D+00      0.000000D+00      0.000000D+00
   z          0.135390D+01      0.344127D+01      0.114788D+02

 Dipole polarizability, Alpha (dipole orientation).
 (esu units = cm**3 , SI units = C**2 m**2 J**-1)
 Alpha(0;0):
               (au)            (10**-24 esu)      (10**-40 SI)
   iso        0.736857D+02      0.109191D+02      0.121491D+02
   aniso      0.237011D+02      0.351214D+01      0.390779D+01
   xx         0.726111D+02      0.107598D+02      0.119719D+02
   yx        -0.425543D+01     -0.630589D+00     -0.701625D+00
   yy         0.651300D+02      0.965127D+01      0.107385D+02
   zx        -0.874551D+01     -0.129595D+01     -0.144194D+01
   zy        -0.301779D+01     -0.447191D+00     -0.497567D+00
   zz         0.833159D+02      0.123461D+02      0.137369D+02

 ----------------------------------------------------------------------
 1\1\GINC-BOSON\Freq\UM062X\6-311++G(d,p)\C5H7O3(2)\LOKI\28-Mar-2025\0\
 \# freq 6-311++g(d,p) m062x\\Title Card Required\\0,2\C,-1.767275,-0.1
 52169,1.033865\H,-2.579828,-0.601704,1.555835\C,-0.806506,0.416134,0.5
 76813\C,0.332664,1.12631,-0.01235\O,0.402689,2.319386,0.020349\O,1.271
 06,0.37868,-0.591739\C,1.188801,-1.062483,-0.581635\C,1.758161,-1.6261
 25,0.704773\H,0.155816,-1.375155,-0.747269\H,1.785855,-1.361387,-1.441
 696\H,2.781929,-1.27901,0.850805\H,1.158323,-1.326246,1.56589\H,1.7628
 69,-2.716838,0.657226\O,-2.362058,-1.156195,-0.79178\H,-2.545355,-0.35
 1234,-1.30348\\Version=ES64L-G16RevA.03\State=2-A\HF=-420.1993148\S2=0
 .762012\S2-1=0.\S2A=0.750075\RMSD=3.898e-09\RMSF=1.962e-03\ZeroPoint=0
 .1115759\Thermal=0.120465\Dipole=-0.4512452,-1.267264,0.1531758\Dipole
 Deriv=-0.4122635,-0.2425199,-0.2707612,-0.2232413,-0.3122218,-0.271693
 3,-0.1192091,-0.1008072,-0.237912,0.2559333,0.0167068,-0.0406069,0.040
 6972,0.2355625,-0.0014366,-0.0039392,0.0066259,0.2283395,-0.2987257,0.
 0113929,0.3040262,-0.0498473,-0.0899149,0.1492815,0.1304475,-0.0040407
 ,-0.3030278,1.8063518,-0.2899633,-0.4313032,-0.1352336,2.1000399,0.122
 822,-0.7818007,0.2395606,0.6112581,-0.6725843,-0.1289777,0.0652775,-0.
 0387671,-1.4835594,-0.0384565,0.1832539,0.0269817,-0.3817703,-0.974766
 3,0.6135197,0.1882705,0.5080675,-1.2902698,-0.0779203,0.3688244,-0.342
 5725,-0.4758887,0.2572673,-0.0910331,0.0255878,-0.320683,0.8395357,-0.
 0502562,0.0271742,-0.0547089,0.3414126,0.0401416,0.0365628,-0.0418334,
 0.0705635,-0.0282056,0.0109361,-0.0514123,0.0674446,-0.0847308,-0.0100
 624,-0.041644,-0.045651,0.0395678,-0.023861,0.0200817,-0.0387401,0.025
 2107,0.0409537,0.0120618,0.0498705,0.0778188,0.0360067,0.0092385,0.003
 6016,0.055175,-0.0320942,-0.0511109,-0.0744397,-0.0274651,-0.0420444,-
 0.0709437,0.0628223,-0.003413,-0.0058907,0.0203628,0.0515448,0.0129385
 ,0.0313174,0.0786447,0.0233075,0.0519278,-0.0491714,0.0573259,-0.01650
 26,-0.0368042,0.07315,-0.0047911,-0.0121862,0.0281791,-0.1065842,0.001
 8225,-0.0197966,-0.0084846,0.0694165,-0.3597861,0.0411018,0.1218079,0.
 1253573,-0.1061809,0.1711472,0.1350825,0.062669,-0.0786167,0.3447837,0
 .0259221,0.0229528,-0.0330307,0.1416708,0.0126549,0.0635052,0.1103555,
 0.3069361\Polar=80.0439047,8.6106713,78.7730523,-0.5114028,3.7665096,6
 2.2400053\Quadrupole=3.6102203,-6.6908427,3.0806224,-4.5972468,-0.2547
 681,-0.9744153\PG=C01 [X(C5H7O3)]\NImag=2\\0.93263176,0.49327258,0.333
 94082,-0.49883262,-0.29619805,0.31334215,-0.25715501,-0.12631785,0.146
 32326,0.24892123,-0.12425876,-0.09555698,0.08368926,0.12891632,0.08868
 046,0.15376479,0.08940568,-0.11679944,-0.14579845,-0.08059174,0.114224
 67,-0.68406850,-0.37100993,0.35111821,0.00626061,-0.00156954,-0.008122
 90,0.91021803,-0.38078262,-0.24667204,0.20968188,0.00100175,0.00327658
 ,-0.00615124,0.47137442,0.38798193,0.32147972,0.18791897,-0.19907273,0
 .00207551,0.00094851,0.00982528,-0.42006939,-0.22940824,0.27104103,0.0
 0967402,0.00124328,-0.00185736,0.00192414,-0.00361773,0.00195403,-0.18
 094265,-0.05966947,0.05418587,0.47298629,-0.00289379,-0.00045615,-0.00
 171541,-0.00180706,0.00444343,0.00117432,-0.04177452,-0.08368492,0.025
 01546,0.03477261,1.03179683,-0.00754462,-0.00375614,0.00471615,0.00200
 753,0.00191659,0.00414516,0.05992021,0.03597347,-0.10221922,-0.1472418
 7,0.02952755,0.28403627,-0.00451247,-0.00241335,0.00100831,-0.00040537
 ,0.00164072,-0.00025823,0.00270128,-0.04001215,0.00924000,-0.09569521,
 -0.06829972,0.00596966,0.08802788,-0.00007721,0.00181988,0.00145574,-0
 .00033617,0.00098253,-0.00011246,-0.03905667,-0.05867085,0.01598358,-0
 .05532286,-0.77531521,-0.01081126,0.04922372,0.91369068,0.00303783,0.0
 0205928,-0.00052609,-0.00036452,-0.00081684,-0.00090721,0.00877108,0.0
 1633565,0.01906850,0.00629847,-0.00379828,-0.07988910,-0.02838333,0.02
 649567,0.04886052,-0.00321445,-0.00311426,0.00105564,0.00034638,-0.000
 48102,-0.00072292,-0.03805610,0.01031628,0.03191284,-0.20983906,0.0515
 8542,0.09176187,0.01067415,0.04268488,0.00645058,0.31164524,0.00151848
 ,0.00049614,0.00007947,0.00020225,-0.00096419,0.00002845,-0.00312131,0
 .00856615,-0.00107409,0.07524161,-0.14826461,-0.04518704,0.05915017,-0
 .08624078,-0.04036550,-0.09834100,0.51482455,0.00296546,0.00240888,-0.
 00022211,-0.00063926,0.00020832,-0.00041768,0.02984447,-0.00676121,0.0
 0039729,0.09490314,-0.03364519,-0.10380572,0.00657259,-0.03082679,0.01
 047696,-0.14389516,0.07185345,0.14929954,-0.00004724,0.00047062,-0.000
 36620,-0.00005441,-0.00006924,0.00014742,-0.00311859,0.00334544,0.0029
 1498,0.00326985,0.02661032,-0.00513372,-0.00160083,0.00362497,0.004063
 53,-0.08487725,-0.03272986,0.01182922,0.63540902,-0.00241725,-0.003402
 95,0.00013103,0.00015592,0.00014856,-0.00010982,-0.00250852,0.00122138
 ,0.00279572,0.02713383,-0.03629012,-0.01944583,-0.00410950,0.01320562,
 0.00361186,-0.01743324,-0.19208733,0.00051716,0.00770046,0.43464050,0.
 00034769,-0.00091311,-0.00066284,0.00007288,-0.00009960,0.00000755,0.0
 0283461,-0.00124498,-0.00097964,-0.00567430,-0.01964519,-0.00950343,0.
 00507132,-0.00165002,0.00379242,0.01139963,0.00887367,-0.06327399,-0.0
 4245864,0.03858981,0.56561653,0.00051499,0.00040622,-0.00000437,-0.000
 00393,-0.00004823,-0.00006755,-0.00063626,0.00044406,0.00006768,-0.001
 23138,0.00055523,-0.00037847,0.00018166,-0.00043558,-0.00009858,0.0044
 5977,0.00121626,0.00092256,-0.10691511,0.01693545,-0.04561596,0.572234
 80,0.00040743,0.00043642,0.00005985,0.00004318,-0.00006533,0.00001405,
 0.00086421,-0.00034100,-0.00058623,-0.00557872,0.00329792,0.00797571,0
 .00080298,-0.00307882,-0.00255090,0.01936048,-0.03879141,0.03212531,0.
 01242821,-0.08222634,0.02674766,0.01681161,0.57203113,-0.00019177,0.00
 022064,-0.00051570,0.00013622,-0.00002448,0.00006820,-0.00069198,0.000
 19599,-0.00043258,-0.00176192,0.00044782,0.00303891,0.00021764,-0.0012
 9234,-0.00075245,0.00343271,0.00275619,0.00403616,-0.04534814,0.038032
 03,-0.18841970,-0.02904578,0.03255102,0.52262455,-0.00144268,0.0006060
 0,0.00050715,-0.00005388,0.00006828,0.00011334,-0.00094726,0.00148215,
 0.00077089,0.00175436,0.00086054,-0.00020544,-0.00035428,0.00022655,0.
 00028117,0.00408610,-0.00151232,0.00165623,-0.29751711,-0.07179005,-0.
 03784560,-0.00814619,-0.00133680,-0.00135973,0.31665091,0.00036121,0.0
 0010437,-0.00021119,0.00003442,0.00008170,-0.00001481,0.00189132,-0.00
 118495,-0.00145534,-0.00855668,0.00408375,0.00342663,0.00183180,-0.001
 82673,-0.00049185,-0.03124209,-0.03036213,-0.00650895,-0.05886829,-0.0
 6901059,-0.01182831,0.01344765,0.00632613,0.00155384,0.07299975,0.0881
 8439,-0.00009213,-0.00056755,-0.00047107,0.00011383,-0.00000420,-0.000
 03332,0.00113678,-0.00142877,-0.00112473,-0.00157203,-0.00076225,0.001
 12683,0.00038899,0.00006686,-0.00028746,0.00148611,0.00018446,0.000397
 37,-0.03552022,-0.01018911,-0.05911378,-0.02854427,-0.00732286,-0.0033
 6095,0.03951992,0.01046688,0.06018879,-0.00014101,0.00022488,-0.000018
 55,0.00002954,0.00008226,-0.00001829,-0.00011262,-0.00014274,0.0001257
 9,-0.00016987,-0.00016987,-0.00005726,0.00029236,-0.00036905,0.0000597
 2,0.00284748,-0.00153662,-0.00315147,-0.14094322,0.04202229,0.12319595
 ,0.00879826,-0.00419948,-0.01295509,-0.01409103,0.00838739,0.02411491,
 0.14310304,0.00032523,0.00035152,-0.00009222,0.00000559,-0.00001658,-0
 .00000682,0.00028773,0.00014523,0.00003406,-0.00613980,-0.00237055,0.0
 0000360,0.00194660,-0.00308520,-0.00036105,0.02597802,-0.03033027,-0.0
 2935340,0.03216721,-0.05979340,-0.04987754,-0.00786173,0.00512650,0.01
 043340,-0.00353160,0.00462342,0.00746614,-0.04480703,0.08509036,-0.000
 05019,0.00007284,0.00013752,-0.00003039,0.00000897,-0.00000359,-0.0002
 5332,-0.00008852,-0.00001145,-0.00134675,0.00158203,0.00087135,-0.0000
 1757,-0.00013751,-0.00007527,-0.00009392,-0.00134748,0.00317592,0.1215
 7332,-0.05941132,-0.22234836,0.01555763,-0.00580252,-0.02272287,-0.002
 75184,0.00247343,0.00555239,-0.12964378,0.06042045,0.23717422,0.000062
 38,0.00016806,-0.00009860,0.00004766,-0.00001642,-0.00001656,-0.000046
 10,-0.00000778,-0.00018364,-0.00084576,-0.00020913,0.00025260,0.000213
 93,0.00023077,-0.00002436,0.00138433,0.00020163,0.00114629,-0.01206086
 ,-0.00424229,-0.00224920,-0.28906985,-0.08238437,-0.03134354,0.0009045
 6,0.00082945,-0.00204967,0.00078906,0.00029016,-0.00009743,0.31145448,
 -0.00005914,-0.00015557,0.00006421,-0.00000100,-0.00001183,-0.00000254
 ,-0.00001197,0.00004461,0.00007007,0.00107996,-0.00045504,-0.00059787,
 -0.00021303,0.00023896,0.00012655,-0.00068098,0.00218300,-0.00088213,0
 .01399202,0.00266030,0.00286219,-0.08389637,-0.07543476,-0.01226392,0.
 00104053,-0.00062117,0.00255278,-0.00056043,0.00015438,-0.00071029,0.0
 9011822,0.07714285,0.00013877,-0.00003036,0.00023883,-0.00005135,0.000
 03394,-0.00003517,0.00026920,-0.00011063,-0.00002349,0.00003626,0.0003
 3918,0.00013652,-0.00011998,-0.00005835,-0.00006241,0.00204762,-0.0013
 4742,0.00183747,-0.03126357,-0.01099483,-0.00542434,-0.02948484,-0.010
 36671,-0.05205986,-0.00112736,0.00322900,-0.00473774,0.00040782,-0.000
 64319,0.00111130,0.03679486,0.01073472,0.05632001,-0.00039727,0.000325
 65,-0.00012927,-0.00004024,-0.00001060,0.00004797,-0.00109741,0.000500
 44,-0.00032724,0.00095679,0.00025858,0.00018310,-0.00034749,-0.0002334
 0,-0.00001491,0.00001998,-0.00093588,0.00121918,0.00872041,-0.00519945
 ,-0.01225801,-0.13315223,0.04250670,0.11969629,0.00070056,-0.00068300,
 0.00057937,-0.00043875,0.00166971,-0.00291688,-0.01496591,0.00980668,0
 .02339928,0.14056132,-0.00002111,-0.00030887,0.00004676,-0.00004980,0.
 00011938,-0.00003425,0.00088784,-0.00033928,0.00035734,0.00052369,-0.0
 0028340,0.00008920,-0.00008613,0.00005590,-0.00001537,-0.00124940,0.00
 205923,-0.00096291,-0.00770914,0.00196113,0.01187143,0.04139590,-0.068
 60515,-0.06059001,-0.00007891,0.00002765,-0.00103625,0.00119639,-0.000
 20898,0.00264446,-0.00576418,0.00253778,0.00974335,-0.04751676,0.07034
 748,0.00030232,-0.00019674,0.00044739,-0.00009891,-0.00000599,0.000005
 45,-0.00000931,-0.00006466,0.00015170,0.00125622,0.00072810,-0.0011638
 3,-0.00043788,0.00021124,0.00023200,-0.00096545,-0.00014434,0.00310573
 ,0.01694047,-0.00996910,-0.02488920,0.11763530,-0.05866701,-0.21302744
 ,0.00019392,-0.00009719,0.00112706,-0.00316414,0.00266788,-0.00345742,
 -0.00294755,0.00211105,0.00426517,-0.12798393,0.06355212,0.23350215,-0
 .00018897,-0.00008991,-0.00005160,-0.00001019,0.00007075,0.00000484,-0
 .00008434,0.00005560,-0.00004059,0.00088855,-0.00073296,-0.00061253,-0
 .00015433,0.00043853,0.00028783,-0.00063093,0.00264212,-0.00253599,-0.
 00113192,0.01159051,0.00328597,-0.04634821,0.00071628,-0.00093479,-0.0
 0013303,-0.00045283,0.00045437,0.00038803,-0.00019994,0.00016123,0.002
 26194,-0.03072577,-0.00075954,-0.00050459,0.01838923,-0.00058874,0.045
 56726,0.00020406,0.00009626,0.00005759,-0.00001561,-0.00005677,0.00000
 067,0.00010243,-0.00003847,-0.00007782,-0.00162646,0.00141737,0.001113
 93,0.00018622,-0.00064392,-0.00027718,0.00244912,-0.00108119,0.0021621
 4,-0.00129286,-0.01126519,-0.00355798,0.00127430,-0.31852785,-0.012080
 54,0.00031843,0.00023989,0.00019244,-0.00020770,0.00031810,0.00031485,
 0.00078036,-0.00832445,-0.00043394,-0.00043485,-0.00735022,-0.00002422
 ,-0.00168408,0.34519986,-0.00004503,-0.00012173,0.00011769,-0.00000611
 ,-0.00001850,0.00000763,-0.00009808,-0.00007878,0.00016801,0.00209871,
 -0.00098302,-0.00279184,-0.00037298,0.00122117,0.00080493,-0.00457451,
 0.00661733,-0.00408546,0.00253172,0.02598598,0.00521759,-0.00089017,-0
 .01415815,-0.04858659,-0.00033026,-0.00071682,0.00090566,0.00104297,-0
 .00063391,0.00063435,0.00080117,-0.00404717,-0.00153793,-0.00144464,-0
 .02576471,-0.00016508,0.00125141,0.01270444,0.04932810,0.00882520,0.00
 531250,0.00154217,-0.00051447,-0.00059712,-0.00136364,-0.00889871,-0.0
 0782684,-0.00138453,-0.00206899,0.00225177,0.00190698,0.00081056,-0.00
 107873,-0.00037308,0.00100780,-0.00201289,-0.00129166,0.00149325,0.002
 21843,0.00000596,-0.00092358,-0.00058103,0.00020173,-0.00107865,-0.000
 61089,0.00032549,-0.00034463,-0.00013465,-0.00008726,-0.00017392,0.000
 14163,-0.00039000,0.00000677,0.00006350,-0.00017331,0.00007544,-0.0000
 1022,0.00003391,0.02196151,0.01800679,0.00954164,0.00718110,-0.0020310
 8,-0.00101148,-0.00349576,-0.01655592,-0.01118979,0.00167040,0.0002068
 3,0.00114703,0.00020853,0.00036352,-0.00040607,-0.00020593,0.00001150,
 0.00011184,-0.00034809,0.00043155,0.00007703,-0.00006551,-0.00021701,-
 0.00010501,0.00011581,0.00059174,-0.00057727,0.00008992,0.00005100,-0.
 00000267,-0.00002065,0.00001885,0.00002253,-0.00007474,-0.00006148,0.0
 0000866,-0.00010985,-0.00000858,0.00000872,-0.00003199,-0.07793512,0.3
 6503048,0.02473782,0.01700585,0.00229375,-0.00372687,-0.00508928,-0.00
 914989,-0.02507461,-0.01713607,0.00353339,0.00175810,0.00247518,-0.000
 78865,0.00020977,-0.00139043,-0.00003939,-0.00051351,-0.00026821,0.000
 00213,0.00008325,-0.00017418,-0.00004231,0.00004274,0.00009280,0.00008
 717,0.00083020,0.00013939,-0.00057816,-0.00013840,-0.00001165,-0.00002
 581,0.00000025,-0.00003206,0.00001148,-0.00002798,0.00006225,-0.000020
 19,0.00004385,-0.00004231,-0.00003838,0.05419111,-0.22165988,0.1509381
 3,-0.00054073,0.00091550,-0.00019616,0.00070792,-0.00010967,0.00033614
 ,-0.00117138,-0.00007854,-0.00076791,-0.00066109,-0.00100743,-0.000828
 04,0.00016814,0.00048024,0.00000856,0.00014656,0.00001736,0.00045438,-
 0.00062601,-0.00005659,-0.00011231,0.00023726,0.00013934,-0.00005184,-
 0.00033239,0.00063079,-0.00034145,-0.00000663,0.00000451,-0.00000286,0
 .00004404,-0.00003035,0.00010281,-0.00002195,0.00001887,0.00004099,0.0
 0000529,-0.00004314,0.00000191,-0.02017760,0.07712741,-0.05241573,0.02
 222859,-0.00358590,-0.00023449,-0.00423002,0.00019914,-0.00004949,-0.0
 0010373,0.00020042,0.00088543,-0.00219239,0.00030989,0.00093367,-0.000
 43708,-0.00001185,-0.00072597,0.00025388,0.00015628,-0.00011901,0.0000
 1341,-0.00010142,0.00016141,-0.00006251,-0.00002776,-0.00004242,-0.000
 05547,0.00005572,-0.00008845,0.00029150,0.00002873,-0.00000185,0.00000
 126,-0.00001334,0.00001842,-0.00002002,0.00000766,-0.00002131,0.000008
 72,-0.00000894,0.00000784,0.00002585,0.08079966,-0.36265562,0.22602860
 ,-0.07800830,0.36193184,-0.00001804,0.00269156,-0.00302350,-0.00001335
 ,-0.00015497,-0.00093766,0.00042504,0.00028610,-0.00032139,-0.00303657
 ,-0.00074031,0.00209060,0.00091167,0.00084491,-0.00069595,0.00121844,-
 0.00065895,-0.00092361,0.00000656,0.00063059,0.00002350,-0.00009593,-0
 .00011202,0.00002313,-0.00025261,0.00003527,0.00040911,0.00019981,-0.0
 0004575,-0.00001228,0.00001538,0.00001441,-0.00003985,-0.00002234,0.00
 003659,-0.00011348,0.00003429,-0.00005208,0.00002130,-0.05314387,0.216
 74664,-0.14618327,0.05377152,-0.21952200,0.14968337\\-0.00170845,-0.00
 356705,-0.00794702,-0.00007019,-0.00018461,-0.00022867,-0.00081179,-0.
 00060825,-0.00036898,0.00019342,0.00014748,-0.00014007,-0.00028016,-0.
 00014727,0.00012823,0.00005933,0.00004179,0.00023323,0.00001364,-0.000
 03102,0.00012726,-0.00001193,-0.00005675,-0.00007968,-0.00011140,-0.00
 004305,-0.00005454,0.00003537,0.00001057,-0.00009868,0.00000002,0.0000
 3481,-0.00000465,0.00000282,-0.00003834,0.00010085,-0.00001265,-0.0000
 2356,-0.00001090,0.00259638,0.00431492,0.00821256,0.00010558,0.0001503
 2,0.00013107\\\@


 THE MOST INCOMPREHENSIBLE THING ABOUT THE WORLD
 IS THAT IT IS COMPREHENSIBLE. -- A. EINSTEIN
 Job cpu time:       0 days  1 hours 14 minutes 14.6 seconds.
 Elapsed time:       0 days  0 hours 12 minutes 33.3 seconds.
 File lengths (MBytes):  RWF=    146 Int=      0 D2E=      0 Chk=      5 Scr=      1
 Normal termination of Gaussian 16 at Fri Mar 28 19:39:36 2025.
