 Entering Gaussian System, Link 0=g16
 Initial command:
 /opt/g16/l1.exe "/home/aayush/scratches/g16/Gau-49432.inp" -scrdir="/home/aayush/scratches/g16/"
 Entering Link 1 = /opt/g16/l1.exe PID=     49435.
  
 Copyright (c) 1988,1990,1992,1993,1995,1998,2003,2009,2016,
            Gaussian, Inc.  All Rights Reserved.
  
 This is part of the Gaussian(R) 16 program.  It is based on
 the Gaussian(R) 09 system (copyright 2009, Gaussian, Inc.),
 the Gaussian(R) 03 system (copyright 2003, Gaussian, Inc.),
 the Gaussian(R) 98 system (copyright 1998, Gaussian, Inc.),
 the Gaussian(R) 94 system (copyright 1995, Gaussian, Inc.),
 the Gaussian 92(TM) system (copyright 1992, Gaussian, Inc.),
 the Gaussian 90(TM) system (copyright 1990, Gaussian, Inc.),
 the Gaussian 88(TM) system (copyright 1988, Gaussian, Inc.),
 the Gaussian 86(TM) system (copyright 1986, Carnegie Mellon
 University), and the Gaussian 82(TM) system (copyright 1983,
 Carnegie Mellon University). Gaussian is a federally registered
 trademark of Gaussian, Inc.
  
 This software contains proprietary and confidential information,
 including trade secrets, belonging to Gaussian, Inc.
  
 This software is provided under written license and may be
 used, copied, transmitted, or stored only in accord with that
 written license.
  
 The following legend is applicable only to US Government
 contracts under FAR:
  
                    RESTRICTED RIGHTS LEGEND
  
 Use, reproduction and disclosure by the US Government is
 subject to restrictions as set forth in subparagraphs (a)
 and (c) of the Commercial Computer Software - Restricted
 Rights clause in FAR 52.227-19.
  
 Gaussian, Inc.
 340 Quinnipiac St., Bldg. 40, Wallingford CT 06492
  
  
 ---------------------------------------------------------------
 Warning -- This program may not be used in any manner that
 competes with the business of Gaussian, Inc. or will provide
 assistance to any competitor of Gaussian, Inc.  The licensee
 of this program is prohibited from giving any competitor of
 Gaussian, Inc. access to this program.  By using this program,
 the user acknowledges that Gaussian, Inc. is engaged in the
 business of creating and licensing software in the field of
 computational chemistry and represents and warrants to the
 licensee that it is not a competitor of Gaussian, Inc. and that
 it will not use this program in any manner prohibited above.
 ---------------------------------------------------------------
  

 Cite this work as:
 Gaussian 16, Revision A.03,
 M. J. Frisch, G. W. Trucks, H. B. Schlegel, G. E. Scuseria, 
 M. A. Robb, J. R. Cheeseman, G. Scalmani, V. Barone, 
 G. A. Petersson, H. Nakatsuji, X. Li, M. Caricato, A. V. Marenich, 
 J. Bloino, B. G. Janesko, R. Gomperts, B. Mennucci, H. P. Hratchian, 
 J. V. Ortiz, A. F. Izmaylov, J. L. Sonnenberg, D. Williams-Young, 
 F. Ding, F. Lipparini, F. Egidi, J. Goings, B. Peng, A. Petrone, 
 T. Henderson, D. Ranasinghe, V. G. Zakrzewski, J. Gao, N. Rega, 
 G. Zheng, W. Liang, M. Hada, M. Ehara, K. Toyota, R. Fukuda, 
 J. Hasegawa, M. Ishida, T. Nakajima, Y. Honda, O. Kitao, H. Nakai, 
 T. Vreven, K. Throssell, J. A. Montgomery, Jr., J. E. Peralta, 
 F. Ogliaro, M. J. Bearpark, J. J. Heyd, E. N. Brothers, K. N. Kudin, 
 V. N. Staroverov, T. A. Keith, R. Kobayashi, J. Normand, 
 K. Raghavachari, A. P. Rendell, J. C. Burant, S. S. Iyengar, 
 J. Tomasi, M. Cossi, J. M. Millam, M. Klene, C. Adamo, R. Cammi, 
 J. W. Ochterski, R. L. Martin, K. Morokuma, O. Farkas, 
 J. B. Foresman, and D. J. Fox, Gaussian, Inc., Wallingford CT, 2016.
 
 ******************************************
 Gaussian 16:  ES64L-G16RevA.03 25-Dec-2016
                 1-Jun-2025 
 ******************************************
 %nprocshared=24
 Will use up to   24 processors via shared memory.
 %mem=12GB
 %chk=ethyl_propiolate.chk
 --------------------------------------------------
 # opt=(calcfc,tight,noeigentest) freq 6-31+g m062x
 --------------------------------------------------
 1/7=10,10=4,11=1,18=20,19=15,26=3,38=1/1,3;
 2/9=110,12=2,17=6,18=5,40=1/2;
 3/5=1,6=6,7=10,11=2,25=1,30=1,71=2,74=-55,140=1/1,2,3;
 4//1;
 5/5=2,38=5/2;
 8/6=4,10=90,11=11/1;
 11/6=1,8=1,9=11,15=111,16=1/1,2,10;
 10/6=1,13=1/2;
 6/7=2,8=2,9=2,10=2,28=1/1;
 7/10=1,18=20,25=1/1,2,3,16;
 1/7=10,10=4,11=1,18=20,19=15,26=3/3(2);
 2/9=110/2;
 99//99;
 2/9=110/2;
 3/5=1,6=6,7=10,11=2,25=1,30=1,71=1,74=-55/1,2,3;
 4/5=5,16=3,69=1/1;
 5/5=2,38=5/2;
 7//1,2,3,16;
 1/7=10,11=1,18=20,19=15,26=3/3(-5);
 2/9=110/2;
 6/7=2,8=2,9=2,10=2,19=2,28=1/1;
 99/9=1/99;
 -----
 12182
 -----
 Symbolic Z-matrix:
 Charge =  0 Multiplicity = 1
 O                    -0.4985   -0.6824    0.6038 
 O                    -0.0477    1.5186    0.0492 
 C                    -1.6262   -0.9619   -0.2325 
 C                    -2.5152    0.2621   -0.2868 
 C                     0.2851    0.3524    0.1988 
 C                     1.6372   -0.0694   -0.0589 
 C                     2.7653   -0.4193   -0.2735 
 H                    -1.2903   -1.2698   -1.2285 
 H                    -2.1649   -1.7993    0.2213 
 H                    -3.5088   -0.0186   -0.6522 
 H                    -2.6283    0.7286    0.6972 
 H                    -2.1344    1.0139   -0.9844 
 H                     3.766    -0.7299   -0.4639 
 

 GradGradGradGradGradGradGradGradGradGradGradGradGradGradGradGradGradGrad
 Berny optimization.
 Initialization pass.
                           ----------------------------
                           !    Initial Parameters    !
                           ! (Angstroms and Degrees)  !
 --------------------------                            --------------------------
 ! Name  Definition              Value          Derivative Info.                !
 --------------------------------------------------------------------------------
 ! R1    R(1,3)                  1.4315         calculate D2E/DX2 analytically  !
 ! R2    R(1,5)                  1.3597         calculate D2E/DX2 analytically  !
 ! R3    R(2,5)                  1.2219         calculate D2E/DX2 analytically  !
 ! R4    R(3,4)                  1.5138         calculate D2E/DX2 analytically  !
 ! R5    R(3,8)                  1.0953         calculate D2E/DX2 analytically  !
 ! R6    R(3,9)                  1.0942         calculate D2E/DX2 analytically  !
 ! R7    R(4,10)                 1.0952         calculate D2E/DX2 analytically  !
 ! R8    R(4,11)                 1.0948         calculate D2E/DX2 analytically  !
 ! R9    R(4,12)                 1.094          calculate D2E/DX2 analytically  !
 ! R10   R(5,6)                  1.4396         calculate D2E/DX2 analytically  !
 ! R11   R(6,7)                  1.2005         calculate D2E/DX2 analytically  !
 ! R12   R(7,13)                 1.065          calculate D2E/DX2 analytically  !
 ! A1    A(3,1,5)              115.3766         calculate D2E/DX2 analytically  !
 ! A2    A(1,3,4)              109.0094         calculate D2E/DX2 analytically  !
 ! A3    A(1,3,8)              110.1541         calculate D2E/DX2 analytically  !
 ! A4    A(1,3,9)              107.1551         calculate D2E/DX2 analytically  !
 ! A5    A(4,3,8)              112.0115         calculate D2E/DX2 analytically  !
 ! A6    A(4,3,9)              110.1542         calculate D2E/DX2 analytically  !
 ! A7    A(8,3,9)              108.2384         calculate D2E/DX2 analytically  !
 ! A8    A(3,4,10)             109.7256         calculate D2E/DX2 analytically  !
 ! A9    A(3,4,11)             111.8983         calculate D2E/DX2 analytically  !
 ! A10   A(3,4,12)             111.9694         calculate D2E/DX2 analytically  !
 ! A11   A(10,4,11)            108.3812         calculate D2E/DX2 analytically  !
 ! A12   A(10,4,12)            106.2101         calculate D2E/DX2 analytically  !
 ! A13   A(11,4,12)            108.4363         calculate D2E/DX2 analytically  !
 ! A14   A(1,5,2)              127.2882         calculate D2E/DX2 analytically  !
 ! A15   A(1,5,6)              111.8141         calculate D2E/DX2 analytically  !
 ! A16   A(2,5,6)              120.8977         calculate D2E/DX2 analytically  !
 ! A17   L(5,6,7,8,-1)         180.081          calculate D2E/DX2 analytically  !
 ! A18   L(6,7,13,8,-1)        179.9905         calculate D2E/DX2 analytically  !
 ! A19   L(5,6,7,8,-2)         179.9396         calculate D2E/DX2 analytically  !
 ! A20   L(6,7,13,8,-2)        180.0097         calculate D2E/DX2 analytically  !
 ! D1    D(5,1,3,4)            -59.9941         calculate D2E/DX2 analytically  !
 ! D2    D(5,1,3,8)             63.2844         calculate D2E/DX2 analytically  !
 ! D3    D(5,1,3,9)           -179.1862         calculate D2E/DX2 analytically  !
 ! D4    D(3,1,5,2)             60.0043         calculate D2E/DX2 analytically  !
 ! D5    D(3,1,5,6)           -119.9554         calculate D2E/DX2 analytically  !
 ! D6    D(6,2,5,1)           -179.9564         calculate D2E/DX2 analytically  !
 ! D7    D(1,3,4,10)          -162.6891         calculate D2E/DX2 analytically  !
 ! D8    D(1,3,4,11)           -42.3464         calculate D2E/DX2 analytically  !
 ! D9    D(1,3,4,12)            79.6377         calculate D2E/DX2 analytically  !
 ! D10   D(8,3,4,10)            75.1469         calculate D2E/DX2 analytically  !
 ! D11   D(8,3,4,11)          -164.5104         calculate D2E/DX2 analytically  !
 ! D12   D(8,3,4,12)           -42.5262         calculate D2E/DX2 analytically  !
 ! D13   D(9,3,4,10)           -45.3817         calculate D2E/DX2 analytically  !
 ! D14   D(9,3,4,11)            74.961          calculate D2E/DX2 analytically  !
 ! D15   D(9,3,4,12)          -163.0548         calculate D2E/DX2 analytically  !
 --------------------------------------------------------------------------------
 Trust Radius=3.00D-01 FncErr=1.00D-07 GrdErr=1.00D-06 EigMax=2.50D+02 EigMin=1.00D-04
 Number of steps in this run=     57 maximum allowed number of steps=    100.
 GradGradGradGradGradGradGradGradGradGradGradGradGradGradGradGradGradGrad

                          Input orientation:                          
 ---------------------------------------------------------------------
 Center     Atomic      Atomic             Coordinates (Angstroms)
 Number     Number       Type             X           Y           Z
 ---------------------------------------------------------------------
      1          8           0       -0.498500   -0.682400    0.603800
      2          8           0       -0.047700    1.518600    0.049200
      3          6           0       -1.626200   -0.961900   -0.232500
      4          6           0       -2.515200    0.262100   -0.286800
      5          6           0        0.285100    0.352400    0.198800
      6          6           0        1.637200   -0.069400   -0.058900
      7          6           0        2.765300   -0.419300   -0.273500
      8          1           0       -1.290300   -1.269800   -1.228500
      9          1           0       -2.164900   -1.799300    0.221300
     10          1           0       -3.508800   -0.018600   -0.652200
     11          1           0       -2.628300    0.728600    0.697200
     12          1           0       -2.134400    1.013900   -0.984400
     13          1           0        3.766000   -0.729900   -0.463900
 ---------------------------------------------------------------------
                    Distance matrix (angstroms):
                    1          2          3          4          5
     1  O    0.000000
     2  O    2.314131   0.000000
     3  C    1.431512   2.953624   0.000000
     4  C    2.398401   2.789309   1.513752   0.000000
     5  C    1.359730   1.221949   2.359337   2.843526   0.000000
     6  C    2.318654   2.317826   3.387694   4.171841   1.439618
     7  C    3.389877   3.431117   4.425084   5.324299   2.640072
     8  H    2.080699   3.309342   1.095284   2.175752   2.674061
     9  H    2.042220   3.939621   1.094244   2.151801   3.260800
    10  H    3.328674   3.851514   2.147125   1.095240   3.905831
    11  H    2.556500   2.775518   2.174014   1.094838   2.979569
    12  H    2.841827   2.382723   2.174260   1.094010   2.773360
    13  H    4.396385   4.456830   5.402147   6.361517   3.705025
                    6          7          8          9         10
     6  C    0.000000
     7  C    1.200455   0.000000
     8  H    3.373304   4.252442   0.000000
     9  H    4.186530   5.143549   1.774039   0.000000
    10  H    5.180338   6.298278   2.611391   2.395822   0.000000
    11  H    4.404882   5.599183   3.080936   2.613714   1.776082
    12  H    4.031756   5.154270   2.446911   3.060839   1.750825
    13  H    2.265408   1.064953   5.142205   6.065368   7.311916
                   11         12         13
    11  H    0.000000
    12  H    1.775700   0.000000
    13  H    6.660514   6.174664   0.000000
 Stoichiometry    C5H6O2
 Framework group  C1[X(C5H6O2)]
 Deg. of freedom    33
 Full point group                 C1      NOp   1
 Largest Abelian subgroup         C1      NOp   1
 Largest concise Abelian subgroup C1      NOp   1
                         Standard orientation:                         
 ---------------------------------------------------------------------
 Center     Atomic      Atomic             Coordinates (Angstroms)
 Number     Number       Type             X           Y           Z
 ---------------------------------------------------------------------
      1          8           0        0.315697   -0.669064   -0.635423
      2          8           0       -0.117557    1.527803   -0.051242
      3          6           0        1.447733   -0.965383    0.189146
      4          6           0        2.344585    0.252488    0.251527
      5          6           0       -0.458576    0.365513   -0.212319
      6          6           0       -1.811319   -0.051179    0.050272
      7          6           0       -2.939946   -0.396812    0.268977
      8          1           0        1.117226   -1.283181    1.183841
      9          1           0        1.977970   -1.800514   -0.278589
     10          1           0        3.339086   -0.038571    0.606216
     11          1           0        2.453361    0.730072   -0.727631
     12          1           0        1.973495    0.998147    0.960852
     13          1           0       -3.941114   -0.703627    0.463015
 ---------------------------------------------------------------------
 Rotational constants (GHZ):           6.3569929           1.7262743           1.4561646
 Standard basis: 6-31+G (6D, 7F)
 There are   103 symmetry adapted cartesian basis functions of A   symmetry.
 There are   103 symmetry adapted basis functions of A   symmetry.
   103 basis functions,   206 primitive gaussians,   103 cartesian basis functions
    26 alpha electrons       26 beta electrons
       nuclear repulsion energy       278.9255758632 Hartrees.
 NAtoms=   13 NActive=   13 NUniq=   13 SFac= 1.00D+00 NAtFMM=   60 NAOKFM=F Big=F
 Integral buffers will be    131072 words long.
 Raffenetti 2 integral format.
 Two-electron integral symmetry is turned on.
 One-electron integrals computed using PRISM.
 NBasis=   103 RedAO= T EigKep=  1.45D-06  NBF=   103
 NBsUse=   103 1.00D-06 EigRej= -1.00D+00 NBFU=   103
 ExpMin= 4.38D-02 ExpMax= 5.48D+03 ExpMxC= 8.25D+02 IAcc=3 IRadAn=         5 AccDes= 0.00D+00
 Harris functional with IExCor= 1009 and IRadAn=       5 diagonalized for initial guess.
 HarFok:  IExCor= 1009 AccDes= 0.00D+00 IRadAn=         5 IDoV= 1 UseB2=F ITyADJ=14
 ICtDFT=  3500011 ScaDFX=  1.000000  1.000000  1.000000  1.000000
 FoFCou: FMM=F IPFlag=           0 FMFlag=      100000 FMFlg1=           0
         NFxFlg=           0 DoJE=T BraDBF=F KetDBF=T FulRan=T
         wScrn=  0.000000 ICntrl=       500 IOpCl=  0 I1Cent=   200000004 NGrid=           0
         NMat0=    1 NMatS0=      1 NMatT0=    0 NMatD0=    1 NMtDS0=    0 NMtDT0=    0
 Petite list used in FoFCou.
 Requested convergence on RMS density matrix=1.00D-08 within 128 cycles.
 Requested convergence on MAX density matrix=1.00D-06.
 Requested convergence on             energy=1.00D-06.
 No special actions if energy rises.
 SCF Done:  E(RM062X) =  -344.255204281     A.U. after   16 cycles
            NFock= 16  Conv=0.29D-08     -V/T= 2.0051
 DoSCS=F DFT=T ScalE2(SS,OS)=  1.000000  1.000000
 Range of M.O.s used for correlation:     1   103
 NBasis=   103 NAE=    26 NBE=    26 NFC=     0 NFV=     0
 NROrb=    103 NOA=    26 NOB=    26 NVA=    77 NVB=    77

 **** Warning!!: The largest alpha MO coefficient is  0.31643096D+03

 Symmetrizing basis deriv contribution to polar:
 IMax=3 JMax=2 DiffMx= 0.00D+00
 G2DrvN: will do    14 centers at a time, making    1 passes.
 Calling FoFCou, ICntrl=  3107 FMM=F I1Cent=   0 AccDes= 0.00D+00.
 End of G2Drv F.D. properties file   721 does not exist.
 End of G2Drv F.D. properties file   722 does not exist.
 End of G2Drv F.D. properties file   788 does not exist.
          IDoAtm=1111111111111
          Differentiating once with respect to nuclear coordinates.
 Keep R1 ints in memory in canonical form, NReq=36505788.
          There are    42 degrees of freedom in the 1st order CPHF.  IDoFFX=6 NUNeed=     0.
     36 vectors produced by pass  0 Test12= 4.77D-15 2.38D-09 XBig12= 2.95D-01 1.24D-01.
 AX will form    36 AO Fock derivatives at one time.
     36 vectors produced by pass  1 Test12= 4.77D-15 2.38D-09 XBig12= 4.40D-02 4.72D-02.
     36 vectors produced by pass  2 Test12= 4.77D-15 2.38D-09 XBig12= 6.45D-04 5.46D-03.
     36 vectors produced by pass  3 Test12= 4.77D-15 2.38D-09 XBig12= 3.53D-06 3.39D-04.
     36 vectors produced by pass  4 Test12= 4.77D-15 2.38D-09 XBig12= 1.40D-08 1.90D-05.
     36 vectors produced by pass  5 Test12= 4.77D-15 2.38D-09 XBig12= 5.13D-11 9.88D-07.
     19 vectors produced by pass  6 Test12= 4.77D-15 2.38D-09 XBig12= 1.54D-13 4.57D-08.
      2 vectors produced by pass  7 Test12= 4.77D-15 2.38D-09 XBig12= 6.40D-16 3.74D-09.
 InvSVY:  IOpt=1 It=  1 EMax= 1.11D-15
 Solved reduced A of dimension   237 with    36 vectors.
 End of Minotr F.D. properties file   721 does not exist.
 End of Minotr F.D. properties file   722 does not exist.
 End of Minotr F.D. properties file   788 does not exist.

 **********************************************************************

            Population analysis using the SCF density.

 **********************************************************************

 Orbital symmetries:
       Occupied  (A) (A) (A) (A) (A) (A) (A) (A) (A) (A) (A) (A)
                 (A) (A) (A) (A) (A) (A) (A) (A) (A) (A) (A) (A)
                 (A) (A)
       Virtual   (A) (A) (A) (A) (A) (A) (A) (A) (A) (A) (A) (A)
                 (A) (A) (A) (A) (A) (A) (A) (A) (A) (A) (A) (A)
                 (A) (A) (A) (A) (A) (A) (A) (A) (A) (A) (A) (A)
                 (A) (A) (A) (A) (A) (A) (A) (A) (A) (A) (A) (A)
                 (A) (A) (A) (A) (A) (A) (A) (A) (A) (A) (A) (A)
                 (A) (A) (A) (A) (A) (A) (A) (A) (A) (A) (A) (A)
                 (A) (A) (A) (A) (A)
 The electronic state is 1-A.
 Alpha  occ. eigenvalues --  -19.69289 -19.67277 -10.73320 -10.62225 -10.58883
 Alpha  occ. eigenvalues --  -10.58439 -10.53990  -1.26328  -1.18297  -0.90792
 Alpha  occ. eigenvalues --   -0.87482  -0.77848  -0.72699  -0.63408  -0.61045
 Alpha  occ. eigenvalues --   -0.58796  -0.58059  -0.51767  -0.50450  -0.46523
 Alpha  occ. eigenvalues --   -0.44970  -0.42028  -0.39645  -0.37747  -0.37081
 Alpha  occ. eigenvalues --   -0.35910
 Alpha virt. eigenvalues --   -0.03708   0.02024   0.02538   0.03717   0.04292
 Alpha virt. eigenvalues --    0.04648   0.04769   0.06763   0.07387   0.08167
 Alpha virt. eigenvalues --    0.08574   0.09104   0.09663   0.12100   0.12929
 Alpha virt. eigenvalues --    0.13407   0.13862   0.15364   0.16892   0.18348
 Alpha virt. eigenvalues --    0.18988   0.19681   0.20657   0.22400   0.23546
 Alpha virt. eigenvalues --    0.25171   0.26704   0.27638   0.28582   0.30962
 Alpha virt. eigenvalues --    0.31162   0.31618   0.32749   0.33542   0.34346
 Alpha virt. eigenvalues --    0.35627   0.37555   0.38003   0.39929   0.41370
 Alpha virt. eigenvalues --    0.42286   0.56076   0.60063   0.68616   0.70172
 Alpha virt. eigenvalues --    0.71781   0.72430   0.73109   0.73824   0.76850
 Alpha virt. eigenvalues --    0.80591   0.82869   0.85149   0.90323   0.91955
 Alpha virt. eigenvalues --    0.95226   0.96181   1.02853   1.07208   1.09683
 Alpha virt. eigenvalues --    1.12214   1.13989   1.17824   1.19821   1.22429
 Alpha virt. eigenvalues --    1.29613   1.31598   1.32740   1.37430   1.41402
 Alpha virt. eigenvalues --    1.42969   1.45379   1.58239   1.66605   1.74523
 Alpha virt. eigenvalues --    1.99862   2.02466
          Condensed to atoms (all electrons):
               1          2          3          4          5          6
     1  O    8.895683  -0.194488   0.081957  -0.012689   1.135231  -0.845436
     2  O   -0.194488   8.490520  -0.014918  -0.013356   0.577583  -0.166742
     3  C    0.081957  -0.014918   6.006619  -0.353309  -0.698453   0.375195
     4  C   -0.012689  -0.013356  -0.353309   6.055508   0.579339  -0.496668
     5  C    1.135231   0.577583  -0.698453   0.579339  21.749187  -1.929080
     6  C   -0.845436  -0.166742   0.375195  -0.496668  -1.929080  16.790973
     7  C   -0.695614  -0.355294   0.178725  -0.246163 -14.957235  -7.582440
     8  H   -0.056293  -0.002127   0.437634  -0.100232  -0.055553   0.053278
     9  H   -0.052883  -0.001406   0.401046  -0.040279   0.034051  -0.025380
    10  H    0.006114   0.000947  -0.040246   0.357948  -0.031264   0.033931
    11  H    0.009244  -0.003212  -0.067449   0.417679  -0.000269  -0.003721
    12  H   -0.007874  -0.013500  -0.050946   0.401612   0.088146  -0.061152
    13  H   -0.000991  -0.000310  -0.000086  -0.000255  -0.136866  -0.348689
               7          8          9         10         11         12
     1  O   -0.695614  -0.056293  -0.052883   0.006114   0.009244  -0.007874
     2  O   -0.355294  -0.002127  -0.001406   0.000947  -0.003212  -0.013500
     3  C    0.178725   0.437634   0.401046  -0.040246  -0.067449  -0.050946
     4  C   -0.246163  -0.100232  -0.040279   0.357948   0.417679   0.401612
     5  C  -14.957235  -0.055553   0.034051  -0.031264  -0.000269   0.088146
     6  C   -7.582440   0.053278  -0.025380   0.033931  -0.003721  -0.061152
     7  C   28.779840   0.012738  -0.004890   0.006642  -0.001707  -0.014206
     8  H    0.012738   0.528805  -0.036187   0.001849   0.003608  -0.005911
     9  H   -0.004890  -0.036187   0.501369  -0.004394  -0.002484   0.004091
    10  H    0.006642   0.001849  -0.004394   0.523580  -0.024256  -0.027945
    11  H   -0.001707   0.003608  -0.002484  -0.024256   0.462399  -0.023925
    12  H   -0.014206  -0.005911   0.004091  -0.027945  -0.023925   0.482744
    13  H    0.810244   0.000003  -0.000000   0.000000   0.000000  -0.000000
              13
     1  O   -0.000991
     2  O   -0.000310
     3  C   -0.000086
     4  C   -0.000255
     5  C   -0.136866
     6  C   -0.348689
     7  C    0.810244
     8  H    0.000003
     9  H   -0.000000
    10  H    0.000000
    11  H    0.000000
    12  H   -0.000000
    13  H    0.332650
 Mulliken charges:
               1
     1  O   -0.261962
     2  O   -0.303697
     3  C   -0.255769
     4  C   -0.549135
     5  C   -0.354817
     6  C    0.205932
     7  C    0.069360
     8  H    0.218389
     9  H    0.227347
    10  H    0.197094
    11  H    0.234092
    12  H    0.228866
    13  H    0.344299
 Sum of Mulliken charges =  -0.00000
 Mulliken charges with hydrogens summed into heavy atoms:
               1
     1  O   -0.261962
     2  O   -0.303697
     3  C    0.189967
     4  C    0.110918
     5  C   -0.354817
     6  C    0.205932
     7  C    0.413659
 APT charges:
               1
     1  O   -0.025366
     2  O   -0.250072
     3  C   -0.804546
     4  C   -1.450396
     5  C    0.161395
     6  C   -1.670596
     7  C    0.653678
     8  H    0.379941
     9  H    0.611335
    10  H    0.607963
    11  H    0.408509
    12  H    0.333504
    13  H    1.044651
 Sum of APT charges =  -0.00000
 APT charges with hydrogens summed into heavy atoms:
               1
     1  O   -0.025366
     2  O   -0.250072
     3  C    0.186730
     4  C   -0.100421
     5  C    0.161395
     6  C   -1.670596
     7  C    1.698329
 Electronic spatial extent (au):  <R**2>=            823.6461
 Charge=             -0.0000 electrons
 Dipole moment (field-independent basis, Debye):
    X=             -0.1139    Y=             -2.3424    Z=              1.3587  Tot=              2.7103
 Quadrupole moment (field-independent basis, Debye-Ang):
   XX=            -29.6226   YY=            -46.2631   ZZ=            -42.4252
   XY=              0.4983   XZ=             -0.5186   YZ=             -1.9292
 Traceless Quadrupole moment (field-independent basis, Debye-Ang):
   XX=              9.8144   YY=             -6.8261   ZZ=             -2.9882
   XY=              0.4983   XZ=             -0.5186   YZ=             -1.9292
 Octapole moment (field-independent basis, Debye-Ang**2):
  XXX=            -31.0814  YYY=             -7.4005  ZZZ=             -1.6599  XYY=              6.0975
  XXY=            -12.8721  XXZ=              5.2282  XZZ=              3.0575  YZZ=              2.1920
  YYZ=              0.2345  XYZ=              1.5144
 Hexadecapole moment (field-independent basis, Debye-Ang**3):
 XXXX=           -639.8671 YYYY=           -219.4208 ZZZZ=            -80.5387 XXXY=             36.6515
 XXXZ=            -28.4515 YYYX=             -6.8960 YYYZ=              0.9663 ZZZX=              0.4444
 ZZZY=             -1.4005 XXYY=           -169.0661 XXZZ=           -156.2998 YYZZ=            -47.0971
 XXYZ=             -6.3898 YYXZ=             -1.2733 ZZXY=             -0.2209
 N-N= 2.789255758632D+02 E-N=-1.361521440849D+03  KE= 3.425160912734D+02
  Exact polarizability:   0.000   0.000   0.000   0.000   0.000   0.000
 Approx polarizability:  86.308  12.577  67.968  -6.468   0.756  46.360
 Calling FoFJK, ICntrl=    100147 FMM=F ISym2X=0 I1Cent= 0 IOpClX= 0 NMat=1 NMatS=1 NMatT=0.
 ***** Axes restored to original set *****
 -------------------------------------------------------------------
 Center     Atomic                   Forces (Hartrees/Bohr)
 Number     Number              X              Y              Z
 -------------------------------------------------------------------
      1        8           0.013529616   -0.005963448    0.008846747
      2        8          -0.010718540    0.003443212    0.002878600
      3        6          -0.029873851    0.000755564   -0.003675198
      4        6          -0.017756924    0.004927142   -0.013619670
      5        6           0.026422451    0.004703737   -0.003807295
      6        6          -0.009640406    0.000537688    0.007390338
      7        6           0.017667390   -0.005345151   -0.003913321
      8        1           0.002146612    0.000010009    0.000289186
      9        1           0.007000842    0.001267588    0.002388487
     10        1          -0.001266022   -0.001206149    0.001087221
     11        1           0.001522002   -0.002938599   -0.001692862
     12        1           0.000086618   -0.000211758    0.004131407
     13        1           0.000880213    0.000020166   -0.000303638
 -------------------------------------------------------------------
 Cartesian Forces:  Max     0.029873851 RMS     0.009057091
 FormGI is forming the generalized inverse of G from B-inverse, IUseBI=4.

 GradGradGradGradGradGradGradGradGradGradGradGradGradGradGradGradGradGrad
 Berny optimization.
 Internal  Forces:  Max     0.037045238 RMS     0.011151968
 Search for a local minimum.
 Step number   1 out of a maximum of   57
 All quantities printed in internal units (Hartrees-Bohrs-Radians)
 Mixed Optimization -- RFO/linear search
 Second derivative matrix not updated -- analytic derivatives used.
 ITU=  0
     Eigenvalues ---   -0.01803   0.00038   0.00319   0.02639   0.04692
     Eigenvalues ---    0.04870   0.04973   0.05333   0.05921   0.06873
     Eigenvalues ---    0.07155   0.09941   0.10157   0.12481   0.13355
     Eigenvalues ---    0.14726   0.17432   0.19565   0.23255   0.24662
     Eigenvalues ---    0.31928   0.33564   0.34082   0.34598   0.34895
     Eigenvalues ---    0.35054   0.35589   0.38998   0.42376   0.44564
     Eigenvalues ---    0.70581   0.84780   1.18898
 RFO step:  Lambda=-2.35837965D-02 EMin=-1.80266588D-02
 Linear search not attempted -- first point.
 Iteration  1 RMS(Cart)=  0.22412304 RMS(Int)=  0.06829810
 Iteration  2 RMS(Cart)=  0.14941051 RMS(Int)=  0.02668157
 Iteration  3 RMS(Cart)=  0.09137786 RMS(Int)=  0.00196658
 Iteration  4 RMS(Cart)=  0.00381106 RMS(Int)=  0.00052331
 Iteration  5 RMS(Cart)=  0.00000185 RMS(Int)=  0.00052331
 Iteration  6 RMS(Cart)=  0.00000000 RMS(Int)=  0.00052331
 Variable       Old X    -DE/DX   Delta X   Delta X   Delta X     New X
                                 (Linear)    (Quad)   (Total)
    R1        2.70516   0.03601   0.00000   0.06178   0.06178   2.76694
    R2        2.56952   0.01608   0.00000   0.00346   0.00346   2.57297
    R3        2.30915   0.00585   0.00000   0.01127   0.01127   2.32042
    R4        2.86058   0.01105   0.00000   0.01641   0.01641   2.87699
    R5        2.06979   0.00039   0.00000  -0.00318  -0.00318   2.06661
    R6        2.06782  -0.00342   0.00000  -0.00841  -0.00841   2.05941
    R7        2.06970   0.00110   0.00000   0.00056   0.00056   2.07026
    R8        2.06894  -0.00293   0.00000  -0.00244  -0.00244   2.06651
    R9        2.06738  -0.00275   0.00000  -0.01116  -0.01116   2.05622
   R10        2.72048   0.00920   0.00000   0.01060   0.01060   2.73108
   R11        2.26853   0.01974   0.00000   0.01457   0.01457   2.28310
   R12        2.01247   0.00088   0.00000   0.00207   0.00207   2.01454
    A1        2.01370   0.03705   0.00000   0.09443   0.09443   2.10814
    A2        1.90257   0.03529   0.00000   0.07302   0.07303   1.97561
    A3        1.92255  -0.01336   0.00000  -0.04245  -0.04361   1.87895
    A4        1.87021  -0.01550   0.00000  -0.06802  -0.06848   1.80173
    A5        1.95497  -0.00539   0.00000   0.01086   0.01100   1.96597
    A6        1.92255  -0.00507   0.00000   0.00769   0.00854   1.93109
    A7        1.88912   0.00306   0.00000   0.01434   0.01300   1.90212
    A8        1.91507  -0.00020   0.00000  -0.00615  -0.00637   1.90870
    A9        1.95299  -0.00408   0.00000  -0.03162  -0.03196   1.92103
   A10        1.95424   0.00212   0.00000   0.00004  -0.00015   1.95409
   A11        1.89161   0.00111   0.00000   0.00152   0.00116   1.89276
   A12        1.85372   0.00119   0.00000   0.04294   0.04287   1.89659
   A13        1.89257   0.00012   0.00000  -0.00279  -0.00307   1.88950
   A14        2.22160  -0.01324   0.00000  -0.03476  -0.03482   2.18678
   A15        1.95152   0.00339   0.00000  -0.00766  -0.00771   1.94381
   A16        2.11006   0.00986   0.00000   0.04243   0.04237   2.15244
   A17        3.14301   0.00001   0.00000  -0.00337  -0.00337   3.13964
   A18        3.14143   0.00026   0.00000   0.00113   0.00113   3.14256
   A19        3.14054  -0.00184   0.00000  -0.02948  -0.02948   3.11106
   A20        3.14176  -0.00036   0.00000  -0.00382  -0.00382   3.13794
    D1       -1.04709  -0.00526   0.00000  -0.10914  -0.10943  -1.15653
    D2        1.10452   0.00276   0.00000  -0.07472  -0.07654   1.02798
    D3       -3.12739  -0.00970   0.00000  -0.11959  -0.11748   3.03831
    D4        1.04727  -0.00231   0.00000  -0.50880  -0.50901   0.53826
    D5       -2.09362  -0.00557   0.00000  -0.52886  -0.52865  -2.62227
    D6       -3.14083  -0.00352   0.00000  -0.02169  -0.02187   3.12048
    D7       -2.83946   0.00265   0.00000   0.02143   0.02151  -2.81795
    D8       -0.73908   0.00126   0.00000  -0.00139  -0.00121  -0.74029
    D9        1.38994  -0.00000   0.00000  -0.02797  -0.02775   1.36219
   D10        1.31156  -0.00138   0.00000   0.01726   0.01690   1.32846
   D11       -2.87125  -0.00277   0.00000  -0.00556  -0.00582  -2.87707
   D12       -0.74222  -0.00404   0.00000  -0.03214  -0.03237  -0.77459
   D13       -0.79206   0.00179   0.00000  -0.01340  -0.01335  -0.80541
   D14        1.30832   0.00041   0.00000  -0.03622  -0.03606   1.27225
   D15       -2.84584  -0.00086   0.00000  -0.06280  -0.06261  -2.90846
         Item               Value     Threshold  Converged?
 Maximum Force            0.037045     0.000015     NO 
 RMS     Force            0.011152     0.000010     NO 
 Maximum Displacement     1.314751     0.000060     NO 
 RMS     Displacement     0.415300     0.000040     NO 
 Predicted change in Energy=-1.753970D-02
 GradGradGradGradGradGradGradGradGradGradGradGradGradGradGradGradGradGrad

                          Input orientation:                          
 ---------------------------------------------------------------------
 Center     Atomic      Atomic             Coordinates (Angstroms)
 Number     Number       Type             X           Y           Z
 ---------------------------------------------------------------------
      1          8           0       -0.405928   -0.716309    0.212533
      2          8           0        0.069457    1.364437   -0.646536
      3          6           0       -1.732214   -0.885463   -0.384331
      4          6           0       -2.673555    0.274899   -0.092355
      5          6           0        0.427474    0.273877   -0.210333
      6          6           0        1.814083   -0.104979   -0.060475
      7          6           0        2.977225   -0.413840    0.046152
      8          1           0       -1.594452   -1.056506   -1.455654
      9          1           0       -2.098194   -1.802512    0.076894
     10          1           0       -3.707355   -0.043721   -0.265376
     11          1           0       -2.576649    0.582922    0.952433
     12          1           0       -2.464666    1.136871   -0.722705
     13          1           0        4.004074   -0.684676    0.139353
 ---------------------------------------------------------------------
                    Distance matrix (angstroms):
                    1          2          3          4          5
     1  O    0.000000
     2  O    2.300760   0.000000
     3  C    1.464204   2.894274   0.000000
     4  C    2.493508   3.003053   1.522436   0.000000
     5  C    1.361560   1.227913   2.457356   3.103273   0.000000
     6  C    2.318774   2.355073   3.645581   4.503801   1.445225
     7  C    3.400720   3.478103   4.752532   5.694283   2.653294
     8  H    2.076335   3.047003   1.093603   2.189906   2.721934
     9  H    2.015440   3.905334   1.089793   2.162249   3.282208
    10  H    3.402968   4.048766   2.150317   1.095535   4.147374
    11  H    2.635808   3.188941   2.157814   1.093549   3.236091
    12  H    2.923585   2.545461   2.177341   1.088105   3.061333
    13  H    4.410723   4.505296   5.763641   6.750200   3.719297
                    6          7          8          9         10
     6  C    0.000000
     7  C    1.208165   0.000000
     8  H    3.803951   4.854757   0.000000
     9  H    4.266897   5.262056   1.777354   0.000000
    10  H    5.525579   6.702063   2.628090   2.408297   0.000000
    11  H    4.558258   5.714927   3.074299   2.585688   1.776017
    12  H    4.504269   5.710519   2.470908   3.068164   1.774041
    13  H    2.274212   1.066048   5.833163   6.204122   7.748598
                   11         12         13
    11  H    0.000000
    12  H    1.767904   0.000000
    13  H    6.750838   6.775380   0.000000
 Stoichiometry    C5H6O2
 Framework group  C1[X(C5H6O2)]
 Deg. of freedom    33
 Full point group                 C1      NOp   1
 Largest Abelian subgroup         C1      NOp   1
 Largest concise Abelian subgroup C1      NOp   1
                         Standard orientation:                         
 ---------------------------------------------------------------------
 Center     Atomic      Atomic             Coordinates (Angstroms)
 Number     Number       Type             X           Y           Z
 ---------------------------------------------------------------------
      1          8           0        0.264420   -0.754635   -0.233602
      2          8           0       -0.156953    1.472758    0.159670
      3          6           0        1.608206   -0.813444    0.344908
      4          6           0        2.552598    0.236193   -0.224475
      5          6           0       -0.542405    0.319940   -0.014133
      6          6           0       -1.937667   -0.056246   -0.034167
      7          6           0       -3.107312   -0.358892   -0.034342
      8          1           0        1.505047   -0.741960    1.431286
      9          1           0        1.947463   -1.816265    0.086249
     10          1           0        3.587885   -0.056095   -0.017242
     11          1           0        2.423752    0.308594   -1.307990
     12          1           0        2.375449    1.219525    0.206392
     13          1           0       -4.139849   -0.624080   -0.033993
 ---------------------------------------------------------------------
 Rotational constants (GHZ):           7.4057783           1.5328192           1.3172971
 Standard basis: 6-31+G (6D, 7F)
 There are   103 symmetry adapted cartesian basis functions of A   symmetry.
 There are   103 symmetry adapted basis functions of A   symmetry.
   103 basis functions,   206 primitive gaussians,   103 cartesian basis functions
    26 alpha electrons       26 beta electrons
       nuclear repulsion energy       273.7359707284 Hartrees.
 NAtoms=   13 NActive=   13 NUniq=   13 SFac= 1.00D+00 NAtFMM=   60 NAOKFM=F Big=F
 Integral buffers will be    131072 words long.
 Raffenetti 2 integral format.
 Two-electron integral symmetry is turned on.
 One-electron integrals computed using PRISM.
 NBasis=   103 RedAO= T EigKep=  1.16D-06  NBF=   103
 NBsUse=   103 1.00D-06 EigRej= -1.00D+00 NBFU=   103
 Initial guess from the checkpoint file:  "ethyl_propiolate.chk"
 B after Tr=     0.000000    0.000000    0.000000
         Rot=    0.998838    0.047707   -0.006702   -0.001233 Ang=   5.52 deg.
 ExpMin= 4.38D-02 ExpMax= 5.48D+03 ExpMxC= 8.25D+02 IAcc=2 IRadAn=         4 AccDes= 0.00D+00
 Harris functional with IExCor= 1009 and IRadAn=       4 diagonalized for initial guess.
 HarFok:  IExCor= 1009 AccDes= 0.00D+00 IRadAn=         4 IDoV= 1 UseB2=F ITyADJ=14
 ICtDFT=  3500011 ScaDFX=  1.000000  1.000000  1.000000  1.000000
 FoFCou: FMM=F IPFlag=           0 FMFlag=      100000 FMFlg1=           0
         NFxFlg=           0 DoJE=T BraDBF=F KetDBF=T FulRan=T
         wScrn=  0.000000 ICntrl=       500 IOpCl=  0 I1Cent=   200000004 NGrid=           0
         NMat0=    1 NMatS0=      1 NMatT0=    0 NMatD0=    1 NMtDS0=    0 NMtDT0=    0
 Petite list used in FoFCou.
 Requested convergence on RMS density matrix=1.00D-08 within 128 cycles.
 Requested convergence on MAX density matrix=1.00D-06.
 Requested convergence on             energy=1.00D-06.
 No special actions if energy rises.
 SCF Done:  E(RM062X) =  -344.270546743     A.U. after   17 cycles
            NFock= 17  Conv=0.64D-08     -V/T= 2.0058
 Calling FoFJK, ICntrl=      2127 FMM=F ISym2X=0 I1Cent= 0 IOpClX= 0 NMat=1 NMatS=1 NMatT=0.
 ***** Axes restored to original set *****
 -------------------------------------------------------------------
 Center     Atomic                   Forces (Hartrees/Bohr)
 Number     Number              X              Y              Z
 -------------------------------------------------------------------
      1        8           0.006626172   -0.003808744   -0.003747961
      2        8          -0.004588791   -0.002906787   -0.004089476
      3        6          -0.006842700    0.005345049    0.002487683
      4        6          -0.001978002   -0.000577250   -0.000731017
      5        6           0.003251109    0.001571440    0.002564856
      6        6          -0.000601391   -0.000953385    0.003860104
      7        6           0.000721463    0.000144814   -0.000096538
      8        1          -0.000225200    0.001251597   -0.000762029
      9        1           0.002334542   -0.000523815    0.000235692
     10        1           0.000520882    0.000138503    0.000428701
     11        1          -0.000608409   -0.000883627    0.000112746
     12        1           0.001226498    0.001006272   -0.000154523
     13        1           0.000163828    0.000195933   -0.000108238
 -------------------------------------------------------------------
 Cartesian Forces:  Max     0.006842700 RMS     0.002550133

 GradGradGradGradGradGradGradGradGradGradGradGradGradGradGradGradGradGrad
 Berny optimization.
 Using GEDIIS/GDIIS optimizer.
 FormGI is forming the generalized inverse of G from B-inverse, IUseBI=4.
 Internal  Forces:  Max     0.008845689 RMS     0.002487965
 Search for a local minimum.
 Step number   2 out of a maximum of   57
 All quantities printed in internal units (Hartrees-Bohrs-Radians)
 Mixed Optimization -- RFO/linear search
 Update second derivatives using D2CorX and points    1    2
 DE= -1.53D-02 DEPred=-1.75D-02 R= 8.75D-01
 TightC=F SS=  1.41D+00  RLast= 7.82D-01 DXNew= 5.0454D-01 2.3460D+00
 Trust test= 8.75D-01 RLast= 7.82D-01 DXMaxT set to 5.05D-01
 ITU=  1  0
 Use linear search instead of GDIIS.
     Eigenvalues ---  -30.10643   0.00038   0.00321   0.01202   0.02639
     Eigenvalues ---    0.04709   0.04918   0.04977   0.05411   0.05965
     Eigenvalues ---    0.06869   0.07163   0.09952   0.10360   0.12518
     Eigenvalues ---    0.13563   0.14916   0.17529   0.19916   0.23468
     Eigenvalues ---    0.28033   0.32280   0.33578   0.34080   0.34768
     Eigenvalues ---    0.34924   0.35121   0.35655   0.42358   0.44569
     Eigenvalues ---    0.45978   0.84317   1.15136
 RFO step:  Lambda=-3.01064603D+01 EMin=-3.01064279D+01
 I=     1 Eig=   -3.01D+01 Dot1= -1.87D-02
 I=     1 Stepn= -6.00D-01 RXN=   6.00D-01 EDone=F
 Mixed    1 eigenvectors in step.  Raw Step.Grad=  1.87D-02.
 RFO eigenvector is Hessian eigenvector with negative curvature.
 Taking step of  6.00D-01 in eigenvector direction(s).  Step.Grad= -9.38D-03.
 Quartic linear search produced a step of  0.42196.
 Maximum step size (   0.505) exceeded in Quadratic search.
    -- Step size not scaled.
 Iteration  1 RMS(Cart)=  0.35630268 RMS(Int)=  0.03415032
 Iteration  2 RMS(Cart)=  0.12576380 RMS(Int)=  0.00323189
 Iteration  3 RMS(Cart)=  0.00516786 RMS(Int)=  0.00138800
 Iteration  4 RMS(Cart)=  0.00000942 RMS(Int)=  0.00138799
 Iteration  5 RMS(Cart)=  0.00000000 RMS(Int)=  0.00138799
 Variable       Old X    -DE/DX   Delta X   Delta X   Delta X     New X
                                 (Linear)    (Quad)   (Total)
    R1        2.76694   0.00372   0.02607  -0.28196  -0.25589   2.51106
    R2        2.57297  -0.00273   0.00146  -0.12969  -0.12823   2.44474
    R3        2.32042   0.00021   0.00476  -0.04468  -0.03993   2.28049
    R4        2.87699   0.00022   0.00692  -0.08640  -0.07948   2.79751
    R5        2.06661   0.00053  -0.00134  -0.00399  -0.00533   2.06128
    R6        2.05941  -0.00024  -0.00355   0.02658   0.02303   2.08244
    R7        2.07026  -0.00060   0.00024  -0.00859  -0.00835   2.06191
    R8        2.06651  -0.00020  -0.00103   0.02369   0.02266   2.08917
    R9        2.05622   0.00112  -0.00471   0.01951   0.01481   2.07103
   R10        2.73108   0.00081   0.00447  -0.07299  -0.06851   2.66256
   R11        2.28310   0.00075   0.00615  -0.15501  -0.14887   2.13423
   R12        2.01454   0.00010   0.00087  -0.00684  -0.00597   2.00857
    A1        2.10814  -0.00514   0.03985  -0.27929  -0.23945   1.86869
    A2        1.97561   0.00199   0.03082  -0.27296  -0.24079   1.73482
    A3        1.87895  -0.00057  -0.01840   0.10569   0.08508   1.96402
    A4        1.80173  -0.00189  -0.02890   0.11552   0.08533   1.88706
    A5        1.96597  -0.00095   0.00464   0.04523   0.05039   2.01636
    A6        1.93109   0.00093   0.00360   0.03598   0.04111   1.97220
    A7        1.90212   0.00035   0.00549  -0.01837  -0.01821   1.88391
    A8        1.90870   0.00029  -0.00269   0.00096  -0.00181   1.90689
    A9        1.92103  -0.00041  -0.01349   0.02712   0.01352   1.93456
   A10        1.95409  -0.00049  -0.00006  -0.01703  -0.01714   1.93695
   A11        1.89276  -0.00032   0.00049  -0.00881  -0.00847   1.88429
   A12        1.89659   0.00056   0.01809  -0.00088   0.01718   1.91377
   A13        1.88950   0.00038  -0.00130  -0.00160  -0.00296   1.88653
   A14        2.18678  -0.00611  -0.01469   0.10595   0.09119   2.27797
   A15        1.94381   0.00149  -0.00326  -0.03100  -0.03432   1.90949
   A16        2.15244   0.00462   0.01788  -0.07454  -0.05672   2.09571
   A17        3.13964   0.00100  -0.00142  -0.00106  -0.00248   3.13716
   A18        3.14256   0.00026   0.00048  -0.00206  -0.00158   3.14098
   A19        3.11106  -0.00090  -0.01244   0.00887  -0.00356   3.10749
   A20        3.13794  -0.00019  -0.00161   0.00225   0.00064   3.13858
    D1       -1.15653  -0.00179  -0.04618   0.01553  -0.03131  -1.18784
    D2        1.02798  -0.00206  -0.03230  -0.03575  -0.07270   0.95528
    D3        3.03831  -0.00276  -0.04957   0.04024  -0.00402   3.03430
    D4        0.53826  -0.00885  -0.21478  -0.10295  -0.31795   0.22031
    D5       -2.62227  -0.00839  -0.22307  -0.08078  -0.30364  -2.92591
    D6        3.12048   0.00046  -0.00923   0.02549   0.01606   3.13654
    D7       -2.81795   0.00017   0.00908  -0.01640  -0.00708  -2.82503
    D8       -0.74029  -0.00030  -0.00051  -0.01019  -0.01040  -0.75069
    D9        1.36219  -0.00042  -0.01171  -0.00495  -0.01638   1.34581
   D10        1.32846   0.00012   0.00713   0.01720   0.02436   1.35281
   D11       -2.87707  -0.00034  -0.00245   0.02340   0.02103  -2.85603
   D12       -0.77459  -0.00046  -0.01366   0.02864   0.01506  -0.75953
   D13       -0.80541  -0.00035  -0.00563  -0.01738  -0.02338  -0.82879
   D14        1.27225  -0.00081  -0.01522  -0.01118  -0.02671   1.24554
   D15       -2.90846  -0.00093  -0.02642  -0.00594  -0.03268  -2.94114
         Item               Value     Threshold  Converged?
 Maximum Force            0.008846     0.000015     NO 
 RMS     Force            0.002488     0.000010     NO 
 Maximum Displacement     1.186805     0.000060     NO 
 RMS     Displacement     0.474347     0.000040     NO 
 Predicted change in Energy=-5.439430D+00
 GradGradGradGradGradGradGradGradGradGradGradGradGradGradGradGradGradGrad

                          Input orientation:                          
 ---------------------------------------------------------------------
 Center     Atomic      Atomic             Coordinates (Angstroms)
 Number     Number       Type             X           Y           Z
 ---------------------------------------------------------------------
      1          8           0       -0.519651   -0.941113    0.098891
      2          8           0       -0.218778    0.935532   -1.144606
      3          6           0       -1.715960   -0.958240   -0.479249
      4          6           0       -2.259684    0.311795    0.052630
      5          6           0        0.147649    0.028536   -0.437912
      6          6           0        1.504697   -0.079723   -0.074739
      7          6           0        2.596471   -0.164027    0.201739
      8          1           0       -1.653938   -1.024404   -1.566253
      9          1           0       -2.259659   -1.845127   -0.115676
     10          1           0       -3.345438    0.311658   -0.055403
     11          1           0       -2.024002    0.421157    1.127205
     12          1           0       -1.836636    1.172432   -0.477857
     13          1           0        3.624231   -0.243476    0.460832
 ---------------------------------------------------------------------
                    Distance matrix (angstroms):
                    1          2          3          4          5
     1  O    0.000000
     2  O    2.271256   0.000000
     3  C    1.328794   2.504122   0.000000
     4  C    2.144675   2.446981   1.480378   0.000000
     5  C    1.293703   1.206784   2.109141   2.473079   0.000000
     6  C    2.206836   2.268418   3.362745   3.786828   1.408968
     7  C    3.213201   3.308671   4.437520   4.881688   2.538299
     8  H    2.016494   2.465527   1.090781   2.184751   2.372247
     9  H    1.972538   3.599438   1.101981   2.163478   3.067505
    10  H    3.094885   3.369211   2.108906   1.091116   3.525356
    11  H    2.275144   2.946954   2.139701   1.105539   2.705515
    12  H    2.556200   1.765825   2.134087   1.095939   2.290739
    13  H    4.217755   4.328535   5.469212   5.924138   3.601160
                    6          7          8          9         10
     6  C    0.000000
     7  C    1.129388   0.000000
     8  H    3.618565   4.683164   0.000000
     9  H    4.157969   5.148675   1.773318   0.000000
    10  H    4.865939   5.966463   2.632281   2.415423   0.000000
    11  H    3.761285   4.748442   3.079174   2.595444   1.776723
    12  H    3.590947   4.679787   2.458470   3.068516   1.787704
    13  H    2.192277   1.062889   5.707714   6.125178   7.010775
                   11         12         13
    11  H    0.000000
    12  H    1.782062   0.000000
    13  H    5.726109   5.719003   0.000000
 Stoichiometry    C5H6O2
 Framework group  C1[X(C5H6O2)]
 Deg. of freedom    33
 Full point group                 C1      NOp   1
 Largest Abelian subgroup         C1      NOp   1
 Largest concise Abelian subgroup C1      NOp   1
                         Standard orientation:                         
 ---------------------------------------------------------------------
 Center     Atomic      Atomic             Coordinates (Angstroms)
 Number     Number       Type             X           Y           Z
 ---------------------------------------------------------------------
      1          8           0        0.296708   -0.891027   -0.003340
      2          8           0        0.013562    1.332525    0.363057
      3          6           0        1.526334   -0.661326    0.444935
      4          6           0        1.995548    0.272121   -0.603890
      5          6           0       -0.366718    0.212103    0.125639
      6          6           0       -1.739449   -0.042229   -0.064405
      7          6           0       -2.842962   -0.237748   -0.204228
      8          1           0        1.533607   -0.267569    1.462140
      9          1           0        2.074509   -1.617287    0.447082
     10          1           0        3.085353    0.320537   -0.581170
     11          1           0        1.690683   -0.078131   -1.607184
     12          1           0        1.578863    1.274336   -0.452163
     13          1           0       -3.881697   -0.421394   -0.334752
 ---------------------------------------------------------------------
 Rotational constants (GHZ):           7.3987966           1.9163698           1.6748462
 Standard basis: 6-31+G (6D, 7F)
 There are   103 symmetry adapted cartesian basis functions of A   symmetry.
 There are   103 symmetry adapted basis functions of A   symmetry.
   103 basis functions,   206 primitive gaussians,   103 cartesian basis functions
    26 alpha electrons       26 beta electrons
       nuclear repulsion energy       294.9948878554 Hartrees.
 NAtoms=   13 NActive=   13 NUniq=   13 SFac= 1.00D+00 NAtFMM=   60 NAOKFM=F Big=F
 Integral buffers will be    131072 words long.
 Raffenetti 2 integral format.
 Two-electron integral symmetry is turned on.
 One-electron integrals computed using PRISM.
 NBasis=   103 RedAO= T EigKep=  1.02D-05  NBF=   103
 NBsUse=   102 1.00D-06 EigRej=  8.29D-07 NBFU=   102
 Initial guess from the checkpoint file:  "ethyl_propiolate.chk"
 B after Tr=    -0.000000   -0.000000   -0.000000
         Rot=    0.999405    0.030468   -0.015869   -0.003078 Ang=   3.95 deg.
 ExpMin= 4.38D-02 ExpMax= 5.48D+03 ExpMxC= 8.25D+02 IAcc=2 IRadAn=         4 AccDes= 0.00D+00
 Harris functional with IExCor= 1009 and IRadAn=       4 diagonalized for initial guess.
 HarFok:  IExCor= 1009 AccDes= 0.00D+00 IRadAn=         4 IDoV= 1 UseB2=F ITyADJ=14
 ICtDFT=  3500011 ScaDFX=  1.000000  1.000000  1.000000  1.000000
 FoFCou: FMM=F IPFlag=           0 FMFlag=      100000 FMFlg1=           0
         NFxFlg=           0 DoJE=T BraDBF=F KetDBF=T FulRan=T
         wScrn=  0.000000 ICntrl=       500 IOpCl=  0 I1Cent=   200000004 NGrid=           0
         NMat0=    1 NMatS0=      1 NMatT0=    0 NMatD0=    1 NMtDS0=    0 NMtDT0=    0
 Petite list used in FoFCou.
 Requested convergence on RMS density matrix=1.00D-08 within 128 cycles.
 Requested convergence on MAX density matrix=1.00D-06.
 Requested convergence on             energy=1.00D-06.
 No special actions if energy rises.
 SCF Done:  E(RM062X) =  -344.191589183     A.U. after   16 cycles
            NFock= 16  Conv=0.28D-08     -V/T= 2.0012
 Calling FoFJK, ICntrl=      2127 FMM=F ISym2X=0 I1Cent= 0 IOpClX= 0 NMat=1 NMatS=1 NMatT=0.
 ***** Axes restored to original set *****
 -------------------------------------------------------------------
 Center     Atomic                   Forces (Hartrees/Bohr)
 Number     Number              X              Y              Z
 -------------------------------------------------------------------
      1        8           0.070643503   -0.051376931    0.019230820
      2        8          -0.000910092    0.021532616   -0.044103327
      3        6          -0.110303889   -0.029649061   -0.007816817
      4        6          -0.071780174    0.032476108    0.005099073
      5        6           0.102995246    0.022377542    0.014560366
      6        6          -0.164951295    0.014601435   -0.038952569
      7        6           0.204249516   -0.014971634    0.051284505
      8        1          -0.001165887    0.003643533   -0.002911052
      9        1           0.001650142    0.005973565   -0.002672610
     10        1          -0.004744984    0.006525083    0.002987323
     11        1          -0.003732866   -0.005225450   -0.006737939
     12        1          -0.023022150   -0.005971118    0.009950460
     13        1           0.001072930    0.000064311    0.000081768
 -------------------------------------------------------------------
 Cartesian Forces:  Max     0.204249516 RMS     0.054414648

 GradGradGradGradGradGradGradGradGradGradGradGradGradGradGradGradGradGrad
 Berny optimization.
 Using GEDIIS/GDIIS optimizer.
 FormGI is forming the generalized inverse of G from B-inverse, IUseBI=4.
 Internal  Forces:  Max     0.230451119 RMS     0.064965305
 Search for a local minimum.
 Step number   3 out of a maximum of   57
 All quantities printed in internal units (Hartrees-Bohrs-Radians)
 Mixed Optimization -- RFO/linear search
 Update second derivatives using D2CorX and points    3    2
 ITU=  0  1  0
 Use linear search instead of GDIIS.
     Eigenvalues ---    0.00036   0.00320   0.00846   0.02639   0.04710
     Eigenvalues ---    0.04918   0.04977   0.05396   0.05937   0.06835
     Eigenvalues ---    0.07161   0.09948   0.10275   0.12425   0.13463
     Eigenvalues ---    0.14811   0.17466   0.19721   0.23375   0.25934
     Eigenvalues ---    0.32229   0.33568   0.34079   0.34723   0.34881
     Eigenvalues ---    0.35028   0.35558   0.40259   0.42381   0.44614
     Eigenvalues ---    0.83598   0.89972   1.36049
 RFO step:  Lambda=-1.33823591D-02 EMin= 3.61723769D-04
 Quartic linear search produced a step of -0.96140.
 Iteration  1 RMS(Cart)=  0.30794256 RMS(Int)=  0.01849240
 Iteration  2 RMS(Cart)=  0.03220252 RMS(Int)=  0.00090059
 Iteration  3 RMS(Cart)=  0.00072528 RMS(Int)=  0.00077929
 Iteration  4 RMS(Cart)=  0.00000028 RMS(Int)=  0.00077929
 Variable       Old X    -DE/DX   Delta X   Delta X   Delta X     New X
                                 (Linear)    (Quad)   (Total)
    R1        2.51106   0.19266   0.24601  -0.01327   0.23274   2.74380
    R2        2.44474   0.11328   0.12328  -0.03818   0.08510   2.52984
    R3        2.28049   0.04229   0.03839  -0.00439   0.03400   2.31449
    R4        2.79751   0.06584   0.07641  -0.01540   0.06101   2.85852
    R5        2.06128   0.00263   0.00513  -0.00132   0.00381   2.06508
    R6        2.08244  -0.00650  -0.02214   0.00073  -0.02141   2.06103
    R7        2.06191   0.00443   0.00803  -0.00416   0.00387   2.06578
    R8        2.08917  -0.00786  -0.02178   0.00564  -0.01614   2.07303
    R9        2.07103  -0.01840  -0.01423   0.00010  -0.01413   2.05689
   R10        2.66256   0.04210   0.06587  -0.01584   0.05003   2.71260
   R11        2.13423   0.21217   0.14312  -0.03546   0.10766   2.24189
   R12        2.00857   0.00105   0.00574  -0.00003   0.00570   2.01427
    A1        1.86869   0.23045   0.23020  -0.06098   0.16922   2.03791
    A2        1.73482   0.14776   0.23149  -0.02185   0.20906   1.94388
    A3        1.96402  -0.05178  -0.08179   0.00041  -0.08316   1.88086
    A4        1.88706  -0.04808  -0.08204  -0.03282  -0.11585   1.77121
    A5        2.01636  -0.00808  -0.04844   0.02030  -0.02743   1.98892
    A6        1.97220  -0.05783  -0.03952   0.02198  -0.01511   1.95709
    A7        1.88391   0.01753   0.01751   0.00628   0.02428   1.90819
    A8        1.90689   0.00593   0.00174  -0.00389  -0.00234   1.90455
    A9        1.93456  -0.00875  -0.01300  -0.02088  -0.03406   1.90050
   A10        1.93695   0.02150   0.01648  -0.00828   0.00813   1.94508
   A11        1.88429  -0.00320   0.00815  -0.00778   0.00005   1.88434
   A12        1.91377  -0.01445  -0.01652   0.03608   0.01948   1.93325
   A13        1.88653  -0.00198   0.00285   0.00551   0.00831   1.89484
   A14        2.27797   0.01066  -0.08767  -0.02711  -0.11475   2.16322
   A15        1.90949  -0.00182   0.03299  -0.00700   0.02602   1.93552
   A16        2.09571  -0.00880   0.05453   0.03416   0.08873   2.18444
   A17        3.13716   0.00120   0.00238   0.00731   0.00970   3.14686
   A18        3.14098   0.00008   0.00152   0.00201   0.00353   3.14451
   A19        3.10749  -0.00099   0.00343  -0.03065  -0.02723   3.08027
   A20        3.13858  -0.00014  -0.00061  -0.00569  -0.00630   3.13228
    D1       -1.18784  -0.06509   0.03010  -0.22524  -0.19644  -1.38428
    D2        0.95528  -0.00997   0.06990  -0.21425  -0.14598   0.80930
    D3        3.03430  -0.05119   0.00386  -0.22778  -0.22099   2.81330
    D4        0.22031  -0.02887   0.30568  -0.49758  -0.19179   0.02853
    D5       -2.92591  -0.01899   0.29192  -0.48309  -0.19128  -3.11719
    D6        3.13654   0.01079  -0.01544   0.01568   0.00034   3.13688
    D7       -2.82503   0.01231   0.00680   0.01174   0.01851  -2.80652
    D8       -0.75069   0.00677   0.01000  -0.01299  -0.00289  -0.75358
    D9        1.34581   0.01270   0.01574  -0.02540  -0.00964   1.33617
   D10        1.35281  -0.01791  -0.02342   0.01587  -0.00846   1.34435
   D11       -2.85603  -0.02345  -0.02022  -0.00885  -0.02986  -2.88589
   D12       -0.75953  -0.01752  -0.01448  -0.02127  -0.03661  -0.79614
   D13       -0.82879   0.01538   0.02248  -0.02956  -0.00631  -0.83510
   D14        1.24554   0.00983   0.02568  -0.05429  -0.02771   1.21784
   D15       -2.94114   0.01577   0.03142  -0.06671  -0.03446  -2.97560
         Item               Value     Threshold  Converged?
 Maximum Force            0.230451     0.000015     NO 
 RMS     Force            0.064965     0.000010     NO 
 Maximum Displacement     0.902365     0.000060     NO 
 RMS     Displacement     0.312926     0.000040     NO 
 Predicted change in Energy=-2.351663D-02
 GradGradGradGradGradGradGradGradGradGradGradGradGradGradGradGradGradGrad

                          Input orientation:                          
 ---------------------------------------------------------------------
 Center     Atomic      Atomic             Coordinates (Angstroms)
 Number     Number       Type             X           Y           Z
 ---------------------------------------------------------------------
      1          8           0       -0.413147   -0.840750   -0.014745
      2          8           0        0.080461    0.783112   -1.512338
      3          6           0       -1.795412   -0.833951   -0.459121
      4          6           0       -2.558822    0.330560    0.131864
      5          6           0        0.422734    0.003248   -0.632146
      6          6           0        1.756660   -0.130355   -0.119022
      7          6           0        2.866583   -0.232837    0.287198
      8          1           0       -1.794515   -0.855269   -1.551707
      9          1           0       -2.150211   -1.792909   -0.079601
     10          1           0       -3.630658    0.125247    0.068476
     11          1           0       -2.294881    0.426783    1.192280
     12          1           0       -2.314147    1.263708   -0.372237
     13          1           0        3.864655   -0.321586    0.650700
 ---------------------------------------------------------------------
                    Distance matrix (angstroms):
                    1          2          3          4          5
     1  O    0.000000
     2  O    2.263485   0.000000
     3  C    1.451955   2.691293   0.000000
     4  C    2.448956   3.142296   1.512661   0.000000
     5  C    1.338736   1.224777   2.377185   3.095242   0.000000
     6  C    2.285519   2.363343   3.637021   4.347272   1.435445
     7  C    3.349232   3.468855   4.759466   5.456791   2.621702
     8  H    2.066553   2.490257   1.092794   2.196535   2.549282
     9  H    1.981970   3.696555   1.090650   2.172740   3.186147
    10  H    3.360425   4.087073   2.136949   1.093162   4.115306
    11  H    2.569917   3.617206   2.136831   1.096999   3.300507
    12  H    2.858382   2.695357   2.162593   1.088462   3.024373
    13  H    4.360268   4.496578   5.790559   6.477310   3.687550
                    6          7          8          9         10
     6  C    0.000000
     7  C    1.186359   0.000000
     8  H    3.897298   5.049240   0.000000
     9  H    4.246090   5.266553   1.781231   0.000000
    10  H    5.396636   6.510776   2.637769   2.427544   0.000000
    11  H    4.294752   5.281570   3.069770   2.562351   1.771486
    12  H    4.310336   5.432722   2.480167   3.074966   1.795417
    13  H    2.252262   1.065907   6.096033   6.235122   7.531160
                   11         12         13
    11  H    0.000000
    12  H    1.774409   0.000000
    13  H    6.228422   6.460430   0.000000
 Stoichiometry    C5H6O2
 Framework group  C1[X(C5H6O2)]
 Deg. of freedom    33
 Full point group                 C1      NOp   1
 Largest Abelian subgroup         C1      NOp   1
 Largest concise Abelian subgroup C1      NOp   1
                         Standard orientation:                         
 ---------------------------------------------------------------------
 Center     Atomic      Atomic             Coordinates (Angstroms)
 Number     Number       Type             X           Y           Z
 ---------------------------------------------------------------------
      1          8           0        0.273140   -0.725251    0.284858
      2          8           0       -0.174502    1.490700    0.172886
      3          6           0        1.669547   -0.432175    0.553795
      4          6           0        2.409272   -0.062843   -0.712912
      5          6           0       -0.543935    0.323776    0.129478
      6          6           0       -1.893976   -0.107962   -0.097447
      7          6           0       -3.016635   -0.446273   -0.278080
      8          1           0        1.705469    0.337226    1.328993
      9          1           0        2.014151   -1.379810    0.969430
     10          1           0        3.483223   -0.183967   -0.548712
     11          1           0        2.109528   -0.751159   -1.512775
     12          1           0        2.178995    0.953812   -1.026177
     13          1           0       -4.026111   -0.746841   -0.441716
 ---------------------------------------------------------------------
 Rotational constants (GHZ):           6.8771233           1.5585963           1.4077320
 Standard basis: 6-31+G (6D, 7F)
 There are   103 symmetry adapted cartesian basis functions of A   symmetry.
 There are   103 symmetry adapted basis functions of A   symmetry.
   103 basis functions,   206 primitive gaussians,   103 cartesian basis functions
    26 alpha electrons       26 beta electrons
       nuclear repulsion energy       276.9137556927 Hartrees.
 NAtoms=   13 NActive=   13 NUniq=   13 SFac= 1.00D+00 NAtFMM=   60 NAOKFM=F Big=F
 Integral buffers will be    131072 words long.
 Raffenetti 2 integral format.
 Two-electron integral symmetry is turned on.
 One-electron integrals computed using PRISM.
 NBasis=   103 RedAO= T EigKep=  1.56D-06  NBF=   103
 NBsUse=   103 1.00D-06 EigRej= -1.00D+00 NBFU=   103
 Lowest energy guess from the checkpoint file:  "ethyl_propiolate.chk"
 B after Tr=    -0.000000    0.000000   -0.000000
         Rot=    0.988733    0.149410   -0.007155   -0.005699 Ang=  17.22 deg.
 B after Tr=     0.000000    0.000000    0.000000
         Rot=    0.989473    0.143735    0.015275   -0.007094 Ang=  16.64 deg.
 Requested convergence on RMS density matrix=1.00D-08 within 128 cycles.
 Requested convergence on MAX density matrix=1.00D-06.
 Requested convergence on             energy=1.00D-06.
 No special actions if energy rises.
 SCF Done:  E(RM062X) =  -344.275752841     A.U. after   17 cycles
            NFock= 17  Conv=0.45D-08     -V/T= 2.0050
 Calling FoFJK, ICntrl=      2127 FMM=F ISym2X=0 I1Cent= 0 IOpClX= 0 NMat=1 NMatS=1 NMatT=0.
 ***** Axes restored to original set *****
 -------------------------------------------------------------------
 Center     Atomic                   Forces (Hartrees/Bohr)
 Number     Number              X              Y              Z
 -------------------------------------------------------------------
      1        8          -0.000680333   -0.005861711    0.005834441
      2        8          -0.002931985    0.005769311   -0.008031058
      3        6          -0.006623368   -0.011954773   -0.000646447
      4        6           0.000893255   -0.001409148    0.004713310
      5        6           0.010876277    0.004197122    0.002304462
      6        6          -0.037905992    0.004209162   -0.015876505
      7        6           0.046530389   -0.003672586    0.017046949
      8        1          -0.002628549    0.002654429   -0.000006381
      9        1          -0.003401919    0.001007668   -0.000804766
     10        1          -0.000563115    0.003435132   -0.001426628
     11        1          -0.001768364   -0.000080643   -0.001453806
     12        1          -0.001626075    0.001658116   -0.001518958
     13        1          -0.000170221    0.000047918   -0.000134612
 -------------------------------------------------------------------
 Cartesian Forces:  Max     0.046530389 RMS     0.011046306

 GradGradGradGradGradGradGradGradGradGradGradGradGradGradGradGradGradGrad
 Berny optimization.
 Using GEDIIS/GDIIS optimizer.
 FormGI is forming the generalized inverse of G from B-inverse, IUseBI=4.
 Internal  Forces:  Max     0.049478265 RMS     0.008543743
 Search for a local minimum.
 Step number   4 out of a maximum of   57
 All quantities printed in internal units (Hartrees-Bohrs-Radians)
 Mixed Optimization -- RFO/linear search
 Update second derivatives using D2CorX and points    2    4
 DE= -5.21D-03 DEPred=-2.35D-02 R= 2.21D-01
 Trust test= 2.21D-01 RLast= 8.27D-01 DXMaxT set to 5.05D-01
 ITU=  0  0  1  0
 Use linear search instead of GDIIS.
     Eigenvalues ---    0.00048   0.00322   0.01736   0.02639   0.04709
     Eigenvalues ---    0.04964   0.04984   0.05406   0.05959   0.06976
     Eigenvalues ---    0.07164   0.09944   0.10414   0.12450   0.13476
     Eigenvalues ---    0.14881   0.17489   0.19654   0.23107   0.25859
     Eigenvalues ---    0.32483   0.33570   0.34079   0.34677   0.34884
     Eigenvalues ---    0.35067   0.35685   0.39573   0.42379   0.46012
     Eigenvalues ---    0.83800   0.89682   1.55545
 RFO step:  Lambda=-3.54734657D-03 EMin= 4.77873298D-04
 Quartic linear search produced a step of -0.16426.
 Iteration  1 RMS(Cart)=  0.07442965 RMS(Int)=  0.00380916
 Iteration  2 RMS(Cart)=  0.00941945 RMS(Int)=  0.00011476
 Iteration  3 RMS(Cart)=  0.00006787 RMS(Int)=  0.00010686
 Iteration  4 RMS(Cart)=  0.00000001 RMS(Int)=  0.00010686
 Variable       Old X    -DE/DX   Delta X   Delta X   Delta X     New X
                                 (Linear)    (Quad)   (Total)
    R1        2.74380   0.01529   0.00380   0.02661   0.03041   2.77421
    R2        2.52984   0.01905   0.00708   0.01271   0.01979   2.54964
    R3        2.31449   0.01026   0.00097   0.00868   0.00966   2.32415
    R4        2.85852   0.00444   0.00303   0.00245   0.00548   2.86400
    R5        2.06508  -0.00003   0.00025   0.00003   0.00029   2.06537
    R6        2.06103  -0.00006  -0.00027  -0.00279  -0.00306   2.05797
    R7        2.06578  -0.00001   0.00074   0.00010   0.00084   2.06662
    R8        2.07303  -0.00184  -0.00107  -0.00537  -0.00645   2.06658
    R9        2.05689   0.00176  -0.00011   0.00591   0.00580   2.06269
   R10        2.71260   0.00817   0.00304   0.00900   0.01204   2.72464
   R11        2.24189   0.04948   0.00677   0.02483   0.03160   2.27349
   R12        2.01427  -0.00021   0.00004   0.00052   0.00057   2.01484
    A1        2.03791   0.00726   0.01154   0.03024   0.04177   2.07968
    A2        1.94388  -0.00138   0.00521   0.02477   0.02989   1.97377
    A3        1.88086   0.00195  -0.00032  -0.00500  -0.00509   1.87578
    A4        1.77121   0.00371   0.00501   0.00147   0.00607   1.77728
    A5        1.98892  -0.00349  -0.00377  -0.04086  -0.04449   1.94443
    A6        1.95709  -0.00112  -0.00427   0.01072   0.00620   1.96328
    A7        1.90819   0.00127  -0.00100   0.01371   0.01276   1.92094
    A8        1.90455   0.00293   0.00068  -0.00444  -0.00387   1.90068
    A9        1.90050   0.00126   0.00337   0.02428   0.02758   1.92808
   A10        1.94508   0.00021   0.00148  -0.00665  -0.00530   1.93978
   A11        1.88434  -0.00118   0.00138  -0.00121   0.00013   1.88447
   A12        1.93325  -0.00311  -0.00602  -0.01812  -0.02431   1.90894
   A13        1.89484  -0.00011  -0.00088   0.00713   0.00616   1.90100
   A14        2.16322  -0.00302   0.00387  -0.01564  -0.01183   2.15138
   A15        1.93552   0.00542   0.00136   0.00709   0.00839   1.94390
   A16        2.18444  -0.00240  -0.00526   0.00847   0.00314   2.18759
   A17        3.14686   0.00149  -0.00119   0.02590   0.02471   3.17157
   A18        3.14451   0.00005  -0.00032   0.00101   0.00069   3.14520
   A19        3.08027  -0.00011   0.00506  -0.01696  -0.01190   3.06837
   A20        3.13228  -0.00003   0.00093  -0.00585  -0.00492   3.12736
    D1       -1.38428   0.00141   0.03741   0.15294   0.19040  -1.19387
    D2        0.80930  -0.00256   0.03592   0.11427   0.15021   0.95950
    D3        2.81330   0.00124   0.03696   0.12834   0.16523   2.97854
    D4        0.02853  -0.00100   0.08373  -0.18818  -0.10446  -0.07594
    D5       -3.11719  -0.00034   0.08130  -0.20717  -0.12586   3.04014
    D6        3.13688   0.00077  -0.00269  -0.02171  -0.02442   3.11247
    D7       -2.80652  -0.00271  -0.00188  -0.10043  -0.10244  -2.90896
    D8       -0.75358  -0.00175   0.00218  -0.09055  -0.08854  -0.84212
    D9        1.33617  -0.00094   0.00427  -0.07009  -0.06600   1.27017
   D10        1.34435  -0.00164  -0.00261  -0.08260  -0.08513   1.25922
   D11       -2.88589  -0.00068   0.00145  -0.07272  -0.07123  -2.95713
   D12       -0.79614   0.00013   0.00354  -0.05227  -0.04869  -0.84484
   D13       -0.83510   0.00037   0.00488  -0.07717  -0.07215  -0.90726
   D14        1.21784   0.00132   0.00894  -0.06729  -0.05826   1.15958
   D15       -2.97560   0.00214   0.01103  -0.04683  -0.03572  -3.01132
         Item               Value     Threshold  Converged?
 Maximum Force            0.049478     0.000015     NO 
 RMS     Force            0.008544     0.000010     NO 
 Maximum Displacement     0.226625     0.000060     NO 
 RMS     Displacement     0.070797     0.000040     NO 
 Predicted change in Energy=-2.306022D-03
 GradGradGradGradGradGradGradGradGradGradGradGradGradGradGradGradGradGrad

                          Input orientation:                          
 ---------------------------------------------------------------------
 Center     Atomic      Atomic             Coordinates (Angstroms)
 Number     Number       Type             X           Y           Z
 ---------------------------------------------------------------------
      1          8           0       -0.399706   -0.929717   -0.128805
      2          8           0        0.072499    0.843930   -1.464683
      3          6           0       -1.828917   -0.873206   -0.459460
      4          6           0       -2.529748    0.331019    0.136868
      5          6           0        0.433400   -0.007315   -0.653663
      6          6           0        1.765194   -0.135724   -0.116385
      7          6           0        2.887383   -0.207108    0.311403
      8          1           0       -1.914440   -0.885514   -1.548984
      9          1           0       -2.191164   -1.813173   -0.045658
     10          1           0       -3.610910    0.187282    0.056848
     11          1           0       -2.280383    0.432615    1.196788
     12          1           0       -2.246981    1.248345   -0.382740
     13          1           0        3.883073   -0.266434    0.688072
 ---------------------------------------------------------------------
                    Distance matrix (angstroms):
                    1          2          3          4          5
     1  O    0.000000
     2  O    2.270104   0.000000
     3  C    1.468050   2.752165   0.000000
     4  C    2.489401   3.098344   1.515562   0.000000
     5  C    1.349210   1.229887   2.430135   3.085394   0.000000
     6  C    2.305943   2.375468   3.684999   4.327645   1.441816
     7  C    3.394245   3.490377   4.825080   5.446590   2.644485
     8  H    2.076845   2.635529   1.092945   2.168099   2.661801
     9  H    1.999182   3.768023   1.089033   2.178420   3.243320
    10  H    3.404994   4.039028   2.136986   1.093606   4.110856
    11  H    2.673965   3.576124   2.156883   1.093588   3.313959
    12  H    2.867205   2.591166   2.163711   1.091530   2.972293
    13  H    4.410151   4.515278   5.857630   6.464135   3.710477
                    6          7          8          9         10
     6  C    0.000000
     7  C    1.203081   0.000000
     8  H    4.019233   5.194110   0.000000
     9  H    4.297861   5.338405   1.788048   0.000000
    10  H    5.388584   6.515224   2.570525   2.455200   0.000000
    11  H    4.291168   5.281946   3.067677   2.568111   1.769168
    12  H    4.252546   5.381623   2.454397   3.080525   1.783086
    13  H    2.269283   1.066208   6.244905   6.310873   7.534194
                   11         12         13
    11  H    0.000000
    12  H    1.778044   0.000000
    13  H    6.223797   6.404589   0.000000
 Stoichiometry    C5H6O2
 Framework group  C1[X(C5H6O2)]
 Deg. of freedom    33
 Full point group                 C1      NOp   1
 Largest Abelian subgroup         C1      NOp   1
 Largest concise Abelian subgroup C1      NOp   1
                         Standard orientation:                         
 ---------------------------------------------------------------------
 Center     Atomic      Atomic             Coordinates (Angstroms)
 Number     Number       Type             X           Y           Z
 ---------------------------------------------------------------------
      1          8           0        0.273793   -0.746831    0.335349
      2          8           0       -0.165913    1.478655    0.250246
      3          6           0        1.714457   -0.515726    0.497357
      4          6           0        2.375215    0.019934   -0.756993
      5          6           0       -0.548795    0.311789    0.183560
      6          6           0       -1.899639   -0.108039   -0.095361
      7          6           0       -3.037327   -0.417542   -0.334688
      8          1           0        1.844419    0.168216    1.339891
      9          1           0        2.071356   -1.509380    0.764316
     10          1           0        3.460462   -0.057337   -0.646344
     11          1           0        2.081642   -0.573700   -1.627251
     12          1           0        2.102317    1.062333   -0.931256
     13          1           0       -4.046703   -0.687220   -0.547368
 ---------------------------------------------------------------------
 Rotational constants (GHZ):           6.6614598           1.5410457           1.3977567
 Standard basis: 6-31+G (6D, 7F)
 There are   103 symmetry adapted cartesian basis functions of A   symmetry.
 There are   103 symmetry adapted basis functions of A   symmetry.
   103 basis functions,   206 primitive gaussians,   103 cartesian basis functions
    26 alpha electrons       26 beta electrons
       nuclear repulsion energy       274.9957015128 Hartrees.
 NAtoms=   13 NActive=   13 NUniq=   13 SFac= 1.00D+00 NAtFMM=   60 NAOKFM=F Big=F
 Integral buffers will be    131072 words long.
 Raffenetti 2 integral format.
 Two-electron integral symmetry is turned on.
 One-electron integrals computed using PRISM.
 NBasis=   103 RedAO= T EigKep=  1.75D-06  NBF=   103
 NBsUse=   103 1.00D-06 EigRej= -1.00D+00 NBFU=   103
 Initial guess from the checkpoint file:  "ethyl_propiolate.chk"
 B after Tr=     0.000000   -0.000000    0.000000
         Rot=    0.999291   -0.037443   -0.003835   -0.000323 Ang=  -4.31 deg.
 ExpMin= 4.38D-02 ExpMax= 5.48D+03 ExpMxC= 8.25D+02 IAcc=2 IRadAn=         4 AccDes= 0.00D+00
 Harris functional with IExCor= 1009 and IRadAn=       4 diagonalized for initial guess.
 HarFok:  IExCor= 1009 AccDes= 0.00D+00 IRadAn=         4 IDoV= 1 UseB2=F ITyADJ=14
 ICtDFT=  3500011 ScaDFX=  1.000000  1.000000  1.000000  1.000000
 FoFCou: FMM=F IPFlag=           0 FMFlag=      100000 FMFlg1=           0
         NFxFlg=           0 DoJE=T BraDBF=F KetDBF=T FulRan=T
         wScrn=  0.000000 ICntrl=       500 IOpCl=  0 I1Cent=   200000004 NGrid=           0
         NMat0=    1 NMatS0=      1 NMatT0=    0 NMatD0=    1 NMtDS0=    0 NMtDT0=    0
 Petite list used in FoFCou.
 Requested convergence on RMS density matrix=1.00D-08 within 128 cycles.
 Requested convergence on MAX density matrix=1.00D-06.
 Requested convergence on             energy=1.00D-06.
 No special actions if energy rises.
 SCF Done:  E(RM062X) =  -344.277388865     A.U. after   16 cycles
            NFock= 16  Conv=0.37D-08     -V/T= 2.0056
 Calling FoFJK, ICntrl=      2127 FMM=F ISym2X=0 I1Cent= 0 IOpClX= 0 NMat=1 NMatS=1 NMatT=0.
 ***** Axes restored to original set *****
 -------------------------------------------------------------------
 Center     Atomic                   Forces (Hartrees/Bohr)
 Number     Number              X              Y              Z
 -------------------------------------------------------------------
      1        8          -0.001233071   -0.002931437    0.007496885
      2        8           0.001400174    0.000669538   -0.002315050
      3        6           0.001290067   -0.003757372   -0.005533638
      4        6           0.002166410    0.000812940    0.002662402
      5        6          -0.002213116    0.004367932    0.001140887
      6        6          -0.007519663    0.000517174   -0.006264583
      7        6           0.010115899   -0.000568160    0.004059896
      8        1          -0.001080622   -0.000324891   -0.000469659
      9        1          -0.001450431    0.000332911   -0.000497012
[...]
 --------------------------                            --------------------------
 ! Name  Definition              Value          Derivative Info.                !
 --------------------------------------------------------------------------------
 ! R1    R(1,3)                  1.472          -DE/DX =    0.0                 !
 ! R2    R(1,5)                  1.3575         -DE/DX =    0.0                 !
 ! R3    R(2,5)                  1.2304         -DE/DX =    0.0                 !
 ! R4    R(3,4)                  1.5182         -DE/DX =    0.0                 !
 ! R5    R(3,8)                  1.0924         -DE/DX =    0.0                 !
 ! R6    R(3,9)                  1.0891         -DE/DX =    0.0                 !
 ! R7    R(4,10)                 1.0941         -DE/DX =    0.0                 !
 ! R8    R(4,11)                 1.0927         -DE/DX =    0.0                 !
 ! R9    R(4,12)                 1.0924         -DE/DX =    0.0                 !
 ! R10   R(5,6)                  1.4429         -DE/DX =    0.0                 !
 ! R11   R(6,7)                  1.208          -DE/DX =    0.0                 !
 ! R12   R(7,13)                 1.0662         -DE/DX =    0.0                 !
 ! A1    A(3,1,5)              117.2337         -DE/DX =    0.0                 !
 ! A2    A(1,3,4)              110.5062         -DE/DX =    0.0                 !
 ! A3    A(1,3,8)              108.2299         -DE/DX =    0.0                 !
 ! A4    A(1,3,9)              103.2565         -DE/DX =    0.0                 !
 ! A5    A(4,3,8)              111.8061         -DE/DX =    0.0                 !
 ! A6    A(4,3,9)              112.4221         -DE/DX =    0.0                 !
 ! A7    A(8,3,9)              110.2194         -DE/DX =    0.0                 !
 ! A8    A(3,4,10)             109.7882         -DE/DX =    0.0                 !
 ! A9    A(3,4,11)             110.3982         -DE/DX =    0.0                 !
 ! A10   A(3,4,12)             110.7398         -DE/DX =    0.0                 !
 ! A11   A(10,4,11)            108.4423         -DE/DX =    0.0                 !
 ! A12   A(10,4,12)            108.2517         -DE/DX =    0.0                 !
 ! A13   A(11,4,12)            109.1605         -DE/DX =    0.0                 !
 ! A14   A(1,5,2)              123.49           -DE/DX =    0.0                 !
 ! A15   A(1,5,6)              111.8304         -DE/DX =    0.0                 !
 ! A16   A(2,5,6)              124.679          -DE/DX =    0.0                 !
 ! A17   L(5,6,7,8,-1)         181.3818         -DE/DX =    0.0                 !
 ! A18   L(6,7,13,8,-1)        180.1457         -DE/DX =    0.0                 !
 ! A19   L(5,6,7,8,-2)         173.5381         -DE/DX =    0.0                 !
 ! A20   L(6,7,13,8,-2)        178.6984         -DE/DX =    0.0                 !
 ! D1    D(5,1,3,4)            -80.2226         -DE/DX =    0.0                 !
 ! D2    D(5,1,3,8)             42.5112         -DE/DX =    0.0                 !
 ! D3    D(5,1,3,9)            159.347          -DE/DX =    0.0                 !
 ! D4    D(3,1,5,2)             -0.8652         -DE/DX =    0.0                 !
 ! D5    D(3,1,5,6)            179.4188         -DE/DX =    0.0                 !
 ! D6    D(6,2,5,1)           -179.6795         -DE/DX =    0.0                 !
 ! D7    D(1,3,4,10)          -175.4234         -DE/DX =    0.0                 !
 ! D8    D(1,3,4,11)           -55.9192         -DE/DX =    0.0                 !
 ! D9    D(1,3,4,12)            65.0948         -DE/DX =    0.0                 !
 ! D10   D(8,3,4,10)            63.9546         -DE/DX =    0.0                 !
 ! D11   D(8,3,4,11)          -176.5413         -DE/DX =    0.0                 !
 ! D12   D(8,3,4,12)           -55.5273         -DE/DX =    0.0                 !
 ! D13   D(9,3,4,10)           -60.6412         -DE/DX =    0.0                 !
 ! D14   D(9,3,4,11)            58.8629         -DE/DX =    0.0                 !
 ! D15   D(9,3,4,12)           179.877          -DE/DX =    0.0                 !
 --------------------------------------------------------------------------------
 GradGradGradGradGradGradGradGradGradGradGradGradGradGradGradGradGradGrad


 ----------------------------------------------------------------------

 Electric dipole moment (input orientation):
 (Debye = 10**-18 statcoulomb cm , SI units = C m)
                  (au)            (Debye)         (10**-30 SI)
   Tot        0.723721D+00      0.183952D+01      0.613596D+01
   x         -0.126727D+00     -0.322108D+00     -0.107444D+01
   y         -0.423159D+00     -0.107556D+01     -0.358769D+01
   z          0.573279D+00      0.145713D+01      0.486046D+01

 Dipole polarizability, Alpha (input orientation).
 (esu units = cm**3 , SI units = C**2 m**2 J**-1)
 Alpha(0;0):
               (au)            (10**-24 esu)      (10**-40 SI)
   iso        0.597847D+02      0.885918D+01      0.985716D+01
   aniso      0.407998D+02      0.604591D+01      0.672698D+01
   xx         0.841467D+02      0.124693D+02      0.138739D+02
   yx         0.682652D+00      0.101159D+00      0.112554D+00
   yy         0.454763D+02      0.673889D+01      0.749802D+01
   zx         0.858656D+01      0.127240D+01      0.141573D+01
   zy        -0.556988D+01     -0.825372D+00     -0.918350D+00
   zz         0.497311D+02      0.736939D+01      0.819955D+01

 ----------------------------------------------------------------------

 Dipole orientation:
     8         -0.68664528         -1.29226082          1.08675893
     8         -0.41696202         -0.69841586         -3.17269813
     6         -3.44440624         -1.60086580          0.89336400
     6         -4.73327927          0.95742557          0.73374984
     6          0.59858604         -0.83461271         -1.08561828
     6          3.27298145         -0.54506167         -0.63971635
     6          5.52212041         -0.28841098         -0.34520391
     1         -3.84921969         -2.76800698         -0.76059841
     1         -3.92755622         -2.61712062          2.61655091
     1         -6.78581260          0.70909770          0.74598402
     1         -4.20752134          2.13029937          2.34992990
     1         -4.21029729          1.93201644         -1.00937493
     1          7.50826517         -0.06111458         -0.09435125

 Electric dipole moment (dipole orientation):
 (Debye = 10**-18 statcoulomb cm , SI units = C m)
                  (au)            (Debye)         (10**-30 SI)
   Tot        0.723721D+00      0.183952D+01      0.613596D+01
   x          0.000000D+00      0.000000D+00      0.000000D+00
   y          0.000000D+00      0.000000D+00      0.000000D+00
   z          0.723721D+00      0.183952D+01      0.613596D+01

 Dipole polarizability, Alpha (dipole orientation).
 (esu units = cm**3 , SI units = C**2 m**2 J**-1)
 Alpha(0;0):
               (au)            (10**-24 esu)      (10**-40 SI)
   iso        0.597847D+02      0.885918D+01      0.985716D+01
   aniso      0.407998D+02      0.604591D+01      0.672698D+01
   xx         0.859556D+02      0.127373D+02      0.141722D+02
   yx         0.305495D+01      0.452697D+00      0.503694D+00
   yy         0.411494D+02      0.609772D+01      0.678463D+01
   zx         0.793472D+00      0.117580D+00      0.130826D+00
   zy        -0.650327D+00     -0.963684D-01     -0.107224D+00
   zz         0.522490D+02      0.774250D+01      0.861469D+01

 ----------------------------------------------------------------------
 1\1\GINC-AJ\Freq\RM062X\6-31+G\C5H6O2\AAYUSH\01-Jun-2025\0\\#N Geom=Al
 lCheck Guess=TCheck SCRF=Check GenChk RM062X/6-31+G Freq\\12182\\0,1\O
 ,-0.4187737308,-0.8688789941,-0.0079208521\O,0.0982296315,0.6951867209
 ,-1.5846500721\C,-1.8258999453,-0.8578224592,-0.4400109183\C,-2.558824
 5782,0.3260636737,0.1652137552\C,0.4371654813,-0.0396011138,-0.6578358
 338\C,1.7781096682,-0.1344249065,-0.1335212792\C,2.9128906147,-0.18363
 99825,0.2777499178\H,-1.8479095243,-0.8336363099,-1.5319466815\H,-2.20
 6147526,-1.8115765779,-0.0769016959\H,-3.6200215517,0.2779887338,-0.09
 66838553\H,-2.4705812746,0.3123662571,1.254292708\H,-2.15475239,1.2669
 408443,-0.2154532636\H,3.9158151252,-0.2239658858,0.6372680709\\Versio
 n=ES64L-G16RevA.03\State=1-A\HF=-344.2784911\RMSD=2.787e-09\RMSF=1.950
 e-06\ZeroPoint=0.1020277\Thermal=0.1093953\Dipole=-0.1267271,-0.423159
 4,0.573279\DipoleDeriv=-1.6089322,-0.3216054,0.2016396,-0.4974944,-0.6
 924494,0.2182901,0.2556573,0.1963427,-0.5600909,-0.7587837,0.0884631,-
 0.1916117,-0.0870764,-0.6545011,0.3355502,0.0083923,0.361632,-0.817477
 3,0.9283356,0.0673327,-0.0520072,0.0184114,0.3410183,0.0131879,0.07754
 87,0.0767523,0.2613734,-0.1102573,0.003757,0.0284097,0.043955,-0.09243
 67,-0.0256653,0.0135254,-0.0657578,0.0271455,2.133919,0.2314277,0.1583
 249,0.5659962,1.0068131,-0.6115821,-0.1334344,-0.6214103,1.1328389,-0.
 652248,0.0046393,-0.1717464,-0.0039572,-0.0715077,0.0422911,-0.2000461
 ,0.0373095,-0.1384332,-0.2358427,-0.0004067,0.0058419,-0.0002427,-0.21
 67846,0.0009451,-0.0010785,0.0039282,-0.2149177,-0.0152036,0.0032632,0
 .0538179,0.0312228,0.0704464,0.0051653,-0.0377065,-0.0511189,-0.065295
 3,-0.016607,-0.0209243,0.0099001,-0.0533765,-0.0728492,0.0275873,0.025
 0259,0.0593159,0.0782946,-0.1347741,-0.0003747,-0.0357642,-0.0061719,0
 .0962517,-0.0285573,-0.053431,-0.0145979,0.0840317,0.1038891,0.0175874
 ,-0.0401363,0.0239656,0.0635836,0.0170216,0.0142441,-0.0245665,-0.1098
 546,0.097423,-0.0756993,0.0340243,-0.0383561,-0.0387969,0.0145247,0.02
 88856,0.0516619,0.0598907,0.269082,0.00254,-0.0006928,0.0031243,0.2612
 124,-0.0087586,0.0024172,-0.009491,0.2624942\Polar=84.1466733,0.682651
 9,45.4762625,8.5865559,-5.5698834,49.7310978\Quadrupole=8.5698881,-3.9
 221095,-4.6477785,0.4720934,2.3723033,2.6788982\PG=C01 [X(C5H6O2)]\NIm
 ag=0\\0.46816494,0.11598877,0.23285440,-0.01042523,-0.13792873,0.22862
 300,0.02239780,-0.02414548,0.02426013,0.14874516,-0.01916614,-0.035243
 09,0.06427809,-0.09703394,0.31074058,0.01730837,0.06170815,-0.03500153
 ,0.14576688,-0.34164686,0.45903191,-0.15057022,-0.01113885,-0.02249569
 ,-0.00004549,0.01155690,-0.01208034,0.42378153,0.01066513,-0.06928434,
 0.01420755,-0.00124856,-0.00209697,-0.00319349,0.05391233,0.59387917,-
 0.04519414,0.00878399,-0.08996211,-0.00054472,0.00090797,-0.00577599,-
 0.04367157,-0.04382082,0.61267593,-0.04128612,0.02827872,0.01182366,0.
 00020242,-0.00096266,0.00268553,-0.09611493,0.03499666,0.02279724,0.56
 722550,0.00115344,0.00251234,0.00292628,0.00185493,-0.00152536,0.00004
 386,0.04416873,-0.17096560,-0.04332811,0.03933330,0.54013127,-0.011460
 05,0.00661853,0.00744259,0.00019479,-0.00066637,0.00145035,0.02977629,
 -0.04469463,-0.11219941,0.01934391,-0.02971030,0.58160248,-0.19039024,
 -0.06209346,0.02908396,-0.15152894,0.09301253,-0.12716142,-0.04996506,
 -0.03287280,0.01806774,0.00199360,-0.00051112,0.00142003,0.66241576,-0
 .08349805,-0.13695748,0.05755953,0.09668878,-0.28000294,0.25699688,-0.
 02318300,-0.00592989,-0.00722945,0.00680402,0.00381252,0.00243918,-0.0
 1549440,0.48844103,0.05521922,0.06600287,-0.11802732,-0.13132241,0.254
 33524,-0.40526658,0.00752844,-0.00738193,0.01316989,-0.00345905,-0.002
 41762,-0.00180875,0.15726163,-0.30577867,0.61007246,-0.05517289,-0.015
 55227,-0.00357425,-0.01754195,0.01756780,-0.03320434,0.00425265,-0.003
 15746,0.00187692,-0.00052998,0.00026779,-0.00000396,-0.27704152,0.0109
 1297,-0.06744461,1.35825830,-0.03228375,0.00335573,-0.00033598,0.02772
 474,0.00773791,0.02828526,0.00063053,0.00173135,0.00594785,-0.00157992
 ,-0.00009967,-0.00091109,0.01526404,-0.08588445,-0.00950149,-0.0537991
 5,0.12062731,0.01421599,0.00484981,0.01096907,-0.04464901,0.02495916,-
 0.01651115,0.00025596,0.00546645,0.00195761,-0.00079043,-0.00010592,-0
 .00060591,-0.07243901,-0.01132294,-0.10941131,0.45317645,-0.03576867,0
 .28582386,-0.00308234,0.00145482,-0.00218566,-0.00336655,-0.00238113,0
 .00208872,0.00176598,-0.00010706,0.00065399,-0.00026249,-0.00010071,-0
 .00024379,0.00745816,0.00039415,-0.00360404,-1.02199508,0.04521317,-0.
 35170029,1.40548978,0.00080941,0.00018714,-0.00027605,-0.00103052,-0.0
 0091900,-0.00128534,-0.00048182,-0.00024009,-0.00064171,0.00001663,-0.
 00005435,0.00016992,0.00063028,0.01390778,0.00390110,0.04421270,-0.058
 86501,0.01046516,-0.05930513,0.08023871,-0.00175932,-0.00012839,-0.000
 73205,0.00064906,-0.00156247,0.00022791,0.00114279,-0.00053571,0.00011
 672,-0.00012368,0.00002830,0.00001206,-0.00372998,0.00380418,0.0120731
 3,-0.35049931,0.01077429,-0.18390866,0.48097642,-0.01570701,0.25125886
 ,-0.02165065,-0.00153233,-0.03916017,0.00043504,-0.00221130,0.00252736
 ,-0.04855459,-0.00220093,0.00691985,0.00223357,0.00043350,0.01842206,0
 .00259408,0.00482980,-0.00613635,-0.00031949,0.00031931,0.00069276,-0.
 00001850,0.00004150,-0.00000578,0.06355113,0.00035077,0.00015659,-0.00
 059561,0.00062649,-0.00121618,0.00058033,-0.00044625,-0.05382115,0.011
 03013,0.00100707,-0.00044949,-0.02936676,-0.00159419,0.00195630,-0.001
 97617,0.00018525,-0.00003132,0.00051190,0.00018249,0.00003145,0.000017
 75,-0.00274187,0.05442031,-0.00902196,0.00049241,-0.00758009,0.0022904
 4,0.00006295,0.00156425,-0.00350073,0.00624102,-0.32383688,0.00124485,
 0.00085455,-0.01097058,0.00195637,0.00301421,-0.00191441,-0.00016907,-
 0.00057512,-0.00031064,-0.00001377,0.00009482,0.00008887,0.00529207,-0
 .00790610,0.35009061,-0.03180194,-0.03144840,0.01131139,0.00123655,-0.
 00034037,0.00098103,-0.07375538,-0.07775488,0.03084174,0.00795228,0.01
 680770,-0.00567239,-0.00354087,0.00149600,-0.00589180,-0.00122991,-0.0
 0075857,0.00092719,-0.00042558,0.00014843,-0.00022648,0.00238219,0.000
 68437,0.00065022,0.09955911,0.00050224,0.00202419,0.00106325,-0.000217
 90,0.00029632,-0.00014810,-0.08791372,-0.26731020,0.08430423,-0.007363
 20,-0.02241635,0.00922180,0.00217180,0.00112300,-0.00064111,-0.0001929
 7,-0.00002730,-0.00022096,-0.00003117,0.00001433,0.00000958,0.00068990
 ,0.00103085,-0.00107498,0.08977541,0.28601528,-0.01109556,-0.01109328,
 0.00401552,0.00211280,-0.00005093,0.00134937,0.03809175,0.08795048,-0.
 08978292,-0.00443372,-0.01576501,0.00552412,-0.00214782,0.00165514,-0.
 00314896,-0.00039965,-0.00010601,0.00066351,-0.00003354,0.00002062,-0.
 00011192,0.01175312,0.02908334,-0.00821257,-0.03463966,-0.09018102,0.0
 8923495,-0.00188370,0.00249815,0.00253017,-0.00013328,-0.00020297,0.00
 072639,-0.01550070,-0.00417762,-0.00596315,-0.30194472,-0.01164299,-0.
 06264642,0.00174551,0.00125933,-0.00106176,-0.00022995,-0.00023930,-0.
 00025487,-0.00011087,0.00002083,-0.00000629,0.00019779,-0.00011727,0.0
 0055688,0.00043664,0.00029703,-0.00025128,0.33097826,0.00668136,-0.003
 28165,-0.00285091,-0.00069312,0.00102348,-0.00060942,0.02542084,0.0024
 7968,0.00784118,-0.01367434,-0.05003189,-0.00461495,-0.00031286,-0.002
 80507,0.00166154,0.00017519,0.00030908,0.00001809,0.00007311,0.0000111
 8,0.00003841,-0.00061867,0.00101926,-0.00015709,-0.00086708,0.00043154
 ,0.00091426,0.01212828,0.05165298,0.00294487,-0.00219113,-0.00031354,0
 .00007198,-0.00005455,-0.00046126,0.01349129,0.00134245,0.00269408,-0.
 06365719,-0.00385519,-0.06415713,-0.00013315,-0.00067618,0.00023373,0.
 00000792,0.00038111,0.00021793,0.00007866,-0.00005006,-0.00001056,-0.0
 0040659,0.00064652,-0.00017871,-0.00037641,0.00041318,0.00043477,0.069
 52387,0.00519042,0.06583326,0.00264406,-0.00104769,-0.00061707,-0.0003
 6245,0.00053616,-0.00051039,-0.00072394,0.00252977,0.01966176,-0.05113
 369,-0.00138209,-0.02448454,-0.00081744,-0.00105356,0.00126878,0.00007
 394,0.00005771,0.00002656,0.00001706,-0.00000679,-0.00001825,-0.001182
 82,0.00285995,0.00121539,0.00032000,-0.00074064,-0.00073080,-0.0019085
 2,0.00062936,-0.03389905,0.05193992,-0.00248160,0.00132339,0.00157658,
 -0.00037545,0.00015835,0.00022768,-0.00086157,-0.00166152,-0.03278981,
 0.00017172,-0.05078437,0.00893642,0.00019303,0.00021688,0.00027619,0.0
 0002105,-0.00008974,-0.00024965,-0.00003062,-0.00000351,0.00004377,0.0
 0317813,-0.00407726,-0.00137287,-0.00075274,0.00101055,0.00031069,-0.0
 0050083,-0.00056863,-0.00164501,-0.00241433,0.05387837,0.00004427,0.00
 117193,0.00164968,0.00040011,-0.00031584,0.00023142,-0.00221018,0.0002
 5971,-0.01470755,-0.02233601,0.00609224,-0.31982977,-0.00018569,0.0001
 9417,-0.00064662,0.00011326,-0.00000041,0.00004846,0.00008294,0.000001
 06,0.00005231,0.00083386,-0.00211499,0.00077491,0.00007573,-0.00019414
 ,0.00071911,0.00076358,0.00067895,-0.00695899,0.02446156,-0.00458968,0
 .34922964,0.00170394,-0.00154653,-0.00058559,-0.00007511,-0.00048882,0
 .00074656,0.00573474,0.01938992,-0.00541168,-0.08840504,-0.09040849,0.
 03532708,-0.00146031,0.00087696,-0.00076279,0.00012953,0.00013017,0.00
 029897,0.00012603,-0.00002766,0.00000035,0.00026432,-0.00099846,-0.000
 50818,-0.00119966,0.00302577,0.00177057,-0.01168257,-0.02893109,0.0123
 5546,0.00116023,0.00385194,-0.00204217,0.09373975,0.00048537,0.0027360
 2,0.00005686,-0.00149601,0.00130390,-0.00020351,-0.01168315,-0.0267806
 0,0.00917962,-0.08712509,-0.25015090,0.08257478,0.00120217,-0.00178398
 ,0.00161266,0.00002570,-0.00011365,-0.00040708,-0.00011871,0.00003561,
 -0.00002508,-0.00014804,0.00099160,0.00031610,0.00300416,-0.00218415,-
 0.00274491,0.00067817,-0.00021907,0.00050937,0.00003103,0.00058694,-0.
 00118005,0.09513203,0.27558279,-0.00032998,0.00151087,-0.00047404,-0.0
 0024013,0.00030574,-0.00096821,-0.00619564,-0.01561047,0.00569431,0.03
 682388,0.08522928,-0.08648193,0.00012866,-0.00048572,0.00137014,-0.000
 03139,0.00003416,-0.00014219,-0.00002608,-0.00000216,-0.00003166,-0.00
 070109,0.00011349,0.00048325,0.00205719,-0.00256074,-0.00066954,-0.003
 92792,-0.00809735,0.00267162,0.01362228,0.02927526,-0.01054652,-0.0411
 7204,-0.08971741,0.08907582,0.00092736,0.00028455,0.00003437,0.0000368
 1,0.00011394,0.00012567,-0.00030460,0.00002549,-0.00003398,0.00006960,
 0.00002601,0.00002698,-0.00146274,-0.00003301,-0.00159526,0.01134636,-
 0.00067897,0.00023974,-0.38559560,0.01497215,-0.12639950,0.00006794,0.
 00000165,0.00000750,0.00006658,-0.00000256,0.00000377,0.00003612,-0.00
 001098,-0.00000166,-0.00002634,0.00000127,-0.00000126,-0.00003586,0.00
 001238,-0.00000773,0.37487437,0.00079307,-0.00038324,0.00031917,-0.000
 65394,-0.00025701,-0.00075544,0.00001903,0.00000016,-0.00018505,0.0000
 9709,0.00002185,0.00000348,0.00040497,0.00390629,-0.00009260,-0.000666
 60,0.01134976,0.00180465,0.01475677,-0.03434423,0.00324239,-0.00003900
 ,-0.00001095,0.00001011,0.00000597,-0.00000806,0.00000664,-0.00000081,
 -0.00002089,-0.00001095,0.00000112,0.00001055,-0.00000296,-0.00000574,
 -0.00000452,0.00000504,-0.01471193,0.01974031,-0.00044647,0.00020297,-
 0.00060918,0.00101009,-0.00055212,0.00012951,-0.00013235,-0.00023060,-
 0.00004368,0.00008101,0.00000764,0.00002190,-0.00212131,-0.00017034,0.
 00330460,0.00015204,0.00177611,0.01120942,-0.12607355,0.00330967,-0.07
 903500,-0.00003110,-0.00002382,0.00000199,-0.00003775,0.00000901,-0.00
 001545,0.00001079,-0.00001312,-0.00000521,0.00000377,0.00000043,-0.000
 01607,-0.00001652,0.00002865,0.00001895,0.12760137,-0.00434448,0.06503
 825\\0.00000039,-0.00000062,-0.00000166,-0.00000066,0.00000387,0.00000
 192,0.00000029,-0.00000028,-0.00000147,-0.00000072,-0.00000166,0.00000
 029,0.00000102,0.00000178,0.00000036,-0.00000138,0.00000132,0.00000303
 ,0.00000222,0.00000165,-0.00000366,0.00000058,0.00000254,-0.00000172,0
 .00000111,-0.00000142,-0.00000435,-0.00000030,-0.00000222,0.00000054,-
 0.00000068,-0.00000476,0.00000074,-0.00000095,-0.00000096,0.00000293,-
 0.00000093,0.00000077,0.00000306\\\@


 A HARD FALL SHOULD MEAN A HIGH BOUNCE 
 IF ONE IS MADE OF THE RIGHT MATERIAL.

                -- THE CHEMIST ANALYST, MARCH 1950
 Job cpu time:       0 days  0 hours  5 minutes 52.8 seconds.
 Elapsed time:       0 days  0 hours  0 minutes 14.7 seconds.
 File lengths (MBytes):  RWF=     23 Int=      0 D2E=      0 Chk=      2 Scr=      1
 Normal termination of Gaussian 16 at Sun Jun  1 11:55:42 2025.
