 Entering Gaussian System, Link 0=g16
 Initial command:
 /opt/g16/l1.exe "/home/aayush/scratches/g16/Gau-61426.inp" -scrdir="/home/aayush/scratches/g16/"
 Entering Link 1 = /opt/g16/l1.exe PID=     61429.
  
 Copyright (c) 1988,1990,1992,1993,1995,1998,2003,2009,2016,
            Gaussian, Inc.  All Rights Reserved.
  
 This is part of the Gaussian(R) 16 program.  It is based on
 the Gaussian(R) 09 system (copyright 2009, Gaussian, Inc.),
 the Gaussian(R) 03 system (copyright 2003, Gaussian, Inc.),
 the Gaussian(R) 98 system (copyright 1998, Gaussian, Inc.),
 the Gaussian(R) 94 system (copyright 1995, Gaussian, Inc.),
 the Gaussian 92(TM) system (copyright 1992, Gaussian, Inc.),
 the Gaussian 90(TM) system (copyright 1990, Gaussian, Inc.),
 the Gaussian 88(TM) system (copyright 1988, Gaussian, Inc.),
 the Gaussian 86(TM) system (copyright 1986, Carnegie Mellon
 University), and the Gaussian 82(TM) system (copyright 1983,
 Carnegie Mellon University). Gaussian is a federally registered
 trademark of Gaussian, Inc.
  
 This software contains proprietary and confidential information,
 including trade secrets, belonging to Gaussian, Inc.
  
 This software is provided under written license and may be
 used, copied, transmitted, or stored only in accord with that
 written license.
  
 The following legend is applicable only to US Government
 contracts under FAR:
  
                    RESTRICTED RIGHTS LEGEND
  
 Use, reproduction and disclosure by the US Government is
 subject to restrictions as set forth in subparagraphs (a)
 and (c) of the Commercial Computer Software - Restricted
 Rights clause in FAR 52.227-19.
  
 Gaussian, Inc.
 340 Quinnipiac St., Bldg. 40, Wallingford CT 06492
  
  
 ---------------------------------------------------------------
 Warning -- This program may not be used in any manner that
 competes with the business of Gaussian, Inc. or will provide
 assistance to any competitor of Gaussian, Inc.  The licensee
 of this program is prohibited from giving any competitor of
 Gaussian, Inc. access to this program.  By using this program,
 the user acknowledges that Gaussian, Inc. is engaged in the
 business of creating and licensing software in the field of
 computational chemistry and represents and warrants to the
 licensee that it is not a competitor of Gaussian, Inc. and that
 it will not use this program in any manner prohibited above.
 ---------------------------------------------------------------
  

 Cite this work as:
 Gaussian 16, Revision A.03,
 M. J. Frisch, G. W. Trucks, H. B. Schlegel, G. E. Scuseria, 
 M. A. Robb, J. R. Cheeseman, G. Scalmani, V. Barone, 
 G. A. Petersson, H. Nakatsuji, X. Li, M. Caricato, A. V. Marenich, 
 J. Bloino, B. G. Janesko, R. Gomperts, B. Mennucci, H. P. Hratchian, 
 J. V. Ortiz, A. F. Izmaylov, J. L. Sonnenberg, D. Williams-Young, 
 F. Ding, F. Lipparini, F. Egidi, J. Goings, B. Peng, A. Petrone, 
 T. Henderson, D. Ranasinghe, V. G. Zakrzewski, J. Gao, N. Rega, 
 G. Zheng, W. Liang, M. Hada, M. Ehara, K. Toyota, R. Fukuda, 
 J. Hasegawa, M. Ishida, T. Nakajima, Y. Honda, O. Kitao, H. Nakai, 
 T. Vreven, K. Throssell, J. A. Montgomery, Jr., J. E. Peralta, 
 F. Ogliaro, M. J. Bearpark, J. J. Heyd, E. N. Brothers, K. N. Kudin, 
 V. N. Staroverov, T. A. Keith, R. Kobayashi, J. Normand, 
 K. Raghavachari, A. P. Rendell, J. C. Burant, S. S. Iyengar, 
 J. Tomasi, M. Cossi, J. M. Millam, M. Klene, C. Adamo, R. Cammi, 
 J. W. Ochterski, R. L. Martin, K. Morokuma, O. Farkas, 
 J. B. Foresman, and D. J. Fox, Gaussian, Inc., Wallingford CT, 2016.
 
 ******************************************
 Gaussian 16:  ES64L-G16RevA.03 25-Dec-2016
                20-Jun-2025 
 ******************************************
 %nprocshared=24
 Will use up to   24 processors via shared memory.
 %mem=12GB
 %chk=ethyl_propiolate_ts1.chk
 -------------------
 # freq 6-31+g m062x
 -------------------
 1/10=4,30=1,38=1/1,3;
 2/12=2,17=6,18=5,40=1/2;
 3/5=1,6=6,7=10,11=2,25=1,30=1,71=2,74=-55,140=1/1,2,3;
 4//1;
 5/5=2,38=5,98=1/2;
 8/6=4,10=90,11=11/1;
 11/6=1,8=1,9=11,15=111,16=1/1,2,10;
 10/6=1/2;
 6/7=2,8=2,9=2,10=2,28=1/1;
 7/8=1,10=1,25=1/1,2,3,16;
 1/10=4,30=1/3;
 99//99;
 -------------------
 Title Card Required
 -------------------
 Symbolic Z-matrix:
 Charge =  0 Multiplicity = 2
 C                     2.73568  -0.42282   0.41602 
 H                     3.77837  -0.46934   0.63312 
 C                     1.56323  -0.14898   0.10678 
 C                     0.15898  -0.56982  -0.14273 
 O                    -0.1995   -1.14975  -1.12494 
 O                    -0.62191  -0.15352   0.84972 
 C                    -2.04183  -0.30392   0.63939 
 C                    -2.56348   0.78417  -0.27818 
 H                    -2.46706  -0.23118   1.63866 
 H                    -2.23244  -1.29823   0.23423 
 H                    -3.64609   0.68773  -0.381 
 H                    -2.33795   1.7692    0.13236 
 H                    -2.11313   0.70167  -1.26762 
 O                     1.40633   1.59941  -0.37447 
 H                     1.49037   2.01494   0.49509 
 

 GradGradGradGradGradGradGradGradGradGradGradGradGradGradGradGradGradGrad
 Berny optimization.
 Initialization pass.
 Trust Radius=3.00D-01 FncErr=1.00D-07 GrdErr=1.00D-07 EigMax=2.50D+02 EigMin=1.00D-04
 Number of steps in this run=      2 maximum allowed number of steps=      2.
 GradGradGradGradGradGradGradGradGradGradGradGradGradGradGradGradGradGrad

                          Input orientation:                          
 ---------------------------------------------------------------------
 Center     Atomic      Atomic             Coordinates (Angstroms)
 Number     Number       Type             X           Y           Z
 ---------------------------------------------------------------------
      1          6           0        2.735683   -0.422820    0.416021
      2          1           0        3.778365   -0.469340    0.633115
      3          6           0        1.563230   -0.148980    0.106782
      4          6           0        0.158980   -0.569818   -0.142729
      5          8           0       -0.199499   -1.149747   -1.124939
      6          8           0       -0.621914   -0.153516    0.849715
      7          6           0       -2.041829   -0.303921    0.639390
      8          6           0       -2.563479    0.784165   -0.278184
      9          1           0       -2.467055   -0.231184    1.638664
     10          1           0       -2.232441   -1.298227    0.234229
     11          1           0       -3.646087    0.687728   -0.381003
     12          1           0       -2.337945    1.769204    0.132356
     13          1           0       -2.113126    0.701673   -1.267618
     14          8           0        1.406334    1.599407   -0.374471
     15          1           0        1.490372    2.014937    0.495088
 ---------------------------------------------------------------------
                    Distance matrix (angstroms):
                    1          2          3          4          5
     1  C    0.000000
     2  H    1.066058   0.000000
     3  C    1.243086   2.299235   0.000000
     4  C    2.640683   3.702969   1.487037   0.000000
     5  O    3.393858   4.401944   2.371895   1.195643   0.000000
     6  O    3.396185   4.416912   2.307991   1.329680   2.251704
     7  C    4.784209   5.822548   3.647482   2.350739   2.687463
     8  C    5.479037   6.528455   4.248374   3.043584   3.169450
     9  H    5.347903   6.330333   4.312380   3.191253   3.690944
    10  H    5.047934   6.080786   3.967887   2.528156   2.449946
    11  H    6.526527   7.582198   5.298585   4.014565   3.976019
    12  H    5.534179   6.532311   4.347327   3.432394   3.830668
    13  H    5.254529   6.300296   4.015990   2.836288   2.666474
    14  O    2.545869   3.304765   1.820186   2.512993   3.271047
    15  H    2.738560   3.380177   2.199688   2.976638   3.936417
                    6          7          8          9         10
     6  O    0.000000
     7  C    1.443266   0.000000
     8  C    2.433326   1.515913   0.000000
     9  H    2.008238   1.088419   2.171299   0.000000
    10  H    2.069537   1.090474   2.169910   1.779343   0.000000
    11  H    3.371644   2.144345   1.091747   2.512682   2.514145
    12  H    2.675111   2.154673   1.090739   2.507426   3.070935
    13  H    2.727299   2.157077   1.090230   3.072778   2.503873
    14  O    2.947060   4.066989   4.053801   4.733595   4.691213
    15  H    3.047901   4.227809   4.306560   4.691914   4.990435
                   11         12         13         14         15
    11  H    0.000000
    12  H    1.773235   0.000000
    13  H    1.770946   1.774850   0.000000
    14  O    5.134020   3.782239   3.740352   0.000000
    15  H    5.377009   3.853306   4.221018   0.967399   0.000000
 Stoichiometry    C5H7O3(2)
 Framework group  C1[X(C5H7O3)]
 Deg. of freedom    39
 Full point group                 C1      NOp   1
 Largest Abelian subgroup         C1      NOp   1
 Largest concise Abelian subgroup C1      NOp   1
                         Standard orientation:                         
 ---------------------------------------------------------------------
 Center     Atomic      Atomic             Coordinates (Angstroms)
 Number     Number       Type             X           Y           Z
 ---------------------------------------------------------------------
      1          6           0       -2.796418   -0.441101   -0.415331
      2          1           0       -3.838907   -0.483479   -0.634190
      3          6           0       -1.624298   -0.173290   -0.099615
      4          6           0       -0.220132   -0.598735    0.142445
      5          8           0        0.137707   -1.198429    1.112949
      6          8           0        0.561457   -0.162115   -0.840678
      7          6           0        1.981242   -0.316381   -0.632281
      8          6           0        2.501823    0.752954    0.307671
      9          1           0        2.407268   -0.223213   -1.629516
     10          1           0        2.171808   -1.318672   -0.247276
     11          1           0        3.584374    0.654740    0.409403
     12          1           0        2.276341    1.746080   -0.082930
     13          1           0        2.050681    0.650226    1.294849
     14          8           0       -1.468304    1.564986    0.417239
     15          1           0       -1.551747    1.998099   -0.443755
 ---------------------------------------------------------------------
 Rotational constants (GHZ):           3.7468502           1.3111572           1.1877105
 Standard basis: 6-31+G (6D, 7F)
 There are   118 symmetry adapted cartesian basis functions of A   symmetry.
 There are   118 symmetry adapted basis functions of A   symmetry.
   118 basis functions,   236 primitive gaussians,   118 cartesian basis functions
    31 alpha electrons       30 beta electrons
       nuclear repulsion energy       363.9731676368 Hartrees.
 NAtoms=   15 NActive=   15 NUniq=   15 SFac= 1.00D+00 NAtFMM=   60 NAOKFM=F Big=F
 Integral buffers will be    131072 words long.
 Raffenetti 2 integral format.
 Two-electron integral symmetry is turned on.
 One-electron integrals computed using PRISM.
 NBasis=   118 RedAO= T EigKep=  8.36D-06  NBF=   118
 NBsUse=   118 1.00D-06 EigRej= -1.00D+00 NBFU=   118
 ExpMin= 4.38D-02 ExpMax= 5.48D+03 ExpMxC= 8.25D+02 IAcc=3 IRadAn=         5 AccDes= 0.00D+00
 Harris functional with IExCor= 1009 and IRadAn=       5 diagonalized for initial guess.
 HarFok:  IExCor= 1009 AccDes= 0.00D+00 IRadAn=         5 IDoV= 1 UseB2=F ITyADJ=14
 ICtDFT=  3500011 ScaDFX=  1.000000  1.000000  1.000000  1.000000
 FoFCou: FMM=F IPFlag=           0 FMFlag=      100000 FMFlg1=           0
         NFxFlg=           0 DoJE=T BraDBF=F KetDBF=T FulRan=T
         wScrn=  0.000000 ICntrl=       500 IOpCl=  0 I1Cent=   200000004 NGrid=           0
         NMat0=    1 NMatS0=      1 NMatT0=    0 NMatD0=    1 NMtDS0=    0 NMtDT0=    0
 Petite list used in FoFCou.
 Initial guess <Sx>= 0.0000 <Sy>= 0.0000 <Sz>= 0.5000 <S**2>= 0.7500 S= 0.5000
 Requested convergence on RMS density matrix=1.00D-08 within 128 cycles.
 Requested convergence on MAX density matrix=1.00D-06.
 Requested convergence on             energy=1.00D-06.
 No special actions if energy rises.
 Restarting incremental Fock formation.
 SCF Done:  E(UM062X) =  -419.957526158     A.U. after   21 cycles
            NFock= 21  Conv=0.22D-08     -V/T= 2.0053
 <Sx>= 0.0000 <Sy>= 0.0000 <Sz>= 0.5000 <S**2>= 0.7857 S= 0.5177
 <L.S>=  0.00000000000    
 Annihilation of the first spin contaminant:
 S**2 before annihilation     0.7857,   after     0.7506
 DoSCS=F DFT=T ScalE2(SS,OS)=  1.000000  1.000000
 Range of M.O.s used for correlation:     1   118
 NBasis=   118 NAE=    31 NBE=    30 NFC=     0 NFV=     0
 NROrb=    118 NOA=    31 NOB=    30 NVA=    87 NVB=    88

 **** Warning!!: The largest alpha MO coefficient is  0.11353551D+03


 **** Warning!!: The largest beta MO coefficient is  0.10881171D+03

 Symmetrizing basis deriv contribution to polar:
 IMax=3 JMax=2 DiffMx= 0.00D+00
 G2DrvN: will do    16 centers at a time, making    1 passes.
 Calling FoFCou, ICntrl=  3107 FMM=F I1Cent=   0 AccDes= 0.00D+00.
 End of G2Drv F.D. properties file   721 does not exist.
 End of G2Drv F.D. properties file   722 does not exist.
 End of G2Drv F.D. properties file   788 does not exist.
          IDoAtm=111111111111111
          Differentiating once with respect to electric field.
                with respect to dipole field.
          Differentiating once with respect to nuclear coordinates.
 Keep R1 and R2 ints in memory in canonical form, NReq=71861349.
          There are    48 degrees of freedom in the 1st order CPHF.  IDoFFX=6 NUNeed=     3.
     45 vectors produced by pass  0 Test12= 1.11D-14 2.08D-09 XBig12= 8.25D+01 3.27D+00.
 AX will form    45 AO Fock derivatives at one time.
     45 vectors produced by pass  1 Test12= 1.11D-14 2.08D-09 XBig12= 1.13D+01 3.97D-01.
     45 vectors produced by pass  2 Test12= 1.11D-14 2.08D-09 XBig12= 3.23D-01 7.88D-02.
     45 vectors produced by pass  3 Test12= 1.11D-14 2.08D-09 XBig12= 3.31D-03 7.85D-03.
     45 vectors produced by pass  4 Test12= 1.11D-14 2.08D-09 XBig12= 2.99D-05 8.40D-04.
     45 vectors produced by pass  5 Test12= 1.11D-14 2.08D-09 XBig12= 2.57D-07 5.74D-05.
     34 vectors produced by pass  6 Test12= 1.11D-14 2.08D-09 XBig12= 1.85D-09 4.90D-06.
     12 vectors produced by pass  7 Test12= 1.11D-14 2.08D-09 XBig12= 1.12D-11 3.96D-07.
      4 vectors produced by pass  8 Test12= 1.11D-14 2.08D-09 XBig12= 6.23D-14 1.99D-08.
      1 vectors produced by pass  9 Test12= 1.11D-14 2.08D-09 XBig12= 5.11D-16 2.43D-09.
 InvSVY:  IOpt=1 It=  1 EMax= 1.15D-14
 Solved reduced A of dimension   321 with    48 vectors.
 Isotropic polarizability for W=    0.000000       69.84 Bohr**3.
 End of Minotr F.D. properties file   721 does not exist.
 End of Minotr F.D. properties file   722 does not exist.
 End of Minotr F.D. properties file   788 does not exist.

 **********************************************************************

            Population analysis using the SCF density.

 **********************************************************************

 Orbital symmetries:
 Alpha Orbitals:
       Occupied  (A) (A) (A) (A) (A) (A) (A) (A) (A) (A) (A) (A)
                 (A) (A) (A) (A) (A) (A) (A) (A) (A) (A) (A) (A)
                 (A) (A) (A) (A) (A) (A) (A)
       Virtual   (A) (A) (A) (A) (A) (A) (A) (A) (A) (A) (A) (A)
                 (A) (A) (A) (A) (A) (A) (A) (A) (A) (A) (A) (A)
                 (A) (A) (A) (A) (A) (A) (A) (A) (A) (A) (A) (A)
                 (A) (A) (A) (A) (A) (A) (A) (A) (A) (A) (A) (A)
                 (A) (A) (A) (A) (A) (A) (A) (A) (A) (A) (A) (A)
                 (A) (A) (A) (A) (A) (A) (A) (A) (A) (A) (A) (A)
                 (A) (A) (A) (A) (A) (A) (A) (A) (A) (A) (A) (A)
                 (A) (A) (A)
 Beta  Orbitals:
       Occupied  (A) (A) (A) (A) (A) (A) (A) (A) (A) (A) (A) (A)
                 (A) (A) (A) (A) (A) (A) (A) (A) (A) (A) (A) (A)
                 (A) (A) (A) (A) (A) (A)
       Virtual   (A) (A) (A) (A) (A) (A) (A) (A) (A) (A) (A) (A)
                 (A) (A) (A) (A) (A) (A) (A) (A) (A) (A) (A) (A)
                 (A) (A) (A) (A) (A) (A) (A) (A) (A) (A) (A) (A)
                 (A) (A) (A) (A) (A) (A) (A) (A) (A) (A) (A) (A)
                 (A) (A) (A) (A) (A) (A) (A) (A) (A) (A) (A) (A)
                 (A) (A) (A) (A) (A) (A) (A) (A) (A) (A) (A) (A)
                 (A) (A) (A) (A) (A) (A) (A) (A) (A) (A) (A) (A)
                 (A) (A) (A) (A)
 The electronic state is 2-A.
 Alpha  occ. eigenvalues --  -19.70891 -19.66926 -19.66697 -10.73131 -10.63804
 Alpha  occ. eigenvalues --  -10.61726 -10.61227 -10.54488  -1.28394  -1.19064
 Alpha  occ. eigenvalues --   -1.12067  -0.92357  -0.88601  -0.78932  -0.71667
 Alpha  occ. eigenvalues --   -0.65094  -0.62971  -0.59336  -0.57486  -0.54303
 Alpha  occ. eigenvalues --   -0.53631  -0.49446  -0.48334  -0.46573  -0.45403
 Alpha  occ. eigenvalues --   -0.42211  -0.41377  -0.38568  -0.37928  -0.37612
 Alpha  occ. eigenvalues --   -0.31794
 Alpha virt. eigenvalues --   -0.00442   0.01662   0.02178   0.02701   0.03651
 Alpha virt. eigenvalues --    0.03857   0.05136   0.06495   0.07438   0.07974
 Alpha virt. eigenvalues --    0.08524   0.09037   0.09519   0.11476   0.12537
 Alpha virt. eigenvalues --    0.12688   0.13997   0.14632   0.15277   0.15830
 Alpha virt. eigenvalues --    0.16797   0.18732   0.19252   0.20264   0.22671
 Alpha virt. eigenvalues --    0.23329   0.23894   0.24825   0.25983   0.27163
 Alpha virt. eigenvalues --    0.28713   0.29346   0.29849   0.31393   0.32012
 Alpha virt. eigenvalues --    0.33014   0.34715   0.35427   0.35838   0.36704
 Alpha virt. eigenvalues --    0.38389   0.38505   0.40674   0.43483   0.44898
 Alpha virt. eigenvalues --    0.47460   0.56225   0.58017   0.68000   0.69853
 Alpha virt. eigenvalues --    0.69920   0.72265   0.73779   0.74817   0.76226
 Alpha virt. eigenvalues --    0.79725   0.81388   0.82789   0.87522   0.89638
 Alpha virt. eigenvalues --    0.93892   0.97334   0.99805   1.07177   1.10342
 Alpha virt. eigenvalues --    1.11664   1.13927   1.17169   1.18428   1.20993
 Alpha virt. eigenvalues --    1.22335   1.24505   1.27886   1.30548   1.32400
 Alpha virt. eigenvalues --    1.35084   1.38491   1.40410   1.42443   1.44693
 Alpha virt. eigenvalues --    1.48477   1.52492   1.65893   1.70489   1.84457
 Alpha virt. eigenvalues --    2.01022   2.02305
  Beta  occ. eigenvalues --  -19.70891 -19.66717 -19.65983 -10.73074 -10.63972
  Beta  occ. eigenvalues --  -10.61725 -10.60702 -10.54489  -1.28381  -1.19083
  Beta  occ. eigenvalues --   -1.08893  -0.91342  -0.87861  -0.78499  -0.71096
  Beta  occ. eigenvalues --   -0.64902  -0.62068  -0.59131  -0.57279  -0.54009
  Beta  occ. eigenvalues --   -0.52130  -0.49151  -0.46972  -0.45377  -0.42702
  Beta  occ. eigenvalues --   -0.42079  -0.39569  -0.38511  -0.36803  -0.36237
  Beta virt. eigenvalues --   -0.09657   0.00592   0.01560   0.02347   0.02898
  Beta virt. eigenvalues --    0.03712   0.03997   0.04968   0.06359   0.07534
  Beta virt. eigenvalues --    0.07819   0.08542   0.08825   0.09586   0.11810
  Beta virt. eigenvalues --    0.12344   0.12801   0.14211   0.14847   0.15660
  Beta virt. eigenvalues --    0.15780   0.16676   0.18838   0.19748   0.20269
  Beta virt. eigenvalues --    0.22994   0.23430   0.23856   0.24642   0.25978
  Beta virt. eigenvalues --    0.27254   0.28738   0.29339   0.29796   0.31305
  Beta virt. eigenvalues --    0.32075   0.32962   0.34736   0.35409   0.35789
  Beta virt. eigenvalues --    0.36698   0.38316   0.38597   0.40693   0.43515
  Beta virt. eigenvalues --    0.44843   0.47551   0.56397   0.58132   0.68440
  Beta virt. eigenvalues --    0.70162   0.71009   0.72661   0.74122   0.75295
  Beta virt. eigenvalues --    0.77457   0.79692   0.80893   0.82753   0.87343
  Beta virt. eigenvalues --    0.89740   0.93814   0.97923   0.99968   1.06884
  Beta virt. eigenvalues --    1.10431   1.11711   1.14211   1.17399   1.19152
  Beta virt. eigenvalues --    1.21206   1.23046   1.25223   1.28052   1.30836
  Beta virt. eigenvalues --    1.32792   1.35580   1.39006   1.40793   1.43564
  Beta virt. eigenvalues --    1.44852   1.48734   1.53057   1.66040   1.70425
  Beta virt. eigenvalues --    1.85676   2.00986   2.02521
          Condensed to atoms (all electrons):
               1          2          3          4          5          6
     1  C   10.304789   0.469679  -1.696338  -3.116106  -0.007778  -0.018213
     2  H    0.469679   0.382486  -0.144449  -0.006912   0.000213   0.000448
     3  C   -1.696338  -0.144449  10.511165  -1.972512   0.049956  -0.503647
     4  C   -3.116106  -0.006912  -1.972512  11.056425   0.178344  -0.043308
     5  O   -0.007778   0.000213   0.049956   0.178344   8.428184  -0.264358
     6  O   -0.018213   0.000448  -0.503647  -0.043308  -0.264358   9.107742
     7  C   -0.074823   0.000303  -0.349318   0.278761   0.011498  -0.023903
     8  C    0.052267   0.000008   0.068271  -0.245503  -0.053579   0.034698
     9  H   -0.001697  -0.000000  -0.008198   0.021017   0.000169  -0.069068
    10  H   -0.000438   0.000000   0.004186  -0.007981   0.002060  -0.034600
    11  H    0.000307   0.000000   0.002922   0.002137  -0.000066   0.008132
    12  H   -0.000050   0.000000  -0.000175   0.005297  -0.000555  -0.001020
    13  H   -0.002054  -0.000000  -0.007738   0.006838   0.002035  -0.008918
    14  O   -0.352493  -0.001804   0.455937  -0.124248  -0.014219   0.024418
    15  H    0.089831  -0.000109   0.008243  -0.092292   0.000562  -0.002489
               7          8          9         10         11         12
     1  C   -0.074823   0.052267  -0.001697  -0.000438   0.000307  -0.000050
     2  H    0.000303   0.000008  -0.000000   0.000000   0.000000   0.000000
     3  C   -0.349318   0.068271  -0.008198   0.004186   0.002922  -0.000175
     4  C    0.278761  -0.245503   0.021017  -0.007981   0.002137   0.005297
     5  O    0.011498  -0.053579   0.000169   0.002060  -0.000066  -0.000555
     6  O   -0.023903   0.034698  -0.069068  -0.034600   0.008132  -0.001020
     7  C    5.908766  -0.156955   0.424766   0.419822  -0.076976  -0.050047
     8  C   -0.156955   5.780536  -0.054721  -0.074877   0.403952   0.391232
     9  H    0.424766  -0.054721   0.501802  -0.032933  -0.000536  -0.004676
    10  H    0.419822  -0.074877  -0.032933   0.490107  -0.000856   0.003777
    11  H   -0.076976   0.403952  -0.000536  -0.000856   0.503490  -0.026208
    12  H   -0.050047   0.391232  -0.004676   0.003777  -0.026208   0.487210
    13  H   -0.045473   0.403434   0.003532  -0.004580  -0.022975  -0.026119
    14  O   -0.017484   0.005636   0.000163   0.000049   0.000011  -0.000524
    15  H   -0.001682   0.005374  -0.000005  -0.000002  -0.000000   0.000004
              13         14         15
     1  C   -0.002054  -0.352493   0.089831
     2  H   -0.000000  -0.001804  -0.000109
     3  C   -0.007738   0.455937   0.008243
     4  C    0.006838  -0.124248  -0.092292
     5  O    0.002035  -0.014219   0.000562
     6  O   -0.008918   0.024418  -0.002489
     7  C   -0.045473  -0.017484  -0.001682
     8  C    0.403434   0.005636   0.005374
     9  H    0.003532   0.000163  -0.000005
    10  H   -0.004580   0.000049  -0.000002
    11  H   -0.022975   0.000011  -0.000000
    12  H   -0.026119  -0.000524   0.000004
    13  H    0.460146  -0.000163   0.000022
    14  O   -0.000163   8.364767   0.158271
    15  H    0.000022   0.158271   0.412723
          Atomic-Atomic Spin Densities.
               1          2          3          4          5          6
     1  C    1.307194   0.011229  -0.174166  -0.044218   0.017302  -0.018134
     2  H    0.011229  -0.023724  -0.014959  -0.002686  -0.000004  -0.000082
     3  C   -0.174166  -0.014959  -0.418175   0.230241   0.011429  -0.000851
     4  C   -0.044218  -0.002686   0.230241  -0.171209  -0.023427   0.002911
     5  O    0.017302  -0.000004   0.011429  -0.023427  -0.008507  -0.002777
     6  O   -0.018134  -0.000082  -0.000851   0.002911  -0.002777   0.011798
     7  C   -0.017442  -0.000053   0.007836   0.002374  -0.003177   0.005752
     8  C    0.018766   0.000025   0.005879  -0.014418   0.003211  -0.007377
     9  H   -0.000004   0.000000  -0.000134   0.000151  -0.000013   0.000050
    10  H   -0.000058  -0.000000  -0.000134  -0.000053  -0.000157   0.000270
    11  H   -0.000000   0.000000   0.000010  -0.000114   0.000010   0.000013
    12  H   -0.000180  -0.000000  -0.000355   0.000407  -0.000036   0.000146
    13  H   -0.000080  -0.000000  -0.000504   0.000744  -0.000081   0.000003
    14  O   -0.259931  -0.000701   0.025156   0.079192  -0.001326   0.006554
    15  H    0.018840   0.000042  -0.007083  -0.003926   0.000057  -0.000561
               7          8          9         10         11         12
     1  C   -0.017442   0.018766  -0.000004  -0.000058  -0.000000  -0.000180
     2  H   -0.000053   0.000025   0.000000  -0.000000   0.000000  -0.000000
     3  C    0.007836   0.005879  -0.000134  -0.000134   0.000010  -0.000355
     4  C    0.002374  -0.014418   0.000151  -0.000053  -0.000114   0.000407
     5  O   -0.003177   0.003211  -0.000013  -0.000157   0.000010  -0.000036
     6  O    0.005752  -0.007377   0.000050   0.000270   0.000013   0.000146
     7  C    0.007912  -0.006760   0.000107   0.000129  -0.000354   0.000282
     8  C   -0.006760   0.004675  -0.000094  -0.000009   0.000561  -0.000299
     9  H    0.000107  -0.000094  -0.000060  -0.000003  -0.000006  -0.000003
    10  H    0.000129  -0.000009  -0.000003  -0.000195  -0.000007  -0.000002
    11  H   -0.000354   0.000561  -0.000006  -0.000007  -0.000126  -0.000036
    12  H    0.000282  -0.000299  -0.000003  -0.000002  -0.000036   0.000094
    13  H    0.000250  -0.000371  -0.000000   0.000004  -0.000009   0.000005
    14  O    0.004601  -0.002723   0.000001   0.000004   0.000000  -0.000005
    15  H   -0.000226  -0.000028   0.000000   0.000000   0.000000  -0.000002
              13         14         15
     1  C   -0.000080  -0.259931   0.018840
     2  H   -0.000000  -0.000701   0.000042
     3  C   -0.000504   0.025156  -0.007083
     4  C    0.000744   0.079192  -0.003926
     5  O   -0.000081  -0.001326   0.000057
     6  O    0.000003   0.006554  -0.000561
     7  C    0.000250   0.004601  -0.000226
     8  C   -0.000371  -0.002723  -0.000028
     9  H   -0.000000   0.000001   0.000000
    10  H    0.000004   0.000004   0.000000
    11  H   -0.000009   0.000000   0.000000
    12  H    0.000005  -0.000005  -0.000002
    13  H    0.000070   0.000017  -0.000001
    14  O    0.000017   0.623663  -0.001893
    15  H   -0.000001  -0.001893  -0.018457
 Mulliken charges and spin densities:
               1          2
     1  C    0.353119   0.859117
     2  H    0.300135  -0.030914
     3  C   -0.418304  -0.335809
     4  C    0.060043   0.055969
     5  O   -0.332466  -0.007497
     6  O   -0.205914  -0.002286
     7  C   -0.247257   0.001229
     8  C   -0.559775   0.001038
     9  H    0.220386  -0.000009
    10  H    0.236265  -0.000212
    11  H    0.206666  -0.000057
    12  H    0.221855   0.000017
    13  H    0.242013   0.000046
    14  O   -0.498315   0.472607
    15  H    0.421549  -0.013239
 Sum of Mulliken charges =  -0.00000   1.00000
 Mulliken charges and spin densities with hydrogens summed into heavy atoms:
               1          2
     1  C    0.653254   0.828203
     3  C   -0.418304  -0.335809
     4  C    0.060043   0.055969
     5  O   -0.332466  -0.007497
     6  O   -0.205914  -0.002286
     7  C    0.209394   0.001008
     8  C    0.110760   0.001044
    14  O   -0.076766   0.459368
 APT charges:
               1
     1  C   -0.169533
     2  H    0.253044
     3  C   -0.164106
     4  C    1.368817
     5  O   -0.732431
     6  O   -0.931166
     7  C    0.500626
     8  C   -0.060170
     9  H   -0.004396
    10  H   -0.003373
    11  H    0.017578
    12  H    0.022165
    13  H    0.041861
    14  O   -0.367741
    15  H    0.228826
 Sum of APT charges =   0.00000
 APT charges with hydrogens summed into heavy atoms:
               1
     1  C    0.083511
     3  C   -0.164106
     4  C    1.368817
     5  O   -0.732431
     6  O   -0.931166
     7  C    0.492857
     8  C    0.021433
    14  O   -0.138914
 Electronic spatial extent (au):  <R**2>=           1060.4942
 Charge=             -0.0000 electrons
 Dipole moment (field-independent basis, Debye):
    X=              0.0718    Y=              0.1030    Z=             -3.3802  Tot=              3.3825
 Quadrupole moment (field-independent basis, Debye-Ang):
   XX=            -32.5957   YY=            -49.3673   ZZ=            -52.4981
   XY=              1.9643   XZ=              3.8503   YZ=             -0.4855
 Traceless Quadrupole moment (field-independent basis, Debye-Ang):
   XX=             12.2246   YY=             -4.5469   ZZ=             -7.6777
   XY=              1.9643   XZ=              3.8503   YZ=             -0.4855
 Octapole moment (field-independent basis, Debye-Ang**2):
  XXX=            -26.3927  YYY=              8.9562  ZZZ=             -1.1869  XYY=              1.6141
  XXY=             -7.3008  XXZ=            -16.3225  XZZ=              3.8598  YZZ=              4.0637
  YYZ=            -11.1994  XYZ=              6.1485
 Hexadecapole moment (field-independent basis, Debye-Ang**3):
 XXXX=           -765.7450 YYYY=           -249.8712 ZZZZ=           -168.7878 XXXY=             15.2776
 XXXZ=             36.3163 YYYX=            -18.4592 YYYZ=            -12.1016 ZZZX=             -7.0427
 ZZZY=              0.2075 XXYY=           -210.6527 XXZZ=           -190.1092 YYZZ=            -78.4217
 XXYZ=             -5.8322 YYXZ=              9.3562 ZZXY=             -2.0083
 N-N= 3.639731676368D+02 E-N=-1.710461666611D+03  KE= 4.177251717698D+02
  Exact polarizability:  84.693   6.837  68.721   5.000   0.965  56.111
 Approx polarizability:  86.516   9.017  76.879   9.165  -2.232  69.892
                          Isotropic Fermi Contact Couplings
        Atom                 a.u.       MegaHertz       Gauss      10(-4) cm-1
     1  C(13)              0.09494     106.72540      38.08228      35.59976
     2  H(1)              -0.01298     -58.01316     -20.70054     -19.35111
     3  C(13)             -0.02534     -28.49095     -10.16628      -9.50356
     4  C(13)              0.03195      35.92146      12.81767      11.98211
     5  O(17)             -0.00259       1.56739       0.55928       0.52283
     6  O(17)              0.00387      -2.34890      -0.83815      -0.78351
     7  C(13)              0.00016       0.17702       0.06316       0.05905
     8  C(13)             -0.00053      -0.59458      -0.21216      -0.19833
     9  H(1)               0.00004       0.18277       0.06522       0.06096
    10  H(1)              -0.00004      -0.18562      -0.06623      -0.06192
    11  H(1)              -0.00000      -0.01646      -0.00587      -0.00549
    12  H(1)               0.00002       0.08232       0.02937       0.02746
    13  H(1)               0.00002       0.07612       0.02716       0.02539
    14  O(17)              0.07736     -46.89809     -16.73440     -15.64352
    15  H(1)              -0.00836     -37.38868     -13.34121     -12.47152
 --------------------------------------------------------
       Center         ----  Spin Dipole Couplings  ----
                      3XX-RR        3YY-RR        3ZZ-RR
 --------------------------------------------------------
     1   Atom       -0.404216      0.639866     -0.235650
     2   Atom        0.059609     -0.015582     -0.044028
     3   Atom        0.132220     -0.064061     -0.068159
     4   Atom        0.020177      0.001708     -0.021885
     5   Atom        0.019748     -0.021453      0.001705
     6   Atom        0.005867     -0.015376      0.009508
     7   Atom        0.003595     -0.001378     -0.002216
     8   Atom        0.002298     -0.001137     -0.001161
     9   Atom        0.001360     -0.000820     -0.000540
    10   Atom        0.001507     -0.000298     -0.001210
    11   Atom        0.001306     -0.000618     -0.000688
    12   Atom        0.002836     -0.001361     -0.001475
    13   Atom        0.002580     -0.001237     -0.001343
    14   Atom       -0.579514      1.108484     -0.528971
    15   Atom       -0.059153     -0.003593      0.062745
 --------------------------------------------------------
                        XY            XZ            YZ
 --------------------------------------------------------
     1   Atom       -0.139958     -0.061444      0.204520
     2   Atom        0.003288      0.023138      0.009518
     3   Atom       -0.013675      0.042257      0.000168
     4   Atom       -0.018469      0.006331      0.003833
     5   Atom       -0.058541     -0.030111     -0.022518
     6   Atom       -0.011386     -0.012803      0.004613
     7   Atom       -0.002274     -0.000612      0.000251
     8   Atom       -0.000746     -0.000093      0.000125
     9   Atom       -0.000433     -0.000863      0.000213
    10   Atom       -0.000928     -0.000113      0.000048
    11   Atom       -0.000118      0.000117      0.000044
    12   Atom        0.000428     -0.000461      0.000082
    13   Atom       -0.000724      0.001191     -0.000078
    14   Atom        0.809169      0.346548      0.884721
    15   Atom        0.009951      0.014278     -0.052557
 --------------------------------------------------------


 ---------------------------------------------------------------------------------
              Anisotropic Spin Dipole Couplings in Principal Axis System
 ---------------------------------------------------------------------------------

       Atom             a.u.   MegaHertz   Gauss  10(-4) cm-1        Axes

              Baa    -0.4303   -57.737   -20.602   -19.259  0.9724  0.0857  0.2169
     1 C(13)  Bbb    -0.2753   -36.943   -13.182   -12.323 -0.1909 -0.2418  0.9514
              Bcc     0.7056    94.680    33.784    31.582 -0.1340  0.9665  0.2188
 
              Baa    -0.0511   -27.248    -9.723    -9.089 -0.1920 -0.2376  0.9522
     2 H(1)   Bbb    -0.0138    -7.369    -2.629    -2.458 -0.1125  0.9692  0.2192
              Bcc     0.0649    34.616    12.352    11.547  0.9749  0.0650  0.2128
 
              Baa    -0.0774   -10.382    -3.705    -3.463 -0.2067 -0.2244  0.9523
     3 C(13)  Bbb    -0.0643    -8.624    -3.077    -2.877  0.0176  0.9723  0.2329
              Bcc     0.1416    19.006     6.782     6.340  0.9783 -0.0649  0.1970
 
              Baa    -0.0249    -3.346    -1.194    -1.116 -0.2549 -0.3085  0.9164
     4 C(13)  Bbb    -0.0069    -0.922    -0.329    -0.308  0.4532  0.7991  0.3951
              Bcc     0.0318     4.268     1.523     1.424  0.8542 -0.5160  0.0639
 
              Baa    -0.0790     5.714     2.039     1.906  0.5545  0.7246  0.4092
     5 O(17)  Bbb     0.0152    -1.099    -0.392    -0.367 -0.0530 -0.4600  0.8863
              Bcc     0.0638    -4.615    -1.647    -1.539  0.8305 -0.5132 -0.2167
 
              Baa    -0.0204     1.473     0.526     0.491  0.4129  0.9100  0.0364
     6 O(17)  Bbb    -0.0034     0.247     0.088     0.082  0.6179 -0.3093  0.7228
              Bcc     0.0238    -1.720    -0.614    -0.574 -0.6691  0.2759  0.6900
 
              Baa    -0.0023    -0.307    -0.110    -0.102 -0.0777 -0.4414  0.8940
     7 C(13)  Bbb    -0.0023    -0.303    -0.108    -0.101  0.3652  0.8217  0.4374
              Bcc     0.0045     0.610     0.217     0.203  0.9277 -0.3605 -0.0974
 
              Baa    -0.0013    -0.181    -0.065    -0.060  0.1628  0.8569 -0.4891
     8 C(13)  Bbb    -0.0011    -0.149    -0.053    -0.050  0.1274  0.4733  0.8717
              Bcc     0.0025     0.330     0.118     0.110  0.9784 -0.2042 -0.0321
 
              Baa    -0.0009    -0.500    -0.178    -0.167 -0.0602  0.8187 -0.5710
     9 H(1)   Bbb    -0.0008    -0.451    -0.161    -0.150  0.3963  0.5446  0.7391
              Bcc     0.0018     0.951     0.339     0.317  0.9161 -0.1818 -0.3573
 
              Baa    -0.0012    -0.648    -0.231    -0.216  0.0361 -0.0154  0.9992
    10 H(1)   Bbb    -0.0007    -0.368    -0.131    -0.123  0.3892  0.9212  0.0002
              Bcc     0.0019     1.016     0.363     0.339  0.9205 -0.3888 -0.0392
 
              Baa    -0.0007    -0.385    -0.137    -0.128 -0.0779 -0.4649  0.8819
    11 H(1)   Bbb    -0.0006    -0.319    -0.114    -0.106  0.0258  0.8834  0.4680
              Bcc     0.0013     0.704     0.251     0.235  0.9966 -0.0592  0.0569
 
              Baa    -0.0016    -0.855    -0.305    -0.285  0.1380 -0.5281  0.8379
    12 H(1)   Bbb    -0.0013    -0.706    -0.252    -0.236 -0.0273  0.8437  0.5362
              Bcc     0.0029     1.561     0.557     0.521  0.9901  0.0968 -0.1020
 
              Baa    -0.0017    -0.915    -0.327    -0.305 -0.3021 -0.3106  0.9012
    13 H(1)   Bbb    -0.0013    -0.704    -0.251    -0.235  0.0684  0.9359  0.3455
              Bcc     0.0030     1.619     0.578     0.540  0.9508 -0.1660  0.2615
 
              Baa    -0.9181    66.433    23.705    22.160  0.3463 -0.4880  0.8012
    14 O(17)  Bbb    -0.9002    65.139    23.243    21.728  0.8725 -0.1462 -0.4662
              Bcc     1.8183  -131.572   -46.948   -43.888  0.3446  0.8605  0.3752
 
              Baa    -0.0667   -35.573   -12.693   -11.866  0.9084 -0.3428 -0.2394
    15 H(1)   Bbb    -0.0254   -13.579    -4.845    -4.529  0.4150  0.8096  0.4152
              Bcc     0.0921    49.152    17.539    16.395  0.0515 -0.4766  0.8776
 

 ---------------------------------------------------------------------------------

 Calling FoFJK, ICntrl=    100127 FMM=F ISym2X=0 I1Cent= 0 IOpClX= 1 NMat=1 NMatS=1 NMatT=0.
 Full mass-weighted force constant matrix:
 Low frequencies --- -686.8179 -507.7049 -134.2912  -83.3676  -52.0527  -14.8156
 Low frequencies ---   -0.0003    0.0008    0.0013
 ******    3 imaginary frequencies (negative Signs) ****** 
 Diagonal vibrational polarizability:
       40.1185470     158.1228414      44.7289718
 Harmonic frequencies (cm**-1), IR intensities (KM/Mole), Raman scattering
 activities (A**4/AMU), depolarization ratios for plane and unpolarized
 incident light, reduced masses (AMU), force constants (mDyne/A),
 and normal coordinates:
                      1                      2                      3
                      A                      A                      A
 Frequencies --   -686.7970              -507.0859               -81.7919
 Red. masses --     11.4579                 1.0635                 6.9227
 Frc consts  --      3.1843                 0.1611                 0.0273
 IR Inten    --      1.9075               121.2257                 2.3931
  Atom  AN      X      Y      Z        X      Y      Z        X      Y      Z
     1   6     0.07  -0.18  -0.02    -0.00  -0.00   0.01     0.06   0.08  -0.32
     2   1     0.02   0.30   0.08    -0.01   0.04   0.01     0.10   0.16  -0.50
     3   6     0.03   0.76   0.21    -0.00  -0.01   0.00     0.00  -0.02  -0.02
     4   6    -0.02   0.02   0.00    -0.01  -0.01   0.00     0.01   0.01   0.02
     5   8    -0.03  -0.02  -0.02     0.01  -0.01  -0.00     0.07   0.31   0.18
     6   8    -0.00  -0.01  -0.00    -0.00   0.01   0.00    -0.03  -0.19  -0.11
     7   6     0.00  -0.01  -0.00    -0.00   0.01  -0.00    -0.02  -0.05  -0.07
     8   6    -0.00  -0.00  -0.00     0.00   0.00  -0.00    -0.11  -0.02  -0.05
     9   1     0.00  -0.01  -0.00    -0.01   0.00  -0.01    -0.01  -0.00  -0.06
    10   1     0.00  -0.01  -0.00    -0.01   0.00  -0.01     0.06  -0.04  -0.08
    11   1    -0.00  -0.01  -0.00     0.00   0.00  -0.00    -0.10   0.07  -0.07
    12   1    -0.00  -0.00  -0.00     0.01   0.01  -0.00    -0.20  -0.03  -0.02
    13   1    -0.00  -0.00  -0.00     0.00   0.00  -0.00    -0.08  -0.08  -0.04
    14   8    -0.04  -0.44  -0.13    -0.06   0.01   0.01     0.01  -0.14   0.30
    15   1     0.12   0.04   0.11     0.98  -0.11  -0.16     0.15   0.10   0.40
                      4                      5                      6
                      A                      A                      A
 Frequencies --     24.3314                52.5541               133.8455
 Red. masses --      2.6147                 3.6382                 2.1990
 Frc consts  --      0.0009                 0.0059                 0.0232
 IR Inten    --      2.8642                 4.4704                 3.2685
  Atom  AN      X      Y      Z        X      Y      Z        X      Y      Z
     1   6    -0.00   0.09  -0.04     0.04  -0.07  -0.17    -0.05  -0.06   0.12
     2   1     0.00   0.15  -0.06     0.08  -0.18  -0.32    -0.08  -0.11   0.30
     3   6     0.01   0.01  -0.01    -0.03  -0.01   0.02    -0.01   0.00  -0.09
     4   6    -0.02  -0.06  -0.00    -0.02   0.06   0.08     0.01   0.05  -0.11
     5   8    -0.08  -0.13  -0.03    -0.03  -0.02   0.03    -0.03   0.12  -0.05
     6   8     0.03  -0.06   0.03    -0.01   0.15   0.12     0.06   0.01  -0.08
     7   6     0.02  -0.03   0.10    -0.02  -0.06   0.00     0.04  -0.06   0.06
     8   6    -0.04   0.21  -0.14     0.25  -0.06  -0.16     0.03  -0.03   0.03
     9   1     0.06  -0.27   0.10    -0.09  -0.24  -0.04     0.15  -0.17   0.09
    10   1     0.00   0.07   0.36    -0.15  -0.06   0.09    -0.07  -0.04   0.16
    11   1    -0.06   0.18   0.05     0.24  -0.25  -0.21    -0.03  -0.32   0.41
    12   1     0.07   0.11  -0.46     0.41  -0.06  -0.25     0.43  -0.04  -0.21
    13   1    -0.19   0.52  -0.17     0.29   0.14  -0.11    -0.32   0.26  -0.10
    14   8     0.07  -0.02   0.07    -0.17   0.01   0.06    -0.06  -0.03   0.07
    15   1     0.08   0.05   0.11    -0.16   0.01   0.07    -0.00   0.08   0.12
                      7                      8                      9
                      A                      A                      A
 Frequencies --    188.9205               218.5313               272.2289
 Red. masses --      1.5872                 7.4186                 2.4276
 Frc consts  --      0.0334                 0.2087                 0.1060
 IR Inten    --      3.1857                 2.7132                12.9523
  Atom  AN      X      Y      Z        X      Y      Z        X      Y      Z
     1   6    -0.04  -0.00   0.06    -0.19   0.02  -0.00    -0.06   0.20   0.02
     2   1    -0.07   0.01   0.19    -0.22   0.20   0.10    -0.12   0.85   0.16
     3   6    -0.00   0.01  -0.09    -0.11  -0.18  -0.12     0.01  -0.06   0.01
     4   6    -0.01   0.01  -0.05    -0.09  -0.03  -0.01     0.03  -0.07   0.01
     5   8    -0.10   0.03  -0.01    -0.08   0.13   0.09     0.08  -0.01   0.02
     6   8     0.06  -0.02  -0.01    -0.08   0.18   0.10     0.03  -0.04   0.01
     7   6     0.06  -0.03   0.05    -0.08   0.14  -0.00     0.04   0.03  -0.01
     8   6     0.07   0.03  -0.02     0.16   0.03  -0.00     0.06   0.01   0.01
     9   1     0.07  -0.08   0.05    -0.15   0.15  -0.03     0.01   0.08  -0.02
    10   1     0.05  -0.01   0.10    -0.10   0.11  -0.06     0.10   0.03  -0.05
    11   1     0.14   0.38  -0.46     0.14  -0.22  -0.06     0.05  -0.08   0.05
    12   1    -0.41  -0.01   0.16     0.37   0.09   0.04     0.16   0.03   0.00
    13   1     0.48  -0.22   0.14     0.18   0.10   0.02     0.02   0.04  -0.01
    14   8    -0.04  -0.02   0.04     0.36  -0.31  -0.08    -0.17  -0.09  -0.06
    15   1     0.01   0.07   0.08     0.28  -0.15   0.02    -0.21  -0.10  -0.06
                     10                     11                     12
                      A                      A                      A
 Frequencies --    313.2467               406.7510               431.2959
 Red. masses --      3.0508                 1.6746                 3.5897
 Frc consts  --      0.1764                 0.1632                 0.3934
 IR Inten    --     15.7447                28.1046                 9.3763
  Atom  AN      X      Y      Z        X      Y      Z        X      Y      Z
     1   6    -0.02   0.03  -0.02     0.06  -0.17  -0.03     0.02   0.15   0.06
     2   1    -0.02   0.13  -0.08    -0.05   0.90   0.28     0.06  -0.38   0.03
     3   6    -0.03  -0.04   0.06     0.04  -0.02  -0.04     0.09  -0.03  -0.10
     4   6    -0.00   0.04  -0.03     0.01   0.01   0.00     0.08   0.05   0.05
     5   8     0.21   0.04  -0.11    -0.04   0.00   0.02    -0.05  -0.01   0.06
     6   8    -0.04   0.13  -0.03     0.01   0.06   0.03     0.09   0.17   0.13
     7   6    -0.09  -0.14   0.17    -0.01  -0.03  -0.03     0.07  -0.11  -0.12
     8   6    -0.07  -0.02   0.01    -0.06  -0.02  -0.02    -0.18  -0.07  -0.08
     9   1     0.08  -0.45   0.21    -0.02  -0.04  -0.03    -0.00  -0.08  -0.14
    10   1    -0.36  -0.09   0.43    -0.05  -0.04  -0.03     0.00  -0.14  -0.16
    11   1    -0.03   0.19  -0.20    -0.06   0.05   0.03    -0.18   0.25   0.20
    12   1    -0.34  -0.10  -0.03    -0.11  -0.04  -0.04    -0.39  -0.15  -0.16
    13   1     0.13  -0.03   0.11    -0.11  -0.04  -0.05    -0.41  -0.16  -0.19
    14   8     0.03  -0.04  -0.03     0.03   0.06   0.02    -0.04  -0.12  -0.03
    15   1    -0.02  -0.09  -0.05    -0.01   0.05   0.03     0.00   0.01   0.03
                     13                     14                     15
                      A                      A                      A
 Frequencies --    574.7509               597.7830               715.5708
 Red. masses --      4.0618                 4.5388                 9.0554
 Frc consts  --      0.7906                 0.9556                 2.7319
 IR Inten    --      5.7126                14.3734                46.9563
  Atom  AN      X      Y      Z        X      Y      Z        X      Y      Z
     1   6    -0.16  -0.05  -0.06    -0.23  -0.09  -0.06    -0.02  -0.00   0.02
     2   1    -0.10   0.18  -0.40    -0.29  -0.11   0.15    -0.03   0.28  -0.01
     3   6    -0.22  -0.07   0.30    -0.18   0.13  -0.22     0.00  -0.12  -0.11
     4   6    -0.01   0.11  -0.03    -0.05  -0.04   0.08     0.08   0.66   0.36
     5   8    -0.06   0.03  -0.06     0.24  -0.03  -0.02    -0.02  -0.15  -0.11
     6   8     0.13   0.01  -0.01     0.04  -0.06   0.17    -0.03  -0.17  -0.10
     7   6     0.23  -0.06  -0.06     0.08  -0.04  -0.02    -0.05   0.01   0.01
     8   6     0.01   0.00  -0.00    -0.00   0.00  -0.02    -0.00   0.01   0.02
     9   1     0.16   0.04  -0.08    -0.10   0.15  -0.08    -0.02   0.06   0.03
    10   1     0.25  -0.08  -0.13     0.25  -0.06  -0.17     0.04   0.02   0.00
    11   1     0.01   0.27   0.24    -0.00   0.13   0.11    -0.00  -0.13  -0.08
    12   1    -0.16  -0.06  -0.06    -0.08  -0.05  -0.09     0.11   0.05   0.05
    13   1    -0.19  -0.08  -0.10    -0.11   0.01  -0.06     0.11   0.05   0.07
    14   8     0.05   0.01   0.00     0.02   0.08   0.01     0.01  -0.14  -0.03
    15   1    -0.03  -0.39  -0.19     0.10   0.57   0.26     0.13   0.32   0.19
                     16                     17                     18
                      A                      A                      A
 Frequencies --    723.5028               812.0099               858.4649
 Red. masses --      1.2690                 1.3261                 1.3445
 Frc consts  --      0.3914                 0.5152                 0.5838
 IR Inten    --     56.2570                10.0747                43.9436
  Atom  AN      X      Y      Z        X      Y      Z        X      Y      Z
     1   6     0.02   0.03  -0.14     0.04   0.01   0.02     0.01   0.01  -0.02
     2   1    -0.19  -0.25   0.91     0.05   0.02  -0.04    -0.01  -0.03   0.10
     3   6    -0.02  -0.01   0.05     0.03  -0.00  -0.00    -0.01  -0.06   0.10
     4   6     0.00   0.02   0.01    -0.04   0.02  -0.04     0.02  -0.03  -0.01
     5   8    -0.00  -0.00  -0.00     0.00   0.04  -0.06    -0.02  -0.01   0.03
     6   8    -0.00  -0.01   0.00     0.01  -0.03   0.06    -0.01   0.04  -0.06
     7   6     0.00  -0.00   0.00    -0.04  -0.04   0.07     0.02  -0.02   0.01
     8   6     0.00   0.00   0.00    -0.02  -0.02   0.02     0.01  -0.01   0.03
     9   1    -0.00   0.01  -0.00    -0.13   0.51   0.07     0.06   0.16   0.05
    10   1     0.01  -0.00  -0.01     0.15  -0.19  -0.44    -0.02  -0.09  -0.17
    11   1     0.00   0.00   0.00     0.01   0.05  -0.17     0.03   0.10  -0.02
    12   1     0.00  -0.00  -0.00    -0.05  -0.18  -0.37    -0.05  -0.09  -0.17
    13   1     0.00   0.01   0.00     0.12   0.39   0.11     0.04   0.18   0.06
    14   8     0.01   0.00   0.01     0.00  -0.01   0.01    -0.01  -0.01  -0.06
    15   1    -0.02  -0.19  -0.09    -0.03  -0.22  -0.09     0.13   0.82   0.35
                     19                     20                     21
                      A                      A                      A
 Frequencies --    898.9959               936.4718              1104.8280
 Red. masses --      2.9493                 2.4820                 4.1961
 Frc consts  --      1.4044                 1.2824                 3.0177
 IR Inten    --     23.2202                 3.4356                11.4570
  Atom  AN      X      Y      Z        X      Y      Z        X      Y      Z
     1   6     0.09   0.02   0.00    -0.09  -0.01  -0.02     0.07   0.01   0.02
     2   1     0.09   0.01   0.05    -0.09  -0.02  -0.04     0.07   0.01   0.04
     3   6     0.03  -0.07   0.10    -0.06   0.02   0.02     0.03  -0.01  -0.03
     4   6    -0.10   0.04  -0.10     0.14  -0.01  -0.01    -0.17  -0.00   0.06
     5   8    -0.01   0.09  -0.15    -0.01  -0.03   0.06     0.02  -0.00  -0.01
     6   8     0.07  -0.09   0.20     0.16   0.03  -0.02    -0.17   0.04  -0.05
     7   6    -0.05   0.05   0.01    -0.07   0.10   0.06     0.29   0.16   0.19
     8   6    -0.05  -0.00  -0.07    -0.17  -0.09  -0.08    -0.05  -0.18  -0.16
     9   1    -0.25  -0.15  -0.09     0.20   0.17   0.18     0.32   0.26   0.21
    10   1     0.19   0.18   0.24     0.03   0.13   0.09     0.38   0.21   0.24
    11   1    -0.08  -0.29  -0.03    -0.16  -0.57  -0.54    -0.05  -0.13  -0.09
    12   1     0.12   0.17   0.31     0.18  -0.01  -0.06    -0.10  -0.21  -0.19
    13   1    -0.06  -0.35  -0.11     0.22   0.06   0.10    -0.12  -0.27  -0.21
    14   8    -0.01  -0.02  -0.04     0.00   0.02   0.00    -0.00  -0.01  -0.00
    15   1     0.08   0.46   0.20     0.01  -0.01  -0.01    -0.02  -0.01   0.00
                     22                     23                     24
                      A                      A                      A
 Frequencies --   1156.9910              1227.0087              1314.3862
 Red. masses --      2.0647                 1.7525                 2.6561
 Frc consts  --      1.6284                 1.5546                 2.7036
 IR Inten    --     16.1727                 8.2679               389.2262
  Atom  AN      X      Y      Z        X      Y      Z        X      Y      Z
     1   6    -0.02  -0.00  -0.01    -0.02  -0.00  -0.01    -0.05  -0.01  -0.01
     2   1    -0.02  -0.00  -0.01    -0.02  -0.00  -0.01    -0.06  -0.01  -0.03
     3   6    -0.01   0.00   0.01    -0.00   0.01   0.00    -0.00   0.01   0.01
     4   6     0.06   0.01  -0.01     0.08  -0.00  -0.02     0.27   0.02  -0.11
     5   8    -0.00  -0.00   0.00    -0.01  -0.01   0.02    -0.03   0.01  -0.02
     6   8     0.07  -0.05  -0.01    -0.01   0.03  -0.06    -0.16  -0.02   0.06
     7   6    -0.13   0.17   0.07    -0.04  -0.09   0.16     0.10   0.03   0.02
     8   6     0.11  -0.13  -0.05     0.03   0.07  -0.11    -0.03  -0.05   0.06
     9   1    -0.14   0.03   0.07    -0.41   0.33   0.04    -0.66  -0.23  -0.32
    10   1    -0.29   0.13   0.05     0.31  -0.18  -0.24     0.22   0.15   0.26
    11   1     0.10   0.45   0.34    -0.03  -0.11   0.25    -0.00   0.03  -0.13
    12   1    -0.38  -0.29  -0.22     0.01   0.23   0.35     0.02  -0.15  -0.21
    13   1    -0.33  -0.08  -0.25    -0.09  -0.41  -0.20     0.05   0.16   0.11
    14   8    -0.00   0.00   0.00    -0.00   0.00   0.00    -0.00   0.01   0.00
    15   1     0.01  -0.00  -0.00     0.01  -0.00  -0.00     0.02  -0.00  -0.00
                     25                     26                     27
                      A                      A                      A
 Frequencies --   1364.2770              1439.8982              1458.8461
 Red. masses --      1.4826                 1.3450                 1.2469
 Frc consts  --      1.6259                 1.6430                 1.5635
 IR Inten    --    177.3256                18.2686                20.6862
  Atom  AN      X      Y      Z        X      Y      Z        X      Y      Z
     1   6     0.02   0.00   0.00    -0.01  -0.00  -0.00     0.00   0.00   0.00
     2   1     0.02   0.00   0.01    -0.02  -0.00  -0.01     0.00   0.00   0.00
     3   6    -0.00  -0.00  -0.00     0.00   0.00   0.00    -0.00  -0.00  -0.00
     4   6    -0.10  -0.01   0.05     0.07   0.00  -0.02    -0.01  -0.00   0.01
     5   8     0.01  -0.01   0.02    -0.01   0.01  -0.02     0.00  -0.00   0.00
     6   8     0.08   0.05  -0.08    -0.06   0.00   0.04     0.01  -0.00  -0.01
     7   6    -0.05  -0.01  -0.01    -0.09  -0.06  -0.06     0.03   0.02   0.02
     8   6     0.00  -0.04   0.04     0.03  -0.04  -0.03    -0.07  -0.09  -0.08
     9   1    -0.48  -0.16  -0.21     0.53   0.30   0.25    -0.12  -0.09  -0.05
    10   1     0.69   0.23   0.26     0.51   0.21   0.34    -0.12  -0.05  -0.10
    11   1     0.02   0.06  -0.03     0.03   0.18   0.16    -0.04   0.46   0.31
    12   1    -0.04  -0.10  -0.10    -0.03   0.04   0.18     0.34   0.20   0.40
    13   1     0.01   0.17   0.07     0.01   0.17  -0.01     0.35   0.38   0.17
    14   8     0.00  -0.00  -0.00    -0.00   0.00   0.00     0.00  -0.00  -0.00
    15   1    -0.01  -0.00  -0.00     0.01  -0.00  -0.00    -0.00   0.00   0.00
                     28                     29                     30
                      A                      A                      A
 Frequencies --   1526.7824              1536.6518              1544.8213
 Red. masses --      1.0411                 1.0523                 1.0897
 Frc consts  --      1.4299                 1.4640                 1.5321
 IR Inten    --     14.7186                 2.9467                25.2394
  Atom  AN      X      Y      Z        X      Y      Z        X      Y      Z
     1   6     0.00   0.00  -0.00     0.00   0.00   0.00     0.00   0.00   0.00
     2   1     0.00   0.00   0.00     0.00   0.00   0.00     0.00   0.00   0.00
     3   6    -0.00   0.00   0.00    -0.00  -0.00   0.00    -0.00  -0.00  -0.00
     4   6    -0.00   0.00  -0.00    -0.01   0.00  -0.00    -0.02   0.00  -0.00
     5   8     0.00  -0.00   0.00     0.00  -0.00   0.01     0.00  -0.01   0.01
     6   8     0.00   0.00  -0.00     0.01  -0.00  -0.00     0.02  -0.00  -0.01
     7   6    -0.01  -0.02   0.01     0.00  -0.03  -0.03     0.05  -0.04  -0.03
     8   6    -0.02  -0.02   0.04    -0.03   0.03  -0.00     0.02  -0.02  -0.01
     9   1    -0.01   0.12   0.03    -0.11   0.37  -0.03    -0.27   0.51  -0.10
    10   1    -0.01  -0.00   0.06    -0.18   0.10   0.35    -0.37   0.06   0.43
    11   1     0.08   0.49  -0.45    -0.05   0.07   0.35     0.02  -0.11  -0.17
    12   1     0.57   0.09  -0.07     0.18  -0.10  -0.40    -0.19   0.07   0.30
    13   1    -0.34  -0.25  -0.15     0.42  -0.39   0.15    -0.22   0.32  -0.08
    14   8     0.00   0.00  -0.00     0.00  -0.00  -0.00    -0.00  -0.00  -0.00
    15   1    -0.00  -0.00  -0.00    -0.00  -0.00  -0.00    -0.00   0.00   0.00
                     31                     32                     33
                      A                      A                      A
 Frequencies --   1915.3742              2002.9776              3108.0174
 Red. masses --     11.1566                 7.2130                 1.0352
 Frc consts  --     24.1150                17.0497                 5.8916
 IR Inten    --    282.1301                58.5999                11.6627
  Atom  AN      X      Y      Z        X      Y      Z        X      Y      Z
     1   6    -0.20  -0.04  -0.05    -0.38  -0.07  -0.10    -0.00  -0.00  -0.00
     2   1    -0.32  -0.07  -0.06    -0.63  -0.11  -0.16    -0.00   0.00  -0.00
     3   6     0.25   0.01   0.04     0.55  -0.01   0.12     0.00   0.00   0.00
     4   6     0.15  -0.35   0.59    -0.16   0.13  -0.16     0.00   0.00  -0.00
     5   8    -0.15   0.24  -0.39     0.04  -0.06   0.10     0.00   0.00   0.00
     6   8     0.03   0.03  -0.06    -0.01  -0.01   0.01    -0.00  -0.00   0.00
     7   6     0.02  -0.01   0.01     0.00   0.00  -0.00     0.00   0.00   0.00
     8   6    -0.01   0.01   0.00     0.00  -0.00  -0.00    -0.02  -0.03  -0.03
     9   1    -0.13   0.08  -0.05     0.03  -0.02   0.01     0.00   0.00  -0.00
    10   1    -0.11  -0.03   0.07     0.02   0.01  -0.02     0.00  -0.02   0.01
    11   1    -0.00  -0.02  -0.05     0.00   0.00   0.01     0.63  -0.06   0.06
    12   1     0.03   0.01  -0.01    -0.00  -0.00   0.00    -0.13   0.52  -0.22
    13   1    -0.03  -0.04  -0.01     0.01   0.01   0.00    -0.22  -0.06   0.46
    14   8    -0.00   0.02   0.01    -0.00   0.03   0.01     0.00   0.00   0.00
    15   1    -0.02   0.02   0.02    -0.00   0.01   0.01    -0.00   0.00  -0.00
                     34                     35                     36
                      A                      A                      A
 Frequencies --   3139.0375              3188.1064              3191.2971
 Red. masses --      1.0602                 1.1007                 1.1023
 Frc consts  --      6.1549                 6.5915                 6.6145
 IR Inten    --     20.8413                12.7986                 7.2237
  Atom  AN      X      Y      Z        X      Y      Z        X      Y      Z
     1   6    -0.00  -0.00  -0.00    -0.00  -0.00   0.00    -0.00  -0.00  -0.00
     2   1     0.00   0.00   0.00     0.00  -0.00   0.00    -0.00  -0.00  -0.00
     3   6     0.00  -0.00  -0.00     0.00  -0.00   0.00     0.00   0.00  -0.00
     4   6    -0.00  -0.00   0.00    -0.00  -0.00   0.00     0.00  -0.00   0.00
     5   8    -0.00   0.00  -0.00     0.00  -0.00  -0.00    -0.00   0.00  -0.00
     6   8     0.00   0.00  -0.00    -0.00   0.00  -0.00    -0.00  -0.00   0.00
     7   6     0.03  -0.06  -0.02     0.01   0.02  -0.04    -0.01  -0.03   0.04
     8   6    -0.01   0.01   0.00     0.05  -0.05   0.03     0.07  -0.01  -0.04
     9   1    -0.22  -0.07   0.51    -0.18  -0.04   0.42     0.16   0.03  -0.36
    10   1    -0.14   0.74  -0.30     0.03  -0.17   0.06    -0.07   0.35  -0.13
    11   1     0.12  -0.01   0.01    -0.51   0.03  -0.04    -0.55   0.05  -0.06
    12   1     0.01  -0.06   0.03    -0.13   0.62  -0.25     0.00   0.08  -0.04
    13   1     0.01   0.01  -0.03     0.07   0.00  -0.12    -0.24  -0.07   0.55
    14   8     0.00  -0.00  -0.00     0.00   0.00  -0.00     0.00  -0.00  -0.00
    15   1    -0.00   0.00   0.00    -0.00   0.00   0.00    -0.00   0.00   0.00
                     37                     38                     39
                      A                      A                      A
 Frequencies --   3212.1649              3499.4685              3859.3953
 Red. masses --      1.1051                 1.1350                 1.0672
 Frc consts  --      6.7184                 8.1893                 9.3655
 IR Inten    --     16.2410                69.1500                32.6675
  Atom  AN      X      Y      Z        X      Y      Z        X      Y      Z
     1   6    -0.00  -0.00   0.00    -0.10  -0.01  -0.02     0.00   0.00   0.00
     2   1     0.00   0.00  -0.00     0.97   0.04   0.20    -0.00  -0.00  -0.00
     3   6     0.00  -0.00   0.00     0.02   0.00   0.00    -0.00  -0.00  -0.00
     4   6    -0.00   0.00  -0.00    -0.00   0.00   0.00    -0.00   0.00  -0.00
     5   8     0.00  -0.00   0.00     0.00  -0.00  -0.00     0.00  -0.00   0.00
     6   8    -0.00   0.00  -0.00     0.00  -0.00  -0.00     0.00   0.00  -0.00
     7   6     0.01   0.03  -0.05    -0.00  -0.00   0.00    -0.00   0.00   0.00
     8   6     0.02   0.04  -0.05    -0.00  -0.00  -0.00     0.00  -0.00   0.00
     9   1    -0.22  -0.05   0.52     0.00   0.00  -0.00     0.00   0.00  -0.00
    10   1     0.06  -0.35   0.13     0.00  -0.00   0.00     0.00  -0.00   0.00
    11   1    -0.09   0.02  -0.02     0.00   0.00   0.00     0.00   0.00   0.00
    12   1     0.10  -0.39   0.15    -0.00   0.00  -0.00    -0.00   0.00  -0.00
    13   1    -0.24  -0.05   0.53    -0.00  -0.00  -0.00     0.00  -0.00   0.00
    14   8    -0.00  -0.00   0.00     0.00   0.00   0.00    -0.01   0.03  -0.06
    15   1     0.00  -0.00   0.00    -0.00  -0.00   0.00     0.09  -0.45   0.89

 -------------------
 - Thermochemistry -
 -------------------
 Temperature   298.150 Kelvin.  Pressure   1.00000 Atm.
 Atom     1 has atomic number  6 and mass  12.00000
 Atom     2 has atomic number  1 and mass   1.00783
 Atom     3 has atomic number  6 and mass  12.00000
 Atom     4 has atomic number  6 and mass  12.00000
 Atom     5 has atomic number  8 and mass  15.99491
 Atom     6 has atomic number  8 and mass  15.99491
 Atom     7 has atomic number  6 and mass  12.00000
 Atom     8 has atomic number  6 and mass  12.00000
 Atom     9 has atomic number  1 and mass   1.00783
 Atom    10 has atomic number  1 and mass   1.00783
 Atom    11 has atomic number  1 and mass   1.00783
 Atom    12 has atomic number  1 and mass   1.00783
 Atom    13 has atomic number  1 and mass   1.00783
 Atom    14 has atomic number  8 and mass  15.99491
 Atom    15 has atomic number  1 and mass   1.00783
 Molecular mass:   115.03952 amu.
 Principal axes and moments of inertia in atomic units:
                           1         2         3
     Eigenvalues --   481.668901376.449141519.51273
           X            0.99988   0.01233   0.00886
           Y           -0.01256   0.99957   0.02637
           Z           -0.00853  -0.02648   0.99961
 This molecule is an asymmetric top.
 Rotational symmetry number  1.
 Warning -- assumption of classical behavior for rotation
           may cause significant error
 Rotational temperatures (Kelvin)      0.17982     0.06293     0.05700
 Rotational constants (GHZ):           3.74685     1.31116     1.18771
    3 imaginary frequencies ignored.
 Zero-point vibrational energy     292783.5 (Joules/Mol)
                                   69.97694 (Kcal/Mol)
 Warning -- explicit consideration of  11 degrees of freedom as
           vibrations may cause significant error
 Vibrational temperatures:     35.01    75.61   192.57   271.81   314.42
          (Kelvin)            391.68   450.69   585.22   620.54   826.94
                              860.08  1029.55  1040.96  1168.30  1235.14
                             1293.45  1347.37  1589.60  1664.65  1765.39
                             1891.11  1962.89  2071.69  2098.95  2196.70
                             2210.90  2222.65  2755.80  2881.84  4471.74
                             4516.37  4586.97  4591.56  4621.59  5034.95
                             5552.81
 
 Zero-point correction=                           0.111515 (Hartree/Particle)
 Thermal correction to Energy=                    0.120182
 Thermal correction to Enthalpy=                  0.121127
 Thermal correction to Gibbs Free Energy=         0.075944
 Sum of electronic and zero-point Energies=           -419.846011
 Sum of electronic and thermal Energies=              -419.837344
 Sum of electronic and thermal Enthalpies=            -419.836400
 Sum of electronic and thermal Free Energies=         -419.881582
 
                     E (Thermal)             CV                S
                      KCal/Mol        Cal/Mol-Kelvin    Cal/Mol-Kelvin
 Total                   75.416             28.957             95.094
 Electronic               0.000              0.000              1.377
 Translational            0.889              2.981             40.136
 Rotational               0.889              2.981             28.401
 Vibrational             73.638             22.995             25.180
 Vibration     1          0.593              1.985              6.245
 Vibration     2          0.596              1.977              4.719
 Vibration     3          0.613              1.920              2.890
 Vibration     4          0.633              1.855              2.238
 Vibration     5          0.646              1.813              1.971
 Vibration     6          0.675              1.724              1.582
 Vibration     7          0.701              1.648              1.345
 Vibration     8          0.772              1.456              0.938
 Vibration     9          0.792              1.402              0.854
 Vibration    10          0.931              1.086              0.495
 Vibration    11          0.956              1.037              0.453
                       Q            Log10(Q)             Ln(Q)
 Total Bot       0.116947D-34        -34.932010        -80.433927
 Total V=0       0.229852D+17         16.361449         37.673629
 Vib (Bot)       0.335570D-48        -48.474217       -111.616010
 Vib (Bot)    1  0.851188D+01          0.930025          2.141463
 Vib (Bot)    2  0.393252D+01          0.594671          1.369281
 Vib (Bot)    3  0.152165D+01          0.182315          0.419795
 Vib (Bot)    4  0.105980D+01          0.025225          0.058083
 Vib (Bot)    5  0.905705D+00         -0.043013         -0.099041
 Vib (Bot)    6  0.709113D+00         -0.149285         -0.343741
 Vib (Bot)    7  0.602512D+00         -0.220034         -0.506647
 Vib (Bot)    8  0.436019D+00         -0.360495         -0.830071
 Vib (Bot)    9  0.403579D+00         -0.394071         -0.907382
 Vib (Bot)   10  0.266519D+00         -0.574271         -1.322309
 Vib (Bot)   11  0.250358D+00         -0.601438         -1.384863
 Vib (V=0)       0.659542D+03          2.819242          6.491546
 Vib (V=0)    1  0.902655D+01          0.955522          2.200170
 Vib (V=0)    2  0.446418D+01          0.649742          1.496086
 Vib (V=0)    3  0.210169D+01          0.322569          0.742743
 Vib (V=0)    4  0.167183D+01          0.223192          0.513918
 Vib (V=0)    5  0.153455D+01          0.185982          0.428240
 Vib (V=0)    6  0.136766D+01          0.135979          0.313104
 Vib (V=0)    7  0.128296D+01          0.108212          0.249167
 Vib (V=0)    8  0.116341D+01          0.065733          0.151355
 Vib (V=0)    9  0.114255D+01          0.057877          0.133267
 Vib (V=0)   10  0.106660D+01          0.028000          0.064473
 Vib (V=0)   11  0.105918D+01          0.024969          0.057492
 Electronic      0.200000D+01          0.301030          0.693147
 Translational   0.484981D+08          7.685724         17.697035
 Rotational      0.359296D+06          5.555452         12.791901
 ***** Axes restored to original set *****
 -------------------------------------------------------------------
 Center     Atomic                   Forces (Hartrees/Bohr)
 Number     Number              X              Y              Z
 -------------------------------------------------------------------
      1        6           0.013089675   -0.009114029    0.004263696
      2        1           0.000665580   -0.000078378   -0.000027004
      3        6          -0.020171541    0.033256437   -0.013523016
      4        6           0.043658040    0.021710399    0.022845425
      5        8          -0.015770331   -0.025914224   -0.038723259
      6        8          -0.002211991    0.005728790    0.014961273
      7        6          -0.017813236   -0.000888648    0.004183474
      8        6          -0.000214982    0.000028161   -0.000084842
      9        1          -0.000456307   -0.000063040    0.000656941
     10        1          -0.000602513   -0.001381476   -0.000762263
     11        1          -0.001360815    0.000215374   -0.000557196
     12        1           0.000299250    0.001135452    0.000244738
     13        1           0.000281648    0.000408272   -0.001658477
     14        8          -0.000334788   -0.034681030   -0.006338073
     15        1           0.000942310    0.009637940    0.014518584
 -------------------------------------------------------------------
 Cartesian Forces:  Max     0.043658040 RMS     0.014485841

 GradGradGradGradGradGradGradGradGradGradGradGradGradGradGradGradGradGrad
 Berny optimization.
 Search for a local minimum.
 Step number   1 out of a maximum of    2
 All quantities printed in internal units (Hartrees-Bohrs-Radians)
 Second derivative matrix not updated -- analytic derivatives used.
 ITU=  0
     Eigenvalues ---   -0.23003  -0.01333  -0.00382   0.00003   0.00052
     Eigenvalues ---    0.00128   0.00487   0.00621   0.01477   0.01923
     Eigenvalues ---    0.03227   0.03301   0.03624   0.05121   0.06349
     Eigenvalues ---    0.06812   0.07755   0.08777   0.09794   0.10574
     Eigenvalues ---    0.12175   0.14945   0.17626   0.18954   0.21437
     Eigenvalues ---    0.24768   0.29610   0.42688   0.49942   0.63744
     Eigenvalues ---    0.71481   0.77720   0.80557   0.88607   0.93803
     Eigenvalues ---    0.94372   0.99174   1.88762   2.17325
 Eigenvalue     1 is  -2.30D-01 should be greater than     0.000000 Eigenvector:
                          Y3        Y14       Z3        Z14       Y1
   1                    0.78061  -0.52346  -0.20380   0.17969  -0.16871
                          Z15       X1        Y2        X14       X5
   1                   -0.06542  -0.05132   0.04579   0.03413   0.02923
 Eigenvalue     2 is  -1.33D-02 should be greater than     0.000000 Eigenvector:
                          X15       X14       Z15       Y15       Y6
   1                    0.89215  -0.33104  -0.17419   0.12618  -0.10447
                          Y1        X12       Y5        X13       X8
   1                    0.06870   0.06493   0.05899   0.05502   0.04726
 Eigenvalue     3 is  -3.82D-03 should be greater than     0.000000 Eigenvector:
                          Y5        Z15       Z5        Z2        Y6
   1                    0.55543  -0.29470  -0.26468   0.25394  -0.23658
                          Z14       Y13       Z1        Z10       Z6
   1                   -0.22600  -0.22212   0.20889   0.19330   0.16519
 Quadratic step=4.568D-01 exceeds max=3.000D-01 adjusted using Lamda=-3.205D-03.
 Angle between NR and scaled steps=  37.40 degrees.
 Angle between quadratic step and forces=  56.14 degrees.
 Linear search not attempted -- first point.
 B after Tr=     0.003781   -0.003068    0.000065
         Rot=    1.000000    0.000258   -0.000054   -0.000860 Ang=   0.10 deg.
 Variable       Old X    -DE/DX   Delta X   Delta X   Delta X     New X
                                 (Linear)    (Quad)   (Total)
    X1        5.16969   0.01309   0.00000   0.04990   0.05509   5.22479
    Y1       -0.79901  -0.00911   0.00000   0.02277   0.02908  -0.76994
    Z1        0.78617   0.00426   0.00000  -0.02434  -0.02444   0.76172
    X2        7.14008   0.00067   0.00000   0.04463   0.05023   7.19030
    Y2       -0.88692  -0.00008   0.00000  -0.09767  -0.08775  -0.97468
    Z2        1.19641  -0.00003   0.00000   0.00655   0.00634   1.20275
    X3        2.95408  -0.02017   0.00000   0.01822   0.02223   2.97630
    Y3       -0.28153   0.03326   0.00000   0.15735   0.15948  -0.12205
    Z3        0.20179  -0.01352   0.00000  -0.04338  -0.04357   0.15822
    X4        0.30043   0.04366   0.00000   0.05992   0.06553   0.36596
    Y4       -1.07680   0.02171   0.00000  -0.00151  -0.00410  -1.08090
    Z4       -0.26972   0.02285   0.00000  -0.00539  -0.00481  -0.27453
    X5       -0.37700  -0.01577   0.00000   0.02387   0.03127  -0.34573
    Y5       -2.17271  -0.02591   0.00000  -0.06564  -0.07041  -2.24312
    Z5       -2.12583  -0.03872   0.00000  -0.01548  -0.01423  -2.14005
    X6       -1.17525  -0.00221   0.00000  -0.00059   0.00387  -1.17138
    Y6       -0.29010   0.00573   0.00000  -0.00011  -0.00437  -0.29447
    Z6        1.60573   0.01496   0.00000   0.00641   0.00675   1.61248
    X7       -3.85850  -0.01781   0.00000  -0.05286  -0.04796  -3.90646
    Y7       -0.57433  -0.00089   0.00000   0.00338  -0.00580  -0.58012
    Z7        1.20827   0.00418   0.00000   0.00737   0.00815   1.21642
    X8       -4.84427  -0.00021   0.00000  -0.01958  -0.01844  -4.86271
    Y8        1.48186   0.00003   0.00000   0.01954   0.00783   1.48968
    Z8       -0.52569  -0.00008   0.00000   0.00032   0.00014  -0.52555
    X9       -4.66206  -0.00046   0.00000  -0.02693  -0.02207  -4.68413
    Y9       -0.43687  -0.00006   0.00000   0.00964   0.00011  -0.43676
    Z9        3.09663   0.00066   0.00000   0.01840   0.01919   3.11582
   X10       -4.21870  -0.00060   0.00000  -0.04704  -0.03899  -4.25769
   Y10       -2.45329  -0.00138   0.00000   0.00197  -0.00821  -2.46150
   Z10        0.44263  -0.00076   0.00000  -0.00048   0.00131   0.44394
   X11       -6.89011  -0.00136   0.00000  -0.02486  -0.02347  -6.91358
   Y11        1.29962   0.00022   0.00000   0.05462   0.03927   1.33889
   Z11       -0.71999  -0.00056   0.00000  -0.01671  -0.01659  -0.73658
   X12       -4.41808   0.00030   0.00000   0.00782   0.00586  -4.41222
   Y12        3.34331   0.00114   0.00000   0.01669   0.00615   3.34946
   Z12        0.25012   0.00024   0.00000   0.00135   0.00017   0.25028
   X13       -3.99323   0.00028   0.00000  -0.00976  -0.00853  -4.00176
   Y13        1.32597   0.00041   0.00000   0.01062  -0.00058   1.32539
   Z13       -2.39545  -0.00166   0.00000   0.00045   0.00027  -2.39519
   X14        2.65759  -0.00033   0.00000  -0.04122  -0.04249   2.61510
   Y14        3.02244  -0.03468   0.00000  -0.13101  -0.12991   2.89253
   Z14       -0.70765  -0.00634   0.00000   0.06076   0.05904  -0.64860
   X15        2.81639   0.00094   0.00000  -0.02934  -0.03213   2.78427
   Y15        3.80768   0.00964   0.00000   0.06700   0.06920   3.87688
   Z15        0.93558   0.01452   0.00000   0.00452   0.00229   0.93787
         Item               Value     Threshold  Converged?
 Maximum Force            0.043658     0.000450     NO 
 RMS     Force            0.014486     0.000300     NO 
 Maximum Displacement     0.159483     0.001800     NO 
 RMS     Displacement     0.044441     0.001200     NO 
 Predicted change in Energy=-1.744469D-02
 GradGradGradGradGradGradGradGradGradGradGradGradGradGradGradGradGradGrad


 ----------------------------------------------------------------------

 Electric dipole moment (input orientation):
 (Debye = 10**-18 statcoulomb cm , SI units = C m)
                  (au)            (Debye)         (10**-30 SI)
   Tot        0.133080D+01      0.338255D+01      0.112830D+02
   x         -0.271486D-01     -0.690048D-01     -0.230175D+00
   y          0.134662D-01      0.342276D-01      0.114171D+00
   z          0.133045D+01      0.338167D+01      0.112800D+02

 Dipole polarizability, Alpha (input orientation).
 (esu units = cm**3 , SI units = C**2 m**2 J**-1)
 Alpha(0;0):
               (au)            (10**-24 esu)      (10**-40 SI)
   iso        0.698417D+02      0.103495D+02      0.115153D+02
   aniso      0.288720D+02      0.427839D+01      0.476035D+01
   xx         0.847054D+02      0.125520D+02      0.139660D+02
   yx        -0.693344D+01     -0.102743D+01     -0.114317D+01
   yy         0.687513D+02      0.101879D+02      0.113356D+02
   zx         0.483634D+01      0.716671D+00      0.797404D+00
   zy        -0.701000D+00     -0.103877D+00     -0.115579D+00
   zz         0.560685D+02      0.830850D+01      0.924445D+01

 ----------------------------------------------------------------------

 Dipole orientation:
     6          5.18457126         -0.80639454          0.67241377
     1          7.16290470         -0.89824795          1.04146973
     6          2.95754927         -0.28325392          0.13862373
     6          0.29475265         -1.07398457         -0.28667359
     8         -0.42051169         -2.15112365         -2.13956983
     8         -1.14227523         -0.30645782          1.62635206
     6         -3.83310484         -0.58692269          1.28086143
     6         -4.85383636          1.48660056         -0.41173616
     1         -4.59796121         -0.46866768          3.18650965
     1         -4.20904763         -2.45808225          0.50375190
     1         -6.90322579          1.30612528         -0.56609408
     1         -4.41170873          3.34015287          0.37401210
     1         -4.04112929          1.34972895         -2.29994949
     8          2.64290883          3.02972136         -0.73109586
     1          2.83528791          3.79830784          0.91641236

 Electric dipole moment (dipole orientation):
 (Debye = 10**-18 statcoulomb cm , SI units = C m)
                  (au)            (Debye)         (10**-30 SI)
   Tot        0.133080D+01      0.338255D+01      0.112830D+02
   x          0.000000D+00      0.000000D+00      0.000000D+00
   y          0.000000D+00      0.000000D+00      0.000000D+00
   z          0.133080D+01      0.338255D+01      0.112830D+02

 Dipole polarizability, Alpha (dipole orientation).
 (esu units = cm**3 , SI units = C**2 m**2 J**-1)
 Alpha(0;0):
               (au)            (10**-24 esu)      (10**-40 SI)
   iso        0.698417D+02      0.103495D+02      0.115153D+02
   aniso      0.288720D+02      0.427839D+01      0.476035D+01
   xx         0.848893D+02      0.125793D+02      0.139964D+02
   yx        -0.699059D+01     -0.103590D+01     -0.115259D+01
   yy         0.687627D+02      0.101896D+02      0.113374D+02
   zx         0.417765D+01      0.619064D+00      0.688802D+00
   zy        -0.429515D+00     -0.636476D-01     -0.708175D-01
   zz         0.558731D+02      0.827955D+01      0.921224D+01

 ----------------------------------------------------------------------
 1\1\GINC-AJ\Freq\UM062X\6-31+G\C5H7O3(2)\AAYUSH\20-Jun-2025\0\\# freq 
 6-31+g m062x\\Title Card Required\\0,2\C,2.735683,-0.42282,0.416021\H,
 3.778365,-0.46934,0.633115\C,1.56323,-0.14898,0.106782\C,0.15898,-0.56
 9818,-0.142729\O,-0.199499,-1.149747,-1.124939\O,-0.621914,-0.153516,0
 .849715\C,-2.041829,-0.303921,0.63939\C,-2.563479,0.784165,-0.278184\H
 ,-2.467055,-0.231184,1.638664\H,-2.232441,-1.298227,0.234229\H,-3.6460
 87,0.687728,-0.381003\H,-2.337945,1.769204,0.132356\H,-2.113126,0.7016
 73,-1.267618\O,1.406334,1.599407,-0.374471\H,1.490372,2.014937,0.49508
 8\\Version=ES64L-G16RevA.03\State=2-A\HF=-419.9575262\S2=0.785716\S2-1
 =0.\S2A=0.750592\RMSD=2.249e-09\RMSF=1.449e-02\ZeroPoint=0.1115154\The
 rmal=0.1201824\Dipole=-0.0271486,0.0134662,1.3304515\DipoleDeriv=-0.24
 57049,-0.2560023,0.061703,-0.0173921,-0.1000049,-0.0184823,-0.0877918,
 -0.0568093,-0.1628884,0.2608633,-0.0102271,-0.0047257,-0.048993,0.2374
 411,-0.0070975,0.0270019,0.0035849,0.260828,-0.2431718,0.1908074,-0.07
 72844,-0.0675497,-0.1621581,0.0203868,0.0345539,0.0950187,-0.0869888,1
 .952972,0.2417019,-0.1723253,0.0138684,0.7615145,0.5441628,-0.5033132,
 0.57822,1.3919642,-0.7650949,-0.19162,-0.1537635,-0.0291961,-0.5802702
 ,-0.323459,0.0530718,-0.3670787,-0.8519287,-1.543096,0.1257737,0.33434
 42,0.153185,-0.4367066,-0.1496934,0.4806729,-0.1757676,-0.8136965,0.90
 03966,-0.0887004,-0.0818385,-0.0000065,0.2936414,-0.0739065,0.0198271,
 -0.0136988,0.307839,-0.0921945,0.0346024,0.0277054,0.047885,-0.0352229
 ,0.0918191,-0.0367781,0.0617419,-0.0530937,-0.0085291,0.0088115,0.0264
 842,0.0224909,0.0846701,-0.0051456,0.0716192,0.0218172,-0.0893303,-0.0
 08293,0.0391401,0.0125164,-0.0391185,-0.071174,-0.0044808,-0.0583309,-
 0.0469354,0.0693496,-0.1419522,0.0012286,-0.023995,-0.0268785,0.084964
 3,0.002645,-0.017116,0.0166374,0.1097207,0.1050355,-0.0622052,-0.03286
 55,-0.0098682,-0.0748471,-0.0308074,-0.0308789,-0.0697145,0.0363052,0.
 0956834,-0.0016157,0.0844848,0.017432,0.0607816,-0.0213686,0.0589763,0
 .0110924,-0.0308809,-0.5975073,-0.081093,0.033942,-0.0244683,-0.372926
 8,0.0234745,0.040667,-0.0952499,-0.1327878,0.3305928,0.0493981,-0.0343
 823,0.0086097,0.3102976,-0.0480471,-0.0521812,0.0371416,0.0455883\Pola
 r=84.7053996,-6.9334403,68.7512848,4.8363379,-0.701,56.0685203\Quadrup
 ole=9.094249,-3.3970555,-5.6971935,-1.5143626,2.8200302,0.4100684\PG=C
 01 [X(C5H7O3)]\NImag=3\\1.22430235,-0.16325359,0.05203498,0.28246093,-
 0.03502966,0.11530359,-0.41312208,0.02444950,-0.08253881,0.40332519,0.
 00845959,-0.00579324,-0.00334046,-0.02001075,0.00646686,-0.07854743,0.
 00009986,-0.04166570,0.08140423,-0.00141777,0.03221366,-0.80094914,0.1
 2966850,-0.19482241,0.00954979,0.01289646,-0.00154557,1.09863633,0.040
 50202,0.02127665,-0.00259110,-0.00346703,-0.00662458,0.00155669,0.0190
 4057,-0.09617964,-0.17250560,0.01406778,-0.07343944,0.00163382,0.00548
 787,0.00451868,0.19934632,0.07672804,0.16353624,0.00323844,-0.00623735
 ,0.00297153,-0.00068107,-0.00104031,-0.00211799,-0.21618831,-0.0330261
 7,-0.02743969,0.64697861,0.03253793,-0.00748966,0.00865393,0.00024803,
 0.00376592,0.00033701,-0.05727759,-0.03864216,-0.01242144,0.11393566,0
 .41252906,-0.01134640,0.00226303,0.00074093,-0.00091174,-0.00027819,0.
 00548531,-0.00929369,-0.00934760,-0.06534776,0.09089383,0.37613848,0.8
 4618778,-0.00127256,-0.00095244,-0.00039169,0.00013081,0.00045173,0.00
 152165,-0.02214362,-0.02479033,-0.04213772,-0.16653074,-0.12559115,-0.
 20146581,0.16281997,-0.00294986,0.00079322,-0.00115432,-0.00010378,-0.
 00044248,0.00086952,-0.02045627,0.00032510,-0.02503569,-0.11782610,-0.
 24265394,-0.31182755,0.13525413,0.23990221,0.00228300,-0.00134223,0.00
 094437,-0.00005354,0.00030431,-0.00002058,-0.02526510,-0.01700210,-0.0
 1399553,-0.19451840,-0.31314075,-0.58035868,0.20701265,0.38694989,0.67
 361974,-0.00555745,-0.00043306,-0.00166887,0.00074973,-0.00051679,-0.0
 0107109,-0.05412135,0.00702934,0.03728021,-0.20460396,0.04799644,0.125
 74505,0.02543194,0.00903953,0.01962324,0.53804806,-0.00101877,0.000936
 57,0.00010708,0.00002815,-0.00033328,-0.00016968,-0.00440440,0.0060307
 1,-0.00054253,0.03280450,-0.08917640,-0.06752469,0.01584164,0.00312604
 ,-0.05452873,-0.02677576,0.14157910,0.00198076,-0.00079637,0.00041631,
 -0.00007380,0.00026260,-0.00067022,0.00624442,-0.00092146,0.00177856,0
 .09016949,-0.06772322,-0.20809391,0.02830647,-0.05407276,-0.08146207,-
 0.11978534,0.13417439,0.36268960,0.00147823,-0.00003002,0.00079827,-0.
 00028465,0.00003678,-0.00000488,0.00324906,0.00264049,-0.00123574,-0.0
 5889918,0.00819078,0.02779881,-0.00057996,-0.00916547,-0.01558046,-0.1
 9951384,-0.01560149,-0.00492720,0.48194173,-0.00140831,0.00055381,-0.0
 0024462,-0.00003770,-0.00012111,-0.00001388,0.00060616,0.00205256,-0.0
 0233223,0.01474924,0.00762025,0.00772225,-0.00209184,-0.00526454,-0.00
 050840,-0.02687781,-0.07223096,-0.01456119,0.00928454,0.58552739,0.001
 20274,0.00010197,0.00035000,0.00002081,0.00008574,0.00025198,0.0041244
 4,-0.00327280,-0.00232868,0.04082383,0.00460229,0.00120924,0.00226353,
 0.00168376,-0.00218009,-0.03821546,-0.01452538,-0.08021165,-0.06636569
 ,0.04959415,0.61974183,0.00012415,-0.00012192,0.00000937,0.00008563,0.
 00000199,-0.00000212,-0.00037885,-0.00077618,0.00099550,0.00200906,-0.
 00102151,-0.00918711,0.00072793,0.00206489,0.00228531,-0.03933353,0.03
 086805,-0.02525941,-0.08447942,0.02035182,-0.01301520,0.58866754,-0.00
 016459,-0.00006914,-0.00009125,0.00000883,0.00000394,0.00001388,0.0002
 5975,-0.00008945,0.00034526,0.00074611,-0.00154517,-0.00327406,0.00095
 690,0.00038951,0.00142832,-0.00239738,0.00704390,0.00034580,0.03107940
 ,-0.16098528,0.05891460,0.02733073,0.55172087,0.00012922,-0.00003585,0
 .,0.00000730,0.00002097,-0.00000510,-0.00052555,-0.00017448,0.00013527
 ,0.00154564,-0.00012846,0.00329018,-0.00148390,0.00126093,-0.00104136,
 -0.00711740,0.00276553,-0.00145460,-0.02057249,0.05773506,-0.13718118,
 -0.02368908,0.04204966,0.56709866,-0.00055106,-0.00006936,-0.00020188,
 0.00002687,-0.00004548,-0.00004564,-0.00113569,0.00076678,0.00103747,-
 0.00458016,-0.00460997,-0.00400776,0.00161954,0.00066171,0.00075388,-0
 .03455219,0.00545425,0.03511044,-0.08234710,0.00575437,0.09056138,0.00
 701224,-0.00037279,-0.01256181,0.10983164,-0.00002998,0.00001453,-0.00
 000003,-0.00000847,-0.00000190,-0.00001683,-0.00023124,0.00016773,0.00
 010381,-0.00075863,-0.00118616,-0.00241678,0.00184460,0.00074091,0.000
 34284,-0.00481362,0.00143966,0.00471102,0.00922040,-0.05643859,-0.0230
 0654,-0.00920998,0.00098107,0.02675707,-0.00968102,0.05613110,-0.00001
 360,-0.00003981,0.00001177,-0.00000819,-0.00000429,-0.00003240,-0.0000
 3143,0.00038934,0.00013508,-0.00310182,-0.00039205,0.00040228,0.000949
 90,0.00040275,0.00058924,-0.00631523,-0.00061520,0.00688178,0.10482753
 ,-0.02160772,-0.29247145,0.00631681,-0.00154662,-0.01778441,-0.1053355
 6,0.02007708,0.31132643,-0.00032709,-0.00003471,-0.00006832,0.00002315
 ,-0.00003983,-0.00003206,0.00003186,0.00054081,0.00017795,0.00225099,-
 0.00515481,-0.00740742,0.00066781,0.00187880,0.00325968,-0.02923799,-0
 .03550214,-0.01418929,-0.05564133,-0.03196956,-0.01035425,0.00426773,0
 .01244404,0.00448316,0.00449905,0.01230797,0.00442544,0.07360325,0.000
 12812,-0.00005233,0.00006022,0.00000883,0.00000379,-0.00002220,-0.0000
 3816,-0.00002985,0.00023414,0.00068888,-0.00100862,-0.00330126,0.00273
 700,0.00092464,0.00053706,-0.00504711,0.00078843,-0.00100214,-0.042690
 66,-0.28067803,-0.09299740,-0.00227948,-0.02184245,-0.00890636,0.00034
 814,-0.00040216,0.00060628,0.04447801,0.30283179,-0.00003654,0.0000038
 7,-0.00004184,0.00002251,-0.00000702,0.00001842,-0.00018986,-0.0003674
 5,0.00002844,0.00255209,0.00040330,0.00069592,0.00076704,0.00045922,-0
 .00113158,-0.00529633,-0.00298995,-0.00128941,-0.01703168,-0.09652669,
 -0.09256905,0.00320153,0.02285701,0.00804462,-0.00489144,-0.02815119,-
 0.00971452,0.02174734,0.10229775,0.09681276,-0.00006285,-0.00001533,-0
 .00003035,0.00002911,-0.00001464,0.00001411,-0.00002348,-0.00014515,0.
 00007489,0.00161991,-0.00086690,-0.00119024,-0.00006800,0.00052054,0.0
 0033673,-0.00053486,0.00286524,-0.00100711,-0.01176713,-0.00411742,0.0
 0136780,-0.31873392,-0.02400348,-0.02562916,0.00029473,-0.00002955,-0.
 00039036,0.00018885,0.00049054,0.00014742,0.34848479,0.00010608,0.0000
 2432,0.00004503,-0.00000885,-0.00000952,0.00000435,0.00002597,0.000207
 18,-0.00035752,-0.00067938,0.00035757,0.00216742,-0.00019865,-0.000542
 08,-0.00059423,0.00509600,-0.00395192,0.00316491,0.02487238,0.00299904
 ,0.00081725,-0.02620527,-0.05127440,-0.00174234,-0.00053832,0.00097699
 ,-0.00021119,-0.00051056,0.00021311,-0.00106854,0.02645587,0.05250447,
 -0.00006960,-0.00000374,-0.00002297,0.00000793,-0.00000046,0.00000071,
 -0.00006179,-0.00002571,0.00017597,0.00036817,-0.00052699,-0.00290582,
 0.00055110,0.00006053,0.00113644,-0.00466352,0.00435613,-0.00163868,-0
 .02062729,-0.00380629,-0.00153198,-0.02372348,-0.00118356,-0.05029464,
 0.00053819,-0.00087474,0.00000178,0.00036735,-0.00024679,0.00077868,0.
 02894276,0.00015171,0.05154236,-0.00005722,0.00002703,-0.00001761,-0.0
 0002681,0.00001620,-0.00000467,0.00010520,-0.00006557,0.00003010,-0.00
 050345,0.00098146,0.00140357,-0.00046029,-0.00017750,-0.00069265,0.002
 17870,-0.00081833,0.00062563,0.00110569,0.01405280,0.00300633,-0.06153
 522,-0.05379910,-0.02126872,0.00009736,-0.00082059,0.00041608,-0.00033
 096,0.00194495,-0.00158815,-0.00604798,-0.03136567,-0.01322294,0.06214
 146,0.00013540,-0.00002053,0.00003736,0.00000450,-0.00000746,-0.000003
 33,0.00001995,0.00007280,-0.00005123,-0.00018132,-0.00077407,-0.000615
 85,0.00034214,0.00025446,0.00046695,-0.00069735,0.00283551,-0.00083149
 ,-0.00599391,-0.02595399,-0.00958613,-0.05117003,-0.27183495,-0.095551
 04,-0.00010574,0.00101163,0.00001150,0.00168955,-0.00165104,0.00367603
 ,0.00067828,-0.00141702,-0.00080463,0.05640600,0.29919444,0.00014017,-
 0.00000223,0.00002334,0.00000237,-0.00000935,0.00000432,-0.00008248,0.
 00021382,-0.00008138,-0.00056476,-0.00041413,-0.00008982,0.00054825,-0
 .00034017,0.00028585,0.00236336,-0.00166513,0.00055803,0.00359375,0.02
 518025,0.00777035,-0.02234610,-0.09832247,-0.09205259,0.00063766,-0.00
 051965,0.00106962,-0.00216846,0.00310430,-0.00251100,0.00040928,-0.002
 35864,-0.00178437,0.02576989,0.10293718,0.09714623,0.00009247,-0.00000
 493,0.00003967,-0.00002718,0.00002072,-0.00001184,-0.00000472,0.000107
 11,-0.00003805,-0.00122722,0.00039772,-0.00094475,-0.00044006,0.000645
 15,0.00039994,0.00148689,-0.00119551,0.00077581,0.00481830,0.00100511,
 -0.01469339,-0.09826246,0.00802106,0.10673964,-0.00023716,0.00223346,-
 0.00186496,0.00004167,-0.00071576,0.00066977,-0.01317718,0.00301923,0.
 03150392,0.00318784,-0.00110804,-0.00814321,0.10338337,-0.00019721,0.0
 0002637,-0.00005420,0.00000122,0.00000613,0.00001205,0.00020179,-0.000
 34061,0.00002269,0.00125682,0.00148235,0.00194085,-0.00072338,-0.00084
 082,-0.00122760,-0.00045382,0.00079261,-0.00269445,-0.01218386,0.00085
 990,0.02810543,0.01065000,-0.05229819,-0.02398422,0.00244168,-0.003470
 67,0.00285481,-0.00059664,0.00095345,-0.00039920,-0.00175935,-0.000245
 90,0.00294531,0.01370373,-0.00179635,-0.02787915,-0.01250273,0.0550199
 3,-0.00004682,0.00003349,0.00000889,-0.00001816,0.00000693,-0.00002095
 ,0.00002374,0.00016632,0.00004285,-0.00117620,-0.00018806,-0.00182765,
 0.00110326,-0.00058231,0.00109677,-0.00046901,-0.00091899,0.00185696,0
 .00977697,-0.00037313,-0.02108149,0.10433886,-0.02131743,-0.27854557,-
 0.00156589,0.00302648,-0.00040073,-0.00026725,-0.00044239,0.00082375,-
 0.00307274,-0.00006849,0.00448867,0.00568820,0.00022163,-0.01042114,-0
 .11456281,0.02033493,0.30402526,-0.00829678,0.01691203,-0.00638288,0.0
 0026918,-0.00090679,0.00049784,-0.01417790,-0.01219598,0.00112988,-0.0
 0620872,-0.00659703,0.00325224,0.00084272,0.00047603,-0.00068846,0.000
 54235,-0.00478366,0.00084217,0.00126778,0.00067629,-0.00092794,-0.0002
 4852,0.00019652,0.00008508,0.00005461,0.00004885,0.00010981,-0.0001815
 3,-0.00014889,-0.00010055,-0.00027806,-0.00022129,0.00007121,0.0004093
 3,-0.00024631,-0.00026882,0.00035607,0.00020399,0.00030049,0.02126763,
 0.08585020,-0.06085085,0.03201605,-0.00137089,0.00318809,-0.00115375,-
 0.07746611,0.12147148,-0.03971366,-0.00324233,-0.03842447,0.00881992,-
 0.00389907,0.00221150,-0.00279729,-0.00198600,0.00020430,-0.00031358,0
 .00111120,0.00171605,-0.00061687,-0.00055208,-0.00023814,-0.00010883,-
 0.00003559,0.00005598,0.00008768,0.00025661,-0.00005586,-0.00024623,-0
 .00010050,0.00019415,-0.00005915,-0.00005928,0.00007642,0.00013128,0.0
 0012805,-0.00018818,0.00010755,0.02167842,0.07746698,-0.02946562,0.020
 99225,-0.00429824,0.00043998,-0.00120265,0.00012940,0.02559100,-0.0597
 2294,-0.01685905,0.00233365,0.00464855,0.00137884,0.00158057,0.0011779
 2,0.00187655,-0.00120015,0.00245923,0.00142710,-0.00034184,-0.00025186
 ,0.00025704,0.00003604,-0.00021220,-0.00012703,-0.00010027,-0.00004631
 ,-0.00001472,0.00004146,0.00009126,0.00006652,0.00002242,0.00005935,0.
 00001848,-0.00011439,0.00013150,0.00007249,0.00008338,-0.00002182,-0.0
 0005429,0.04677531,0.21804194,0.45064708,0.00096058,0.00009566,-0.0001
 5695,-0.00004767,0.00069113,-0.00005454,-0.00244920,0.00383930,0.00165
 067,0.00332579,-0.00316906,-0.00333858,-0.00074549,0.00013821,0.000844
 18,-0.00098250,0.00223822,0.00118696,-0.00034817,0.00002233,0.00020106
 ,0.00007763,-0.00030600,-0.00014192,-0.00003270,-0.00007222,0.00001557
 ,0.00014453,0.00009560,0.00002686,0.00007608,0.00015247,0.00001799,-0.
 00026365,0.00022688,0.00010910,0.00000938,-0.00004223,-0.00005264,0.00
 438182,-0.02031264,-0.04568153,-0.00410642,0.00130297,-0.00138469,0.00
 158597,0.00025843,-0.00010118,-0.00009592,-0.00284538,-0.00969792,-0.0
 1653528,-0.00118961,-0.00485449,-0.00046594,0.00081873,0.00107625,0.00
 111196,0.00083740,0.00091573,0.00025795,-0.00077058,0.00034350,0.00009
 995,0.00006898,0.00003787,0.00004235,0.00003135,-0.00002012,-0.0000125
 5,0.00021246,0.00000514,0.00005910,0.00004183,-0.00003599,0.00001837,-
 0.00002613,0.00001016,-0.00005590,-0.00005064,0.00004000,-0.00000653,-
 0.01509218,-0.10682745,-0.18614422,0.01640237,0.12049320,0.00383481,-0
 .00031234,0.00166898,0.00006531,0.00009177,-0.00020754,-0.00351205,0.0
 1437143,0.00170075,-0.00273937,0.00015155,-0.00076683,0.00087470,0.000
 14827,0.00064092,0.00079054,-0.00038206,-0.00078780,-0.00010806,-0.000
 00571,-0.00002487,0.00003909,-0.00000692,-0.00008226,0.00007122,0.0000
 1377,0.00000025,-0.00001536,-0.00001248,-0.00001171,0.00000455,-0.0000
 0908,0.00003538,-0.00003064,-0.00003846,0.00001006,0.00004688,0.000044
 60,0.00000868,-0.04469536,-0.21419505,-0.43452019,0.04537376,0.2001406
 9,0.43233617\\-0.01308967,0.00911403,-0.00426370,-0.00066558,0.0000783
 8,0.00002700,0.02017154,-0.03325644,0.01352302,-0.04365804,-0.02171040
 ,-0.02284542,0.01577033,0.02591422,0.03872326,0.00221199,-0.00572879,-
 0.01496127,0.01781324,0.00088865,-0.00418347,0.00021498,-0.00002816,0.
 00008484,0.00045631,0.00006304,-0.00065694,0.00060251,0.00138148,0.000
 76226,0.00136081,-0.00021537,0.00055720,-0.00029925,-0.00113545,-0.000
 24474,-0.00028165,-0.00040827,0.00165848,0.00033479,0.03468103,0.00633
 807,-0.00094231,-0.00963794,-0.01451858\\\@


 EXPERIENCE IS THE FRUIT OF THE TREE OF ERRORS.
 Job cpu time:       0 days  0 hours 18 minutes 37.4 seconds.
 Elapsed time:       0 days  0 hours  0 minutes 46.6 seconds.
 File lengths (MBytes):  RWF=     59 Int=      0 D2E=      0 Chk=      8 Scr=      1
 Normal termination of Gaussian 16 at Fri Jun 20 13:46:37 2025.
