 Entering Gaussian System, Link 0=g16
 Initial command:
 /opt/g16/l1.exe "/home/aayush/scratches/g16/Gau-100626.inp" -scrdir="/home/aayush/scratches/g16/"
 Entering Link 1 = /opt/g16/l1.exe PID=    100629.
  
 Copyright (c) 1988,1990,1992,1993,1995,1998,2003,2009,2016,
            Gaussian, Inc.  All Rights Reserved.
  
 This is part of the Gaussian(R) 16 program.  It is based on
 the Gaussian(R) 09 system (copyright 2009, Gaussian, Inc.),
 the Gaussian(R) 03 system (copyright 2003, Gaussian, Inc.),
 the Gaussian(R) 98 system (copyright 1998, Gaussian, Inc.),
 the Gaussian(R) 94 system (copyright 1995, Gaussian, Inc.),
 the Gaussian 92(TM) system (copyright 1992, Gaussian, Inc.),
 the Gaussian 90(TM) system (copyright 1990, Gaussian, Inc.),
 the Gaussian 88(TM) system (copyright 1988, Gaussian, Inc.),
 the Gaussian 86(TM) system (copyright 1986, Carnegie Mellon
 University), and the Gaussian 82(TM) system (copyright 1983,
 Carnegie Mellon University). Gaussian is a federally registered
 trademark of Gaussian, Inc.
  
 This software contains proprietary and confidential information,
 including trade secrets, belonging to Gaussian, Inc.
  
 This software is provided under written license and may be
 used, copied, transmitted, or stored only in accord with that
 written license.
  
 The following legend is applicable only to US Government
 contracts under FAR:
  
                    RESTRICTED RIGHTS LEGEND
  
 Use, reproduction and disclosure by the US Government is
 subject to restrictions as set forth in subparagraphs (a)
 and (c) of the Commercial Computer Software - Restricted
 Rights clause in FAR 52.227-19.
  
 Gaussian, Inc.
 340 Quinnipiac St., Bldg. 40, Wallingford CT 06492
  
  
 ---------------------------------------------------------------
 Warning -- This program may not be used in any manner that
 competes with the business of Gaussian, Inc. or will provide
 assistance to any competitor of Gaussian, Inc.  The licensee
 of this program is prohibited from giving any competitor of
 Gaussian, Inc. access to this program.  By using this program,
 the user acknowledges that Gaussian, Inc. is engaged in the
 business of creating and licensing software in the field of
 computational chemistry and represents and warrants to the
 licensee that it is not a competitor of Gaussian, Inc. and that
 it will not use this program in any manner prohibited above.
 ---------------------------------------------------------------
  

 Cite this work as:
 Gaussian 16, Revision A.03,
 M. J. Frisch, G. W. Trucks, H. B. Schlegel, G. E. Scuseria, 
 M. A. Robb, J. R. Cheeseman, G. Scalmani, V. Barone, 
 G. A. Petersson, H. Nakatsuji, X. Li, M. Caricato, A. V. Marenich, 
 J. Bloino, B. G. Janesko, R. Gomperts, B. Mennucci, H. P. Hratchian, 
 J. V. Ortiz, A. F. Izmaylov, J. L. Sonnenberg, D. Williams-Young, 
 F. Ding, F. Lipparini, F. Egidi, J. Goings, B. Peng, A. Petrone, 
 T. Henderson, D. Ranasinghe, V. G. Zakrzewski, J. Gao, N. Rega, 
 G. Zheng, W. Liang, M. Hada, M. Ehara, K. Toyota, R. Fukuda, 
 J. Hasegawa, M. Ishida, T. Nakajima, Y. Honda, O. Kitao, H. Nakai, 
 T. Vreven, K. Throssell, J. A. Montgomery, Jr., J. E. Peralta, 
 F. Ogliaro, M. J. Bearpark, J. J. Heyd, E. N. Brothers, K. N. Kudin, 
 V. N. Staroverov, T. A. Keith, R. Kobayashi, J. Normand, 
 K. Raghavachari, A. P. Rendell, J. C. Burant, S. S. Iyengar, 
 J. Tomasi, M. Cossi, J. M. Millam, M. Klene, C. Adamo, R. Cammi, 
 J. W. Ochterski, R. L. Martin, K. Morokuma, O. Farkas, 
 J. B. Foresman, and D. J. Fox, Gaussian, Inc., Wallingford CT, 2016.
 
 ******************************************
 Gaussian 16:  ES64L-G16RevA.03 25-Dec-2016
                16-Aug-2025 
 ******************************************
 %chk=ethyl_propiolate_non_planar.chk
 %mem=12GB
 %nprocshared=24
 Will use up to   24 processors via shared memory.
 --------------------------
 # freq 6-311++g(d,p) m062x
 --------------------------
 1/10=4,30=1,38=1/1,3;
 2/12=2,17=6,18=5,40=1/2;
 3/5=4,6=6,7=1111,11=2,25=1,30=1,71=2,74=-55,140=1/1,2,3;
 4//1;
 5/5=2,38=5,98=1/2;
 8/6=4,10=90,11=11/1;
 11/6=1,8=1,9=11,15=111,16=1/1,2,10;
 10/6=1/2;
 6/7=2,8=2,9=2,10=2,28=1/1;
 7/8=1,10=1,25=1/1,2,3,16;
 1/10=4,30=1/3;
 99//99;
 -------------------
 Title Card Required
 -------------------
 Symbolic Z-matrix:
 Charge =  0 Multiplicity = 2
 C                     2.7538   -0.40665   0.41998 
 H                     3.80092  -0.38157   0.61326 
 C                     1.57562  -0.42323   0.18565 
 C                     0.16186  -0.60608  -0.133 
 O                    -0.21559  -1.14068  -1.13569 
 O                    -0.61834  -0.1503    0.84691 
 C                    -2.03835  -0.29792   0.6374 
 C                    -2.56517   0.78704  -0.27987 
 H                    -2.46267  -0.22553   1.63731 
 H                    -2.22886  -1.29248   0.2324 
 H                    -3.64795   0.68875  -0.37957 
 H                    -2.34202   1.77334   0.12947 
 H                    -2.11681   0.70349  -1.26991 
 O                     1.39207   1.79148  -0.42636 
 H                     1.4759    2.06488   0.50239 
 

 GradGradGradGradGradGradGradGradGradGradGradGradGradGradGradGradGradGrad
 Berny optimization.
 Initialization pass.
 Trust Radius=3.00D-01 FncErr=1.00D-07 GrdErr=1.00D-07 EigMax=2.50D+02 EigMin=1.00D-04
 Number of steps in this run=      2 maximum allowed number of steps=      2.
 GradGradGradGradGradGradGradGradGradGradGradGradGradGradGradGradGradGrad

                          Input orientation:                          
 ---------------------------------------------------------------------
 Center     Atomic      Atomic             Coordinates (Angstroms)
 Number     Number       Type             X           Y           Z
 ---------------------------------------------------------------------
      1          6           0        2.753800   -0.406651    0.419984
      2          1           0        3.800916   -0.381566    0.613262
      3          6           0        1.575616   -0.423232    0.185647
      4          6           0        0.161857   -0.606075   -0.132999
      5          8           0       -0.215586   -1.140684   -1.135693
      6          8           0       -0.618343   -0.150298    0.846906
      7          6           0       -2.038353   -0.297923    0.637396
      8          6           0       -2.565172    0.787038   -0.279870
      9          1           0       -2.462670   -0.225525    1.637306
     10          1           0       -2.228859   -1.292476    0.232400
     11          1           0       -3.647948    0.688751   -0.379567
     12          1           0       -2.342020    1.773339    0.129467
     13          1           0       -2.116815    0.703489   -1.269907
     14          8           0        1.392072    1.791484   -0.426360
     15          1           0        1.475900    2.064883    0.502394
 ---------------------------------------------------------------------
                    Distance matrix (angstroms):
                    1          2          3          4          5
     1  C    0.000000
     2  H    1.065100   0.000000
     3  C    1.201377   2.266396   0.000000
     4  C    2.657768   3.721567   1.460713   0.000000
     5  O    3.431645   4.446054   2.338607   1.197358   0.000000
     6  O    3.408713   4.431470   2.307642   1.332914   2.252504
     7  C    4.798314   5.839918   3.644249   2.351466   2.678912
     8  C    5.496012   6.533789   4.339076   3.065782   3.157388
     9  H    5.359686   6.348663   4.295830   3.188564   3.684620
    10  H    5.064263   6.110074   3.902794   2.513998   2.438850
    11  H    6.543819   7.590577   5.370437   4.031375   3.962281
    12  H    5.550148   6.527889   4.491765   3.464087   3.822811
    13  H    5.273617   6.304222   4.125795   2.863540   2.652105
    14  O    2.720735   3.406683   2.305040   2.710679   3.418381
    15  H    2.783577   3.376848   2.510177   3.043756   3.977451
                    6          7          8          9         10
     6  O    0.000000
     7  C    1.442954   0.000000
     8  C    2.436876   1.515274   0.000000
     9  H    2.007967   1.088626   2.170565   0.000000
    10  H    2.067837   1.090619   2.167927   1.779554   0.000000
    11  H    3.374425   2.144420   1.091789   2.511685   2.512683
    12  H    2.680701   2.154143   1.090937   2.506709   3.069629
    13  H    2.730434   2.155641   1.090036   3.071575   2.500671
    14  O    3.071399   4.155119   4.085358   4.815192   4.801658
    15  H    3.067828   4.236868   4.309883   4.695352   5.006995
                   11         12         13         14         15
    11  H    0.000000
    12  H    1.772257   0.000000
    13  H    1.771240   1.775822   0.000000
    14  O    5.159458   3.775277   3.769296   0.000000
    15  H    5.378235   3.847153   4.231081   0.971781   0.000000
 Stoichiometry    C5H7O3(2)
 Framework group  C1[X(C5H7O3)]
 Deg. of freedom    39
 Full point group                 C1      NOp   1
 Largest Abelian subgroup         C1      NOp   1
 Largest concise Abelian subgroup C1      NOp   1
                         Standard orientation:                         
 ---------------------------------------------------------------------
 Center     Atomic      Atomic             Coordinates (Angstroms)
 Number     Number       Type             X           Y           Z
 ---------------------------------------------------------------------
      1          6           0       -2.816429   -0.445598   -0.384426
      2          1           0       -3.864018   -0.426592   -0.575825
      3          6           0       -1.637657   -0.454718   -0.152649
      4          6           0       -0.223258   -0.627097    0.168978
      5          8           0        0.156253   -1.124343    1.189949
      6          8           0        0.554849   -0.209047   -0.829242
      7          6           0        1.975250   -0.350311   -0.618005
      8          6           0        2.505535    0.767534    0.256795
      9          1           0        2.397040   -0.315730   -1.621002
     10          1           0        2.165812   -1.329272   -0.176676
     11          1           0        3.588468    0.671847    0.357319
     12          1           0        2.282307    1.738123   -0.188480
     13          1           0        2.059668    0.721467    1.250404
     14          8           0       -1.450308    1.781085    0.375836
     15          1           0       -1.536275    2.019739   -0.562253
 ---------------------------------------------------------------------
 Rotational constants (GHZ):           3.4013672           1.3030169           1.1511469
 Standard basis: 6-311++G(d,p) (5D, 7F)
 There are   233 symmetry adapted cartesian basis functions of A   symmetry.
 There are   225 symmetry adapted basis functions of A   symmetry.
   225 basis functions,   351 primitive gaussians,   233 cartesian basis functions
    31 alpha electrons       30 beta electrons
       nuclear repulsion energy       358.7594340456 Hartrees.
 NAtoms=   15 NActive=   15 NUniq=   15 SFac= 1.00D+00 NAtFMM=   60 NAOKFM=F Big=F
 Integral buffers will be    131072 words long.
 Raffenetti 2 integral format.
 Two-electron integral symmetry is turned on.
 One-electron integrals computed using PRISM.
 NBasis=   225 RedAO= T EigKep=  7.93D-06  NBF=   225
 NBsUse=   224 1.00D-06 EigRej=  8.21D-07 NBFU=   224
 ExpMin= 3.60D-02 ExpMax= 8.59D+03 ExpMxC= 1.30D+03 IAcc=3 IRadAn=         5 AccDes= 0.00D+00
 Harris functional with IExCor= 1009 and IRadAn=       5 diagonalized for initial guess.
 HarFok:  IExCor= 1009 AccDes= 0.00D+00 IRadAn=         5 IDoV= 1 UseB2=F ITyADJ=14
 ICtDFT=  3500011 ScaDFX=  1.000000  1.000000  1.000000  1.000000
 FoFCou: FMM=F IPFlag=           0 FMFlag=      100000 FMFlg1=           0
         NFxFlg=           0 DoJE=T BraDBF=F KetDBF=T FulRan=T
         wScrn=  0.000000 ICntrl=       500 IOpCl=  0 I1Cent=   200000004 NGrid=           0
         NMat0=    1 NMatS0=      1 NMatT0=    0 NMatD0=    1 NMtDS0=    0 NMtDT0=    0
 Petite list used in FoFCou.
 Initial guess <Sx>= 0.0000 <Sy>= 0.0000 <Sz>= 0.5000 <S**2>= 0.7500 S= 0.5000
 Requested convergence on RMS density matrix=1.00D-08 within 128 cycles.
 Requested convergence on MAX density matrix=1.00D-06.
 Requested convergence on             energy=1.00D-06.
 No special actions if energy rises.
 Restarting incremental Fock formation.
 SCF Done:  E(UM062X) =  -420.207404761     A.U. after   23 cycles
            NFock= 23  Conv=0.18D-08     -V/T= 2.0032
 <Sx>= 0.0000 <Sy>= 0.0000 <Sz>= 0.5000 <S**2>= 0.7568 S= 0.5034
 <L.S>=  0.00000000000    
 Annihilation of the first spin contaminant:
 S**2 before annihilation     0.7568,   after     0.7500
 DoSCS=F DFT=T ScalE2(SS,OS)=  1.000000  1.000000
 Range of M.O.s used for correlation:     1   224
 NBasis=   225 NAE=    31 NBE=    30 NFC=     0 NFV=     0
 NROrb=    224 NOA=    31 NOB=    30 NVA=   193 NVB=   194

 **** Warning!!: The largest alpha MO coefficient is  0.78256086D+02


 **** Warning!!: The largest beta MO coefficient is  0.79317435D+02

 Symmetrizing basis deriv contribution to polar:
 IMax=3 JMax=2 DiffMx= 0.00D+00
 G2DrvN: will do    16 centers at a time, making    1 passes.
 Calling FoFCou, ICntrl=  3107 FMM=F I1Cent=   0 AccDes= 0.00D+00.
 End of G2Drv F.D. properties file   721 does not exist.
 End of G2Drv F.D. properties file   722 does not exist.
 End of G2Drv F.D. properties file   788 does not exist.
          IDoAtm=111111111111111
          Differentiating once with respect to electric field.
                with respect to dipole field.
          Differentiating once with respect to nuclear coordinates.
 Keep R1 and R2 ints in memory in canonical form, NReq=671901989.
          There are    48 degrees of freedom in the 1st order CPHF.  IDoFFX=6 NUNeed=     3.
     45 vectors produced by pass  0 Test12= 2.46D-14 2.08D-09 XBig12= 9.48D+01 3.46D+00.
 AX will form    45 AO Fock derivatives at one time.
     45 vectors produced by pass  1 Test12= 2.46D-14 2.08D-09 XBig12= 2.01D+01 7.13D-01.
     45 vectors produced by pass  2 Test12= 2.46D-14 2.08D-09 XBig12= 7.08D-01 1.62D-01.
     45 vectors produced by pass  3 Test12= 2.46D-14 2.08D-09 XBig12= 9.92D-03 1.43D-02.
     45 vectors produced by pass  4 Test12= 2.46D-14 2.08D-09 XBig12= 8.61D-05 1.21D-03.
     45 vectors produced by pass  5 Test12= 2.46D-14 2.08D-09 XBig12= 6.49D-07 7.97D-05.
     36 vectors produced by pass  6 Test12= 2.46D-14 2.08D-09 XBig12= 5.55D-09 9.05D-06.
     20 vectors produced by pass  7 Test12= 2.46D-14 2.08D-09 XBig12= 3.54D-11 6.26D-07.
      4 vectors produced by pass  8 Test12= 2.46D-14 2.08D-09 XBig12= 2.99D-13 5.27D-08.
      3 vectors produced by pass  9 Test12= 2.46D-14 2.08D-09 XBig12= 3.16D-15 4.53D-09.
 InvSVY:  IOpt=1 It=  1 EMax= 1.07D-14
 Solved reduced A of dimension   333 with    48 vectors.
 Isotropic polarizability for W=    0.000000       71.01 Bohr**3.
 End of Minotr F.D. properties file   721 does not exist.
 End of Minotr F.D. properties file   722 does not exist.
 End of Minotr F.D. properties file   788 does not exist.

 **********************************************************************

            Population analysis using the SCF density.

 **********************************************************************

 Orbital symmetries:
 Alpha Orbitals:
       Occupied  (A) (A) (A) (A) (A) (A) (A) (A) (A) (A) (A) (A)
                 (A) (A) (A) (A) (A) (A) (A) (A) (A) (A) (A) (A)
                 (A) (A) (A) (A) (A) (A) (A)
       Virtual   (A) (A) (A) (A) (A) (A) (A) (A) (A) (A) (A) (A)
                 (A) (A) (A) (A) (A) (A) (A) (A) (A) (A) (A) (A)
                 (A) (A) (A) (A) (A) (A) (A) (A) (A) (A) (A) (A)
                 (A) (A) (A) (A) (A) (A) (A) (A) (A) (A) (A) (A)
                 (A) (A) (A) (A) (A) (A) (A) (A) (A) (A) (A) (A)
                 (A) (A) (A) (A) (A) (A) (A) (A) (A) (A) (A) (A)
                 (A) (A) (A) (A) (A) (A) (A) (A) (A) (A) (A) (A)
                 (A) (A) (A) (A) (A) (A) (A) (A) (A) (A) (A) (A)
                 (A) (A) (A) (A) (A) (A) (A) (A) (A) (A) (A) (A)
                 (A) (A) (A) (A) (A) (A) (A) (A) (A) (A) (A) (A)
                 (A) (A) (A) (A) (A) (A) (A) (A) (A) (A) (A) (A)
                 (A) (A) (A) (A) (A) (A) (A) (A) (A) (A) (A) (A)
                 (A) (A) (A) (A) (A) (A) (A) (A) (A) (A) (A) (A)
                 (A) (A) (A) (A) (A) (A) (A) (A) (A) (A) (A) (A)
                 (A) (A) (A) (A) (A) (A) (A) (A) (A) (A) (A) (A)
                 (A) (A) (A) (A) (A) (A) (A) (A) (A) (A) (A) (A)
                 (A)
 Beta  Orbitals:
       Occupied  (A) (A) (A) (A) (A) (A) (A) (A) (A) (A) (A) (A)
                 (A) (A) (A) (A) (A) (A) (A) (A) (A) (A) (A) (A)
                 (A) (A) (A) (A) (A) (A)
       Virtual   (A) (A) (A) (A) (A) (A) (A) (A) (A) (A) (A) (A)
                 (A) (A) (A) (A) (A) (A) (A) (A) (A) (A) (A) (A)
                 (A) (A) (A) (A) (A) (A) (A) (A) (A) (A) (A) (A)
                 (A) (A) (A) (A) (A) (A) (A) (A) (A) (A) (A) (A)
                 (A) (A) (A) (A) (A) (A) (A) (A) (A) (A) (A) (A)
                 (A) (A) (A) (A) (A) (A) (A) (A) (A) (A) (A) (A)
                 (A) (A) (A) (A) (A) (A) (A) (A) (A) (A) (A) (A)
                 (A) (A) (A) (A) (A) (A) (A) (A) (A) (A) (A) (A)
                 (A) (A) (A) (A) (A) (A) (A) (A) (A) (A) (A) (A)
                 (A) (A) (A) (A) (A) (A) (A) (A) (A) (A) (A) (A)
                 (A) (A) (A) (A) (A) (A) (A) (A) (A) (A) (A) (A)
                 (A) (A) (A) (A) (A) (A) (A) (A) (A) (A) (A) (A)
                 (A) (A) (A) (A) (A) (A) (A) (A) (A) (A) (A) (A)
                 (A) (A) (A) (A) (A) (A) (A) (A) (A) (A) (A) (A)
                 (A) (A) (A) (A) (A) (A) (A) (A) (A) (A) (A) (A)
                 (A) (A) (A) (A) (A) (A) (A) (A) (A) (A) (A) (A)
                 (A) (A)
 The electronic state is 2-A.
 Alpha  occ. eigenvalues --  -19.68261 -19.67555 -19.63068 -10.70615 -10.60565
 Alpha  occ. eigenvalues --  -10.57750 -10.57474 -10.53604  -1.25620  -1.16367
 Alpha  occ. eigenvalues --   -1.13278  -0.90636  -0.87244  -0.78066  -0.70622
 Alpha  occ. eigenvalues --   -0.64502  -0.61621  -0.58483  -0.56677  -0.55206
 Alpha  occ. eigenvalues --   -0.53482  -0.50428  -0.48926  -0.46370  -0.45226
 Alpha  occ. eigenvalues --   -0.42669  -0.41985  -0.39356  -0.38507  -0.36509
 Alpha  occ. eigenvalues --   -0.36005
 Alpha virt. eigenvalues --   -0.01189  -0.00492   0.00504   0.01353   0.02180
 Alpha virt. eigenvalues --    0.02859   0.03693   0.04623   0.05475   0.06163
 Alpha virt. eigenvalues --    0.07289   0.07931   0.07989   0.10285   0.10579
 Alpha virt. eigenvalues --    0.10913   0.11905   0.12744   0.13194   0.13548
 Alpha virt. eigenvalues --    0.14059   0.14912   0.15148   0.15825   0.16813
 Alpha virt. eigenvalues --    0.17156   0.18068   0.18477   0.19598   0.20388
 Alpha virt. eigenvalues --    0.20872   0.22105   0.23567   0.23890   0.24792
 Alpha virt. eigenvalues --    0.26707   0.28415   0.28693   0.29548   0.30103
 Alpha virt. eigenvalues --    0.31075   0.32313   0.32609   0.33474   0.34602
 Alpha virt. eigenvalues --    0.35107   0.36611   0.37304   0.40358   0.41183
 Alpha virt. eigenvalues --    0.42392   0.45007   0.46874   0.49166   0.50364
 Alpha virt. eigenvalues --    0.52127   0.54812   0.57149   0.58161   0.60393
 Alpha virt. eigenvalues --    0.61901   0.63477   0.65707   0.67234   0.69543
 Alpha virt. eigenvalues --    0.70364   0.71055   0.72018   0.73590   0.74783
 Alpha virt. eigenvalues --    0.75404   0.75797   0.78135   0.80341   0.84911
 Alpha virt. eigenvalues --    0.88887   0.90313   0.96035   1.01169   1.02248
 Alpha virt. eigenvalues --    1.04015   1.06428   1.09187   1.10268   1.13766
 Alpha virt. eigenvalues --    1.16032   1.18615   1.20418   1.22158   1.24214
 Alpha virt. eigenvalues --    1.24627   1.29326   1.32410   1.33914   1.34834
 Alpha virt. eigenvalues --    1.36112   1.37101   1.37779   1.42940   1.45234
 Alpha virt. eigenvalues --    1.48793   1.50534   1.51508   1.54341   1.58332
 Alpha virt. eigenvalues --    1.59849   1.60764   1.61859   1.64489   1.66053
 Alpha virt. eigenvalues --    1.66938   1.70267   1.71695   1.75091   1.75759
 Alpha virt. eigenvalues --    1.81570   1.83744   1.86697   1.87675   1.91638
 Alpha virt. eigenvalues --    1.97781   1.99866   2.02913   2.05332   2.08946
 Alpha virt. eigenvalues --    2.09986   2.14020   2.21566   2.31617   2.35695
 Alpha virt. eigenvalues --    2.41697   2.48012   2.51621   2.52083   2.54363
 Alpha virt. eigenvalues --    2.56522   2.61688   2.62675   2.64017   2.65312
 Alpha virt. eigenvalues --    2.65967   2.71011   2.72971   2.75626   2.80763
 Alpha virt. eigenvalues --    2.82520   2.83402   2.89266   2.92663   2.94277
 Alpha virt. eigenvalues --    2.95296   2.99205   3.02152   3.04182   3.06874
 Alpha virt. eigenvalues --    3.11743   3.15125   3.16395   3.18383   3.25087
 Alpha virt. eigenvalues --    3.26080   3.31881   3.35595   3.38548   3.44686
 Alpha virt. eigenvalues --    3.55995   3.66479   3.75819   3.85378   3.86080
 Alpha virt. eigenvalues --    3.86856   3.91229   4.03686   4.13743   4.19519
 Alpha virt. eigenvalues --    4.28273   5.08676   5.11667   5.16825   5.19568
 Alpha virt. eigenvalues --    5.32942   5.47457   5.54191   5.73305   5.94786
 Alpha virt. eigenvalues --   23.62938  23.93683  23.94556  24.06151  25.14906
 Alpha virt. eigenvalues --   49.94487  50.00533  50.11957
  Beta  occ. eigenvalues --  -19.68266 -19.65976 -19.63080 -10.70605 -10.60565
  Beta  occ. eigenvalues --  -10.57704 -10.57418 -10.53605  -1.25627  -1.16393
  Beta  occ. eigenvalues --   -1.05708  -0.90399  -0.87013  -0.77970  -0.70534
  Beta  occ. eigenvalues --   -0.64471  -0.61398  -0.58439  -0.56449  -0.53519
  Beta  occ. eigenvalues --   -0.52192  -0.49277  -0.46660  -0.45255  -0.42001
  Beta  occ. eigenvalues --   -0.40179  -0.38879  -0.38169  -0.37859  -0.36318
  Beta virt. eigenvalues --   -0.08769  -0.00730  -0.00335   0.00559   0.01666
  Beta virt. eigenvalues --    0.02226   0.02943   0.03693   0.04750   0.05574
  Beta virt. eigenvalues --    0.06212   0.07345   0.07975   0.07998   0.10436
  Beta virt. eigenvalues --    0.10720   0.11085   0.12037   0.12759   0.13237
  Beta virt. eigenvalues --    0.13646   0.14130   0.15034   0.15202   0.15876
  Beta virt. eigenvalues --    0.17010   0.17340   0.18153   0.18545   0.19748
  Beta virt. eigenvalues --    0.20425   0.20906   0.22308   0.23560   0.23847
  Beta virt. eigenvalues --    0.24586   0.26652   0.28252   0.28700   0.29833
  Beta virt. eigenvalues --    0.30228   0.31068   0.32316   0.32651   0.33582
  Beta virt. eigenvalues --    0.34649   0.35118   0.36575   0.37268   0.40371
  Beta virt. eigenvalues --    0.41211   0.42373   0.45013   0.46883   0.49234
  Beta virt. eigenvalues --    0.50384   0.52224   0.54894   0.57358   0.58631
  Beta virt. eigenvalues --    0.60635   0.62238   0.63530   0.65707   0.67315
  Beta virt. eigenvalues --    0.69598   0.70402   0.71066   0.72004   0.73624
  Beta virt. eigenvalues --    0.74805   0.75454   0.75982   0.78197   0.80373
  Beta virt. eigenvalues --    0.85113   0.88918   0.90671   0.96072   1.01218
  Beta virt. eigenvalues --    1.03318   1.04426   1.06581   1.10057   1.11590
  Beta virt. eigenvalues --    1.14469   1.16088   1.18675   1.20588   1.22413
  Beta virt. eigenvalues --    1.24639   1.24809   1.29394   1.33008   1.34629
  Beta virt. eigenvalues --    1.35310   1.36565   1.37272   1.37980   1.43608
  Beta virt. eigenvalues --    1.45635   1.49127   1.50875   1.51915   1.54999
  Beta virt. eigenvalues --    1.58341   1.59867   1.60825   1.61875   1.64506
  Beta virt. eigenvalues --    1.66194   1.66984   1.70329   1.72129   1.75159
  Beta virt. eigenvalues --    1.76086   1.81641   1.83917   1.86755   1.87922
  Beta virt. eigenvalues --    1.91691   1.97956   1.99983   2.02987   2.05391
  Beta virt. eigenvalues --    2.09667   2.10769   2.14028   2.21572   2.31628
  Beta virt. eigenvalues --    2.35699   2.42007   2.48062   2.51625   2.52056
  Beta virt. eigenvalues --    2.54376   2.56560   2.61865   2.62705   2.64311
  Beta virt. eigenvalues --    2.65707   2.66023   2.71260   2.73173   2.75947
  Beta virt. eigenvalues --    2.81220   2.82648   2.85518   2.90825   2.94213
  Beta virt. eigenvalues --    2.95991   2.98159   2.99385   3.02751   3.05639
  Beta virt. eigenvalues --    3.07114   3.12951   3.15808   3.18388   3.20614
  Beta virt. eigenvalues --    3.25789   3.26337   3.31923   3.35857   3.38532
  Beta virt. eigenvalues --    3.44656   3.56236   3.66473   3.75940   3.85498
  Beta virt. eigenvalues --    3.86245   3.89686   3.91710   4.03697   4.13745
  Beta virt. eigenvalues --    4.19516   4.28273   5.11744   5.15481   5.19366
  Beta virt. eigenvalues --    5.20770   5.32946   5.47466   5.56457   5.73296
  Beta virt. eigenvalues --    5.94778  23.62969  23.93685  23.94562  24.06151
  Beta virt. eigenvalues --   25.15076  49.94039  50.00525  50.11970
          Condensed to atoms (all electrons):
               1          2          3          4          5          6
     1  C    5.448974   0.423019  -0.172205   0.878675  -0.094697  -0.061995
     2  H    0.423019   0.428124  -0.057780   0.012170  -0.003354  -0.004443
     3  C   -0.172205  -0.057780   8.414678  -2.677320   0.194631  -0.282946
     4  C    0.878675   0.012170  -2.677320   8.100723   0.303041   0.154941
     5  O   -0.094697  -0.003354   0.194631   0.303041   7.971774  -0.141002
     6  O   -0.061995  -0.004443  -0.282946   0.154941  -0.141002   8.284568
     7  C    0.032257   0.000505  -0.222304   0.013016   0.050288   0.167367
     8  C   -0.010471  -0.000779  -0.034962  -0.050717  -0.075579  -0.037188
     9  H    0.001852   0.000169  -0.003412   0.011374   0.004497  -0.089976
    10  H    0.000465  -0.000183  -0.014726  -0.001143  -0.017914  -0.007863
    11  H   -0.001214   0.000002   0.006171  -0.003339  -0.002636   0.017721
    12  H    0.000567   0.000006   0.000190   0.002376   0.002098  -0.002829
    13  H   -0.001239  -0.000087  -0.009374  -0.017224   0.005329  -0.017664
    14  O   -0.013106   0.000701  -0.004751  -0.050003  -0.008429   0.025479
    15  H   -0.003532  -0.001098   0.049537  -0.038552   0.000759   0.000867
               7          8          9         10         11         12
     1  C    0.032257  -0.010471   0.001852   0.000465  -0.001214   0.000567
     2  H    0.000505  -0.000779   0.000169  -0.000183   0.000002   0.000006
     3  C   -0.222304  -0.034962  -0.003412  -0.014726   0.006171   0.000190
     4  C    0.013016  -0.050717   0.011374  -0.001143  -0.003339   0.002376
     5  O    0.050288  -0.075579   0.004497  -0.017914  -0.002636   0.002098
     6  O    0.167367  -0.037188  -0.089976  -0.007863   0.017721  -0.002829
     7  C    5.431003   0.028157   0.446643   0.403694  -0.052837  -0.035950
     8  C    0.028157   5.466064  -0.063660  -0.019594   0.404853   0.414398
     9  H    0.446643  -0.063660   0.537601  -0.038064  -0.000504  -0.011822
    10  H    0.403694  -0.019594  -0.038064   0.513770  -0.004847   0.005424
    11  H   -0.052837   0.404853  -0.000504  -0.004847   0.534757  -0.033516
    12  H   -0.035950   0.414398  -0.011822   0.005424  -0.033516   0.548666
    13  H    0.005652   0.381742   0.011635  -0.011178  -0.032868  -0.046360
    14  O   -0.011975   0.016364   0.000361  -0.000672   0.001408   0.000189
    15  H    0.002596   0.000820   0.000330  -0.000560   0.000091  -0.001087
              13         14         15
     1  C   -0.001239  -0.013106  -0.003532
     2  H   -0.000087   0.000701  -0.001098
     3  C   -0.009374  -0.004751   0.049537
     4  C   -0.017224  -0.050003  -0.038552
     5  O    0.005329  -0.008429   0.000759
     6  O   -0.017664   0.025479   0.000867
     7  C    0.005652  -0.011975   0.002596
     8  C    0.381742   0.016364   0.000820
     9  H    0.011635   0.000361   0.000330
    10  H   -0.011178  -0.000672  -0.000560
    11  H   -0.032868   0.001408   0.000091
    12  H   -0.046360   0.000189  -0.001087
    13  H    0.536002  -0.001000   0.000668
    14  O   -0.001000   7.992996   0.260962
    15  H    0.000668   0.260962   0.507247
          Atomic-Atomic Spin Densities.
               1          2          3          4          5          6
     1  C    0.142541  -0.001367   0.059225  -0.027342   0.002054   0.000407
     2  H   -0.001367  -0.005071   0.000632  -0.000797   0.000074   0.000078
     3  C    0.059225   0.000632  -0.057083   0.038064  -0.007878  -0.003778
     4  C   -0.027342  -0.000797   0.038064  -0.018580   0.006753  -0.003704
     5  O    0.002054   0.000074  -0.007878   0.006753  -0.007929   0.000171
     6  O    0.000407   0.000078  -0.003778  -0.003704   0.000171   0.001710
     7  C    0.003211   0.000282  -0.025714   0.001904  -0.000186   0.004274
     8  C   -0.000798  -0.000078   0.009255   0.001015   0.000396  -0.002538
     9  H    0.000021   0.000007  -0.000590  -0.000394   0.000059   0.000110
    10  H   -0.000439  -0.000032   0.002796  -0.000211   0.000076  -0.000483
    11  H    0.000047   0.000002  -0.000215   0.000115   0.000030  -0.000004
    12  H    0.000092   0.000002   0.000080   0.000458  -0.000120   0.000104
    13  H    0.000799   0.000047  -0.005348   0.003229  -0.000272   0.000140
    14  O   -0.038443  -0.000935  -0.041430  -0.001356   0.002235   0.000885
    15  H    0.000209  -0.000072   0.001436  -0.000214  -0.000119   0.000311
               7          8          9         10         11         12
     1  C    0.003211  -0.000798   0.000021  -0.000439   0.000047   0.000092
     2  H    0.000282  -0.000078   0.000007  -0.000032   0.000002   0.000002
     3  C   -0.025714   0.009255  -0.000590   0.002796  -0.000215   0.000080
     4  C    0.001904   0.001015  -0.000394  -0.000211   0.000115   0.000458
     5  O   -0.000186   0.000396   0.000059   0.000076   0.000030  -0.000120
     6  O    0.004274  -0.002538   0.000110  -0.000483  -0.000004   0.000104
     7  C    0.014572  -0.003233   0.001515  -0.002473   0.000452  -0.000668
     8  C   -0.003233  -0.002020  -0.000760   0.000904  -0.000315   0.000439
     9  H    0.001515  -0.000760   0.000002  -0.000152   0.000037  -0.000062
    10  H   -0.002473   0.000904  -0.000152   0.000192   0.000007   0.000026
    11  H    0.000452  -0.000315   0.000037   0.000007  -0.000052  -0.000018
    12  H   -0.000668   0.000439  -0.000062   0.000026  -0.000018   0.000132
    13  H    0.001718  -0.000174   0.000167  -0.000182   0.000044  -0.000412
    14  O    0.003967  -0.002732   0.000051  -0.000162  -0.000138   0.000050
    15  H   -0.000699   0.000691  -0.000013   0.000041   0.000024  -0.000084
              13         14         15
     1  C    0.000799  -0.038443   0.000209
     2  H    0.000047  -0.000935  -0.000072
     3  C   -0.005348  -0.041430   0.001436
     4  C    0.003229  -0.001356  -0.000214
     5  O   -0.000272   0.002235  -0.000119
     6  O    0.000140   0.000885   0.000311
     7  C    0.001718   0.003967  -0.000699
     8  C   -0.000174  -0.002732   0.000691
     9  H    0.000167   0.000051  -0.000013
    10  H   -0.000182  -0.000162   0.000041
    11  H    0.000044  -0.000138   0.000024
    12  H   -0.000412   0.000050  -0.000084
    13  H   -0.000657  -0.000049  -0.000190
    14  O   -0.000049   0.999108   0.009238
    15  H   -0.000190   0.009238  -0.033034
 Mulliken charges and spin densities:
               1          2
     1  C   -0.427351   0.140217
     2  H    0.203027  -0.007227
     3  C    0.814573  -0.030548
     4  C   -0.638019  -0.001058
     5  O   -0.188805  -0.004655
     6  O   -0.005036  -0.002317
     7  C   -0.258112  -0.001077
     8  C   -0.419447   0.000052
     9  H    0.192978  -0.000002
    10  H    0.193393  -0.000093
    11  H    0.166758   0.000017
    12  H    0.157650   0.000019
    13  H    0.195965  -0.001142
    14  O   -0.208526   0.930289
    15  H    0.220952  -0.022476
 Sum of Mulliken charges =  -0.00000   1.00000
 Mulliken charges and spin densities with hydrogens summed into heavy atoms:
               1          2
     1  C   -0.224324   0.132990
     3  C    0.814573  -0.030548
     4  C   -0.638019  -0.001058
     5  O   -0.188805  -0.004655
     6  O   -0.005036  -0.002317
     7  C    0.128258  -0.001172
     8  C    0.100927  -0.001053
    14  O    0.012426   0.907813
 APT charges:
               1
     1  C   -0.201111
     2  H    0.233067
     3  C   -0.331817
     4  C    1.464344
     5  O   -0.769343
     6  O   -0.951534
     7  C    0.536120
     8  C   -0.040844
     9  H   -0.015448
    10  H   -0.011223
    11  H    0.008688
    12  H    0.008351
    13  H    0.033190
    14  O   -0.229958
    15  H    0.267518
 Sum of APT charges =   0.00000
 APT charges with hydrogens summed into heavy atoms:
               1
     1  C    0.031956
     3  C   -0.331817
     4  C    1.464344
     5  O   -0.769343
     6  O   -0.951534
     7  C    0.509450
     8  C    0.009385
    14  O    0.037560
 Electronic spatial extent (au):  <R**2>=           1086.1624
 Charge=              0.0000 electrons
 Dipole moment (field-independent basis, Debye):
    X=              0.1775    Y=              0.7891    Z=             -3.0609  Tot=              3.1659
 Quadrupole moment (field-independent basis, Debye-Ang):
   XX=            -33.5269   YY=            -48.0077   ZZ=            -51.2925
   XY=              0.6104   XZ=              2.9367   YZ=             -0.5738
 Traceless Quadrupole moment (field-independent basis, Debye-Ang):
   XX=             10.7488   YY=             -3.7320   ZZ=             -7.0168
   XY=              0.6104   XZ=              2.9367   YZ=             -0.5738
 Octapole moment (field-independent basis, Debye-Ang**2):
  XXX=            -26.8591  YYY=             10.4917  ZZZ=             -1.4440  XYY=              2.2284
  XXY=             -4.8497  XXZ=            -14.0428  XZZ=              3.1166  YZZ=              5.9905
  YYZ=             -9.5797  XYZ=              5.6766
 Hexadecapole moment (field-independent basis, Debye-Ang**3):
 XXXX=           -763.8023 YYYY=           -271.7310 ZZZZ=           -168.3920 XXXY=              6.9736
 XXXZ=             32.7266 YYYX=            -21.2459 YYYZ=            -13.3071 ZZZX=             -7.6869
 ZZZY=              0.8442 XXYY=           -218.5770 XXZZ=           -190.5456 YYZZ=            -79.1660
 XXYZ=             -6.0615 YYXZ=              8.8162 ZZXY=             -5.5669
 N-N= 3.587594340456D+02 E-N=-1.702338879069D+03  KE= 4.188705795138D+02
  Exact polarizability:  91.405   3.745  63.316   4.669  -1.098  58.304
 Approx polarizability:  98.829   1.291  69.342   8.348  -5.186  75.045
                          Isotropic Fermi Contact Couplings
        Atom                 a.u.       MegaHertz       Gauss      10(-4) cm-1
     1  C(13)              0.02423      27.24460       9.72155       9.08782
     2  H(1)              -0.00215      -9.60778      -3.42830      -3.20481
     3  C(13)              0.01612      18.12045       6.46583       6.04433
     4  C(13)              0.00589       6.62416       2.36367       2.20958
     5  O(17)             -0.00185       1.12119       0.40007       0.37399
     6  O(17)             -0.00136       0.82716       0.29515       0.27591
     7  C(13)              0.00000       0.00311       0.00111       0.00104
     8  C(13)             -0.00028      -0.31011      -0.11065      -0.10344
     9  H(1)               0.00000       0.01548       0.00553       0.00517
    10  H(1)              -0.00004      -0.17188      -0.06133      -0.05733
    11  H(1)              -0.00001      -0.02668      -0.00952      -0.00890
    12  H(1)              -0.00000      -0.00339      -0.00121      -0.00113
    13  H(1)              -0.00000      -0.00324      -0.00115      -0.00108
    14  O(17)              0.13155     -79.74277     -28.45420     -26.59932
    15  H(1)              -0.01518     -67.83193     -24.20412     -22.62630
 --------------------------------------------------------
       Center         ----  Spin Dipole Couplings  ----
                      3XX-RR        3YY-RR        3ZZ-RR
 --------------------------------------------------------
     1   Atom       -0.082614      0.139336     -0.056722
     2   Atom        0.013310     -0.002304     -0.011006
     3   Atom        0.006215      0.026577     -0.032791
     4   Atom        0.001342      0.010449     -0.011791
     5   Atom        0.012204     -0.014297      0.002093
     6   Atom        0.005826     -0.007312      0.001486
     7   Atom        0.002169     -0.000508     -0.001660
     8   Atom        0.003529     -0.001590     -0.001939
     9   Atom        0.001182     -0.000546     -0.000636
    10   Atom        0.001003      0.000236     -0.001239
    11   Atom        0.001811     -0.000822     -0.000989
    12   Atom        0.004783     -0.002435     -0.002348
    13   Atom        0.003885     -0.001757     -0.002128
    14   Atom       -1.080536      2.671399     -1.590863
    15   Atom       -0.112981     -0.037113      0.150095
 --------------------------------------------------------
                        XY            XZ            YZ
 --------------------------------------------------------
     1   Atom        0.028078      0.003137      0.048947
     2   Atom        0.004762      0.005954      0.003179
     3   Atom       -0.004985      0.008092      0.013434
     4   Atom       -0.013922     -0.000498      0.002320
     5   Atom       -0.016518     -0.004905     -0.016174
     6   Atom       -0.005635     -0.004817      0.000759
     7   Atom       -0.002342     -0.001060      0.000660
     8   Atom       -0.001499     -0.000152      0.000032
     9   Atom       -0.001186     -0.001168      0.000633
    10   Atom       -0.001711     -0.000248      0.000265
    11   Atom       -0.000618     -0.000000      0.000014
    12   Atom       -0.000225     -0.001128      0.000096
    13   Atom       -0.001979      0.001627     -0.000459
    14   Atom        1.788023      0.401237      0.998614
    15   Atom        0.021600      0.028315     -0.060572
 --------------------------------------------------------


 ---------------------------------------------------------------------------------
              Anisotropic Spin Dipole Couplings in Principal Axis System
 ---------------------------------------------------------------------------------

       Atom             a.u.   MegaHertz   Gauss  10(-4) cm-1        Axes

              Baa    -0.0866   -11.615    -4.144    -3.874  0.9767 -0.1538  0.1497
     1 C(13)  Bbb    -0.0676    -9.077    -3.239    -3.028 -0.1795 -0.2033  0.9625
              Bcc     0.1542    20.692     7.383     6.902  0.1176  0.9670  0.2261
 
              Baa    -0.0128    -6.839    -2.440    -2.281 -0.1810 -0.2087  0.9611
     2 H(1)   Bbb    -0.0034    -1.831    -0.653    -0.611 -0.3177  0.9373  0.1437
              Bcc     0.0162     8.669     3.093     2.892  0.9308  0.2793  0.2359
 
              Baa    -0.0375    -5.036    -1.797    -1.680 -0.2013 -0.2159  0.9554
     3 C(13)  Bbb     0.0076     1.021     0.364     0.341  0.9695  0.0949  0.2258
              Bcc     0.0299     4.015     1.433     1.339 -0.1394  0.9718  0.1902
 
              Baa    -0.0122    -1.637    -0.584    -0.546 -0.1790 -0.2085  0.9615
     4 C(13)  Bbb    -0.0085    -1.139    -0.406    -0.380  0.7918  0.5495  0.2666
              Bcc     0.0207     2.776     0.991     0.926 -0.5839  0.8091  0.0667
 
              Baa    -0.0308     2.225     0.794     0.742  0.3644  0.8127  0.4546
     5 O(17)  Bbb     0.0101    -0.729    -0.260    -0.243 -0.3937 -0.3080  0.8661
              Bcc     0.0207    -1.496    -0.534    -0.499  0.8439 -0.4946  0.2077
 
              Baa    -0.0095     0.687     0.245     0.229  0.3708  0.9234  0.0988
     6 O(17)  Bbb    -0.0010     0.071     0.025     0.024  0.4073 -0.2573  0.8763
              Bcc     0.0105    -0.758    -0.270    -0.253  0.8346 -0.2846 -0.4716
 
              Baa    -0.0020    -0.263    -0.094    -0.088 -0.0100 -0.4270  0.9042
     7 C(13)  Bbb    -0.0019    -0.249    -0.089    -0.083  0.5386  0.7596  0.3646
              Bcc     0.0038     0.512     0.183     0.171  0.8425 -0.4907 -0.2224
 
              Baa    -0.0020    -0.268    -0.096    -0.089  0.2624  0.9509  0.1640
     8 C(13)  Bbb    -0.0019    -0.261    -0.093    -0.087 -0.0179 -0.1652  0.9861
              Bcc     0.0039     0.529     0.189     0.176  0.9648 -0.2617 -0.0263
 
              Baa    -0.0012    -0.659    -0.235    -0.220  0.1805 -0.4788  0.8592
     9 H(1)   Bbb    -0.0011    -0.607    -0.217    -0.202  0.5528  0.7719  0.3140
              Bcc     0.0024     1.265     0.452     0.422  0.8135 -0.4183 -0.4040
 
              Baa    -0.0013    -0.689    -0.246    -0.230 -0.1231 -0.3021  0.9453
    10 H(1)   Bbb    -0.0011    -0.596    -0.213    -0.199  0.6185  0.7215  0.3112
              Bcc     0.0024     1.285     0.458     0.429  0.7760 -0.6230 -0.0980
 
              Baa    -0.0010    -0.530    -0.189    -0.177 -0.0784 -0.3569  0.9308
    11 H(1)   Bbb    -0.0010    -0.509    -0.182    -0.170  0.2030  0.9085  0.3654
              Bcc     0.0019     1.040     0.371     0.347  0.9760 -0.2176 -0.0012
 
              Baa    -0.0026    -1.363    -0.486    -0.455  0.1195 -0.4745  0.8721
    12 H(1)   Bbb    -0.0024    -1.286    -0.459    -0.429  0.1004  0.8797  0.4648
              Bcc     0.0050     2.649     0.945     0.884  0.9877 -0.0320 -0.1528
 
              Baa    -0.0025    -1.360    -0.485    -0.454 -0.2994 -0.2078  0.9312
    13 H(1)   Bbb    -0.0024    -1.262    -0.450    -0.421  0.2227  0.9338  0.2800
              Bcc     0.0049     2.622     0.936     0.875  0.9278 -0.2912  0.2333
 
              Baa    -1.8137   131.237    46.829    43.776 -0.1502 -0.1574  0.9760
    14 O(17)  Bbb    -1.7960   129.960    46.373    43.350  0.9192 -0.3856  0.0793
              Bcc     3.6097  -261.197   -93.202   -87.126  0.3639  0.9091  0.2026
 
              Baa    -0.1261   -67.281   -24.008   -22.443  0.9251 -0.3398 -0.1694
    15 H(1)   Bbb    -0.0435   -23.194    -8.276    -7.737  0.3722  0.8999  0.2272
              Bcc     0.1696    90.475    32.284    30.179  0.0752 -0.2732  0.9590
 

 ---------------------------------------------------------------------------------

 Calling FoFJK, ICntrl=    100127 FMM=F ISym2X=0 I1Cent= 0 IOpClX= 1 NMat=1 NMatS=1 NMatT=0.
 Full mass-weighted force constant matrix:
 Low frequencies ---  -57.3926  -33.1296    0.0004    0.0005    0.0009    7.1210
 Low frequencies ---   30.6919   46.8920  106.8824
 ******    1 imaginary frequencies (negative Signs) ****** 
 Diagonal vibrational polarizability:
      217.2292838      91.7426374      19.2815755
 Harmonic frequencies (cm**-1), IR intensities (KM/Mole), Raman scattering
 activities (A**4/AMU), depolarization ratios for plane and unpolarized
 incident light, reduced masses (AMU), force constants (mDyne/A),
 and normal coordinates:
                      1                      2                      3
                      A                      A                      A
 Frequencies --    -19.5217                42.3811               106.7345
 Red. masses --      4.6394                 4.9700                 3.8388
 Frc consts  --      0.0010                 0.0053                 0.0258
 IR Inten    --      2.4681                 2.0388                 5.5678
  Atom  AN      X      Y      Z        X      Y      Z        X      Y      Z
     1   6     0.02  -0.02  -0.19    -0.04   0.05   0.02    -0.04  -0.18   0.03
     2   1     0.03  -0.06  -0.25    -0.04   0.13   0.03    -0.05  -0.32   0.06
     3   6     0.00   0.02  -0.12    -0.04  -0.05  -0.00    -0.03  -0.02  -0.02
     4   6    -0.01   0.05  -0.02    -0.04  -0.09  -0.02    -0.01   0.10  -0.03
     5   8    -0.07   0.22   0.09    -0.04  -0.08  -0.01     0.03   0.23   0.02
     6   8     0.04  -0.12  -0.05    -0.04  -0.10  -0.02    -0.05   0.04  -0.08
     7   6     0.03  -0.10   0.04    -0.03   0.08   0.06    -0.04   0.04  -0.09
     8   6     0.00   0.05  -0.15    -0.23   0.22  -0.00    -0.04  -0.16   0.17
     9   1     0.07  -0.30   0.05     0.02   0.05   0.08    -0.04   0.27  -0.08
    10   1    -0.00  -0.02   0.23     0.07   0.14   0.14    -0.03  -0.06  -0.31
    11   1    -0.00   0.06  -0.08    -0.23   0.37   0.08    -0.03  -0.15   0.08
    12   1     0.04  -0.03  -0.34    -0.32   0.16  -0.10    -0.10  -0.06   0.43
    13   1    -0.05   0.25  -0.16    -0.30   0.25  -0.03     0.02  -0.43   0.19
    14   8     0.02  -0.10   0.29     0.38  -0.05  -0.01     0.18  -0.06  -0.02
    15   1    -0.33   0.17   0.40     0.38  -0.05  -0.01    -0.17   0.03   0.04
                      4                      5                      6
                      A                      A                      A
 Frequencies --    125.6888               157.6500               194.5708
 Red. masses --      3.5686                 2.4015                 1.6274
 Frc consts  --      0.0332                 0.0352                 0.0363
 IR Inten    --      7.4175                15.8513                37.6638
  Atom  AN      X      Y      Z        X      Y      Z        X      Y      Z
     1   6    -0.02  -0.13  -0.17    -0.07  -0.11   0.16    -0.03   0.07   0.08
     2   1     0.01  -0.19  -0.33    -0.11  -0.24   0.34    -0.04   0.18   0.17
     3   6    -0.06  -0.04   0.03    -0.03   0.05  -0.07    -0.01  -0.04  -0.04
     4   6    -0.06   0.04   0.09    -0.02   0.04  -0.08    -0.00   0.02  -0.04
     5   8    -0.05  -0.04   0.05    -0.10  -0.04  -0.09     0.00   0.08  -0.01
     6   8    -0.08   0.19   0.14     0.06   0.08   0.00     0.01   0.02  -0.04
     7   6    -0.08   0.04  -0.01     0.04  -0.03   0.10     0.01  -0.00   0.02
     8   6     0.17   0.00  -0.12     0.09   0.03  -0.01     0.01  -0.01   0.02
     9   1    -0.18  -0.06  -0.06     0.10  -0.19   0.12     0.05  -0.03   0.03
    10   1    -0.15   0.03   0.01    -0.08   0.01   0.23    -0.04   0.00   0.04
    11   1     0.16  -0.16  -0.21     0.05  -0.14   0.19    -0.02  -0.17   0.23
    12   1     0.28   0.02  -0.15     0.33  -0.00  -0.20     0.25  -0.00  -0.09
    13   1     0.25   0.12  -0.08    -0.08   0.27  -0.07    -0.17   0.13  -0.05
    14   8     0.12  -0.05  -0.00     0.06  -0.02  -0.03    -0.05  -0.13   0.01
    15   1     0.53  -0.15  -0.06    -0.52   0.13   0.06     0.78  -0.25  -0.10
                      7                      8                      9
                      A                      A                      A
 Frequencies --    210.3827               233.4342               284.0761
 Red. masses --      2.8009                 1.4986                 3.8028
 Frc consts  --      0.0730                 0.0481                 0.1808
 IR Inten    --      8.7235                17.2454                 9.3009
  Atom  AN      X      Y      Z        X      Y      Z        X      Y      Z
     1   6     0.01  -0.18  -0.02     0.04   0.05  -0.06     0.05  -0.12  -0.02
     2   1     0.02  -0.28  -0.04     0.06   0.05  -0.17     0.06  -0.47  -0.13
     3   6     0.01  -0.05   0.00     0.01   0.04   0.09     0.03   0.39   0.14
     4   6     0.00  -0.01  -0.02     0.02   0.01   0.04     0.02   0.13   0.02
     5   8     0.04  -0.00  -0.03     0.08  -0.02   0.01     0.00  -0.06  -0.07
     6   8    -0.01  -0.02  -0.05    -0.04   0.02  -0.00     0.03  -0.01  -0.03
     7   6    -0.01  -0.03   0.00    -0.04   0.01  -0.03     0.01  -0.09   0.03
     8   6    -0.07  -0.02   0.01    -0.05  -0.02   0.01    -0.11  -0.01  -0.02
     9   1     0.04  -0.06   0.02    -0.04   0.03  -0.03     0.07  -0.17   0.05
    10   1    -0.05  -0.02   0.04    -0.04  -0.00  -0.05    -0.05  -0.07   0.11
    11   1    -0.12  -0.21   0.37    -0.12  -0.32   0.44    -0.08   0.23  -0.09
    12   1     0.26  -0.03  -0.17     0.39  -0.01  -0.19    -0.35  -0.07  -0.01
    13   1    -0.38   0.19  -0.12    -0.43   0.22  -0.15    -0.03  -0.09   0.02
    14   8    -0.01   0.27   0.09     0.01  -0.07  -0.03    -0.03  -0.11  -0.01
    15   1     0.53   0.03  -0.03    -0.41   0.04   0.03     0.50  -0.04  -0.04
                     10                     11                     12
                      A                      A                      A
 Frequencies --    343.0311               423.8679               521.0766
 Red. masses --      3.0141                 3.9644                 1.1270
 Frc consts  --      0.2090                 0.4197                 0.1803
 IR Inten    --     14.0261                 0.8846                97.5704
  Atom  AN      X      Y      Z        X      Y      Z        X      Y      Z
     1   6    -0.01   0.04  -0.03     0.11   0.01   0.06     0.00  -0.01   0.01
     2   1     0.00   0.15  -0.07     0.08   0.06   0.24    -0.00  -0.01   0.06
     3   6    -0.02  -0.12   0.04     0.14  -0.07  -0.17     0.02   0.00  -0.05
     4   6     0.01   0.03  -0.05     0.06   0.04   0.05    -0.00  -0.02   0.01
     5   8     0.20   0.04  -0.11    -0.09  -0.02   0.08     0.04  -0.00   0.01
     6   8    -0.04   0.13  -0.03     0.06   0.21   0.13    -0.02  -0.01   0.01
     7   6    -0.09  -0.13   0.17     0.02  -0.12  -0.11    -0.04   0.01   0.01
     8   6    -0.06  -0.03   0.01    -0.20  -0.09  -0.09     0.00   0.00   0.00
     9   1     0.07  -0.44   0.23    -0.05  -0.11  -0.14    -0.04   0.01   0.01
    10   1    -0.36  -0.07   0.43    -0.07  -0.15  -0.14    -0.02   0.01   0.01
    11   1    -0.02   0.16  -0.23    -0.21   0.23   0.16     0.00  -0.04  -0.03
    12   1    -0.32  -0.10  -0.03    -0.42  -0.17  -0.16     0.03   0.01   0.01
    13   1     0.15  -0.01   0.10    -0.44  -0.17  -0.19     0.04   0.02   0.02
    14   8     0.01   0.00  -0.00     0.01  -0.00  -0.00    -0.01  -0.03  -0.03
    15   1    -0.15  -0.02   0.00    -0.03   0.04   0.01     0.23   0.94   0.19
                     13                     14                     15
                      A                      A                      A
 Frequencies --    562.6594               614.4654               734.0791
 Red. masses --      3.6426                 6.0767                 1.3147
 Frc consts  --      0.6794                 1.3518                 0.4174
 IR Inten    --      8.8104                15.8996                37.9817
  Atom  AN      X      Y      Z        X      Y      Z        X      Y      Z
     1   6    -0.20   0.01  -0.05     0.23  -0.00   0.03     0.03   0.04  -0.14
     2   1    -0.16   0.08  -0.28     0.31   0.23  -0.34    -0.17  -0.29   0.93
     3   6    -0.22  -0.09   0.17     0.12  -0.20   0.38    -0.01  -0.02   0.07
     4   6    -0.02   0.04  -0.01     0.03   0.04  -0.12     0.00   0.00  -0.00
     5   8     0.02   0.02  -0.04    -0.32   0.02  -0.01    -0.01  -0.00   0.00
     6   8     0.14   0.04   0.06     0.01   0.07  -0.20    -0.00   0.00  -0.00
     7   6     0.24  -0.07  -0.07    -0.01   0.02  -0.01     0.01  -0.00  -0.00
     8   6    -0.00  -0.01  -0.02     0.01   0.01   0.01     0.00   0.00   0.00
     9   1     0.13   0.05  -0.12     0.17  -0.17   0.06     0.01  -0.01  -0.00
    10   1     0.28  -0.11  -0.17    -0.18   0.06   0.15     0.00  -0.00   0.00
    11   1    -0.00   0.33   0.26     0.01  -0.03  -0.03     0.00   0.01   0.01
    12   1    -0.21  -0.09  -0.10     0.02   0.04   0.08    -0.00   0.00   0.00
    13   1    -0.26  -0.10  -0.14     0.05  -0.05   0.03    -0.00  -0.00  -0.00
    14   8    -0.00  -0.01  -0.01    -0.01  -0.02  -0.01    -0.00  -0.00  -0.00
    15   1     0.09   0.40   0.08     0.08   0.42   0.09     0.01   0.02   0.00
                     16                     17                     18
                      A                      A                      A
 Frequencies --    751.1609               779.4606               803.0542
 Red. masses --      1.3350                 7.4243                 1.2224
 Frc consts  --      0.4438                 2.6576                 0.4645
 IR Inten    --     23.5068                46.6718                 5.3113
  Atom  AN      X      Y      Z        X      Y      Z        X      Y      Z
     1   6     0.00  -0.14  -0.05     0.01  -0.03  -0.01     0.03   0.00   0.00
     2   1    -0.04   0.94   0.28    -0.01   0.45   0.17     0.04  -0.02  -0.01
     3   6    -0.00   0.07   0.02     0.01  -0.20  -0.08     0.02  -0.00   0.03
     4   6    -0.00  -0.03  -0.01     0.01   0.61   0.27    -0.02  -0.03  -0.05
     5   8     0.00   0.01   0.00    -0.01  -0.16  -0.11    -0.01   0.03  -0.04
     6   8     0.00   0.01   0.01    -0.00  -0.16  -0.06     0.01   0.00   0.04
     7   6     0.00  -0.00  -0.00    -0.03  -0.01   0.03    -0.03  -0.04   0.07
     8   6     0.00  -0.00  -0.00    -0.01   0.01   0.02    -0.01  -0.03   0.02
     9   1    -0.00  -0.00  -0.00    -0.04   0.25   0.03    -0.08   0.52   0.06
    10   1     0.00  -0.00  -0.00     0.13  -0.08  -0.17     0.11  -0.23  -0.44
    11   1     0.00   0.01   0.01    -0.00  -0.07  -0.11     0.01   0.07  -0.17
    12   1    -0.01  -0.00  -0.00     0.06  -0.03  -0.11    -0.06  -0.22  -0.39
    13   1    -0.01  -0.00  -0.00     0.12   0.20   0.08     0.12   0.42   0.10
    14   8     0.00   0.00   0.00     0.00  -0.01  -0.00    -0.00  -0.00  -0.00
    15   1    -0.02  -0.01   0.00     0.02   0.03   0.01     0.00  -0.00  -0.00
                     19                     20                     21
                      A                      A                      A
 Frequencies --    896.5125               927.1846              1077.7516
 Red. masses --      3.2042                 2.7658                 4.1086
 Frc consts  --      1.5173                 1.4009                 2.8118
 IR Inten    --     14.3216                 4.8165                22.3321
  Atom  AN      X      Y      Z        X      Y      Z        X      Y      Z
     1   6     0.04   0.00   0.00    -0.12   0.00  -0.02     0.07  -0.00   0.02
     2   1     0.05   0.01  -0.02    -0.13   0.00  -0.02     0.08  -0.01   0.03
     3   6     0.01  -0.03   0.06    -0.07   0.01  -0.00     0.04   0.00  -0.03
     4   6    -0.04   0.03  -0.10     0.14  -0.02   0.04    -0.15  -0.00   0.04
     5   8    -0.01   0.07  -0.15    -0.00  -0.06   0.12     0.02   0.01  -0.02
     6   8     0.13  -0.08   0.22     0.14   0.07  -0.11    -0.22   0.03  -0.03
     7   6    -0.08   0.09   0.04    -0.03   0.09   0.04     0.32   0.12   0.16
     8   6    -0.12  -0.04  -0.11    -0.15  -0.09  -0.05    -0.07  -0.15  -0.12
     9   1    -0.23  -0.01  -0.03     0.34   0.18   0.20     0.34   0.25   0.18
    10   1     0.25   0.23   0.21    -0.04   0.09   0.06     0.41   0.19   0.24
    11   1    -0.15  -0.55  -0.23    -0.14  -0.50  -0.49    -0.07  -0.25  -0.18
    12   1     0.20   0.19   0.25     0.15  -0.06  -0.14    -0.04  -0.18  -0.18
    13   1     0.04  -0.32  -0.05     0.23   0.14   0.12    -0.07  -0.26  -0.13
    14   8    -0.00  -0.00   0.00    -0.00   0.00   0.00     0.00  -0.00  -0.00
    15   1     0.01  -0.01  -0.00     0.01   0.01   0.00    -0.02   0.01   0.00
                     22                     23                     24
                      A                      A                      A
 Frequencies --   1129.0765              1203.7388              1283.7774
 Red. masses --      2.0937                 1.7766                 4.3657
 Frc consts  --      1.5725                 1.5167                 4.2392
 IR Inten    --     21.7032                 5.5670               587.9179
  Atom  AN      X      Y      Z        X      Y      Z        X      Y      Z
     1   6    -0.01   0.00  -0.00    -0.02   0.00  -0.00    -0.09   0.00  -0.02
     2   1    -0.02   0.00  -0.01    -0.02  -0.00  -0.01    -0.10   0.01  -0.05
     3   6    -0.01   0.00   0.01    -0.01   0.00  -0.00    -0.02   0.00   0.01
     4   6     0.03   0.01  -0.00     0.06   0.00  -0.01     0.42   0.06  -0.16
     5   8    -0.00  -0.01   0.00    -0.00  -0.01   0.03    -0.05  -0.00   0.00
     6   8     0.06  -0.04  -0.02    -0.01   0.04  -0.07    -0.20  -0.05   0.09
     7   6    -0.11   0.18   0.09    -0.04  -0.09   0.16     0.11   0.04   0.03
     8   6     0.11  -0.14  -0.06     0.03   0.07  -0.12    -0.02  -0.03   0.06
     9   1    -0.08   0.08   0.10    -0.32   0.37   0.06    -0.66  -0.21  -0.29
    10   1    -0.21   0.17   0.07     0.29  -0.22  -0.26    -0.01   0.08   0.17
    11   1     0.10   0.40   0.28    -0.03  -0.13   0.26    -0.00  -0.01  -0.14
    12   1    -0.41  -0.32  -0.21    -0.00   0.26   0.34     0.01  -0.15  -0.22
    13   1    -0.37  -0.15  -0.28    -0.08  -0.42  -0.18     0.01   0.07   0.07
    14   8    -0.00   0.00   0.00    -0.00   0.00   0.00    -0.00   0.00   0.00
    15   1     0.01  -0.00  -0.00     0.01   0.00  -0.00     0.04   0.02   0.00
                     25                     26                     27
                      A                      A                      A
 Frequencies --   1347.3002              1402.0142              1432.3702
 Red. masses --      1.2040                 1.2710                 1.3748
 Frc consts  --      1.2877                 1.4720                 1.6619
 IR Inten    --     74.8905                24.1110                10.1014
  Atom  AN      X      Y      Z        X      Y      Z        X      Y      Z
     1   6     0.01  -0.00   0.00    -0.01   0.00  -0.00    -0.01   0.00  -0.00
     2   1     0.01  -0.00   0.01    -0.01   0.00  -0.01    -0.01   0.00  -0.00
     3   6     0.00   0.00  -0.00    -0.00  -0.00   0.00    -0.00  -0.00   0.00
     4   6    -0.05  -0.01   0.02     0.05   0.00  -0.01     0.05   0.01  -0.01
     5   8     0.01  -0.01   0.02    -0.01   0.01  -0.01    -0.01   0.00  -0.01
     6   8     0.04   0.04  -0.06    -0.04   0.00   0.03    -0.04   0.01   0.03
     7   6    -0.03  -0.01   0.00    -0.04  -0.03  -0.03    -0.08  -0.07  -0.06
     8   6    -0.00  -0.04   0.04    -0.02  -0.10  -0.07     0.08   0.06   0.05
     9   1    -0.54  -0.18  -0.22     0.32   0.21   0.14     0.45   0.25   0.18
    10   1     0.67   0.23   0.24     0.26   0.14   0.21     0.43   0.18   0.27
    11   1     0.01   0.07  -0.03    -0.00   0.43   0.29     0.06  -0.30  -0.15
    12   1    -0.02  -0.10  -0.08     0.19   0.17   0.38    -0.32  -0.13  -0.16
    13   1     0.02   0.17   0.07     0.23   0.38   0.07    -0.29  -0.14  -0.12
    14   8     0.00  -0.00  -0.00    -0.00   0.00   0.00    -0.00   0.00   0.00
    15   1    -0.01  -0.00  -0.00     0.00   0.00  -0.00     0.01  -0.00  -0.00
                     28                     29                     30
                      A                      A                      A
 Frequencies --   1491.3634              1502.4644              1514.3720
 Red. masses --      1.0410                 1.0584                 1.0874
 Frc consts  --      1.3642                 1.4078                 1.4693
 IR Inten    --     10.3878                 1.6744                19.4179
  Atom  AN      X      Y      Z        X      Y      Z        X      Y      Z
     1   6     0.00  -0.00  -0.00     0.00  -0.00   0.00     0.00  -0.00   0.00
     2   1    -0.00   0.00   0.00     0.00  -0.00   0.00     0.01  -0.00   0.00
     3   6    -0.00   0.00   0.00    -0.00   0.00   0.00    -0.00   0.00  -0.00
     4   6    -0.00   0.00  -0.00    -0.01   0.00  -0.00    -0.02   0.00  -0.00
     5   8     0.00  -0.00   0.00     0.00  -0.00   0.01     0.01  -0.00   0.01
     6   8     0.00   0.00  -0.00     0.01  -0.00  -0.01     0.02  -0.00  -0.01
     7   6    -0.02  -0.02   0.01     0.01  -0.04  -0.04     0.05  -0.04  -0.02
     8   6    -0.02  -0.01   0.04    -0.02   0.03  -0.00     0.03  -0.02  -0.00
     9   1     0.00   0.15   0.03    -0.14   0.43  -0.07    -0.27   0.42  -0.13
    10   1    -0.00   0.01   0.07    -0.21   0.14   0.41    -0.36   0.06   0.36
    11   1     0.08   0.46  -0.45    -0.04   0.04   0.32     0.03  -0.14  -0.23
    12   1     0.57   0.07  -0.08     0.10  -0.12  -0.37    -0.20   0.10   0.35
    13   1    -0.33  -0.28  -0.13     0.37  -0.34   0.15    -0.28   0.36  -0.12
    14   8     0.00   0.00  -0.00     0.00  -0.00  -0.00     0.00  -0.00  -0.00
    15   1    -0.00  -0.00  -0.00    -0.00  -0.00  -0.00    -0.00   0.00   0.00
                     31                     32                     33
                      A                      A                      A
 Frequencies --   1850.9171              2246.1940              3075.7165
 Red. masses --     12.0846                 5.8348                 1.0355
 Frc consts  --     24.3926                17.3450                 5.7718
 IR Inten    --    330.7382                63.2329                10.4881
  Atom  AN      X      Y      Z        X      Y      Z        X      Y      Z
     1   6    -0.07   0.00  -0.01    -0.37   0.00  -0.07     0.00   0.00   0.00
     2   1    -0.10  -0.01   0.00    -0.74   0.00  -0.14    -0.00   0.00  -0.00
     3   6     0.05   0.01  -0.00     0.52  -0.02   0.10    -0.00   0.00   0.00
     4   6     0.26  -0.33   0.67    -0.09   0.02  -0.03     0.00   0.00  -0.00
     5   8    -0.17   0.21  -0.44     0.00  -0.00   0.01     0.00   0.00   0.00
     6   8     0.01   0.03  -0.06    -0.00  -0.00   0.00    -0.00  -0.00   0.00
     7   6     0.03  -0.01   0.02     0.00   0.00  -0.00    -0.00   0.00   0.00
     8   6    -0.01   0.01   0.00    -0.00  -0.00  -0.00    -0.02  -0.04  -0.02
     9   1    -0.17   0.10  -0.06     0.01  -0.00  -0.00     0.00  -0.00  -0.01
    10   1    -0.14  -0.04   0.09     0.00  -0.00  -0.00     0.00  -0.02   0.01
    11   1    -0.00  -0.02  -0.06     0.00   0.00   0.00     0.62  -0.06   0.06
    12   1     0.04   0.01  -0.01     0.00   0.00   0.00    -0.13   0.52  -0.25
    13   1    -0.04  -0.05  -0.01     0.00   0.00   0.00    -0.21  -0.03   0.46
    14   8     0.00   0.00  -0.00     0.00   0.00   0.00     0.00   0.00  -0.00
    15   1    -0.02   0.02   0.01    -0.00  -0.00   0.00    -0.00  -0.00  -0.00
                     34                     35                     36
                      A                      A                      A
 Frequencies --   3106.2310              3149.9102              3155.4548
 Red. masses --      1.0605                 1.1019                 1.1048
 Frc consts  --      6.0288                 6.4416                 6.4815
 IR Inten    --     19.6416                14.4721                 3.8520
  Atom  AN      X      Y      Z        X      Y      Z        X      Y      Z
     1   6    -0.00   0.00  -0.00    -0.00   0.00  -0.00    -0.00   0.00   0.00
     2   1     0.00   0.00   0.00     0.00  -0.00   0.00    -0.00   0.00   0.00
     3   6     0.00  -0.00  -0.00     0.00   0.00   0.00     0.00  -0.00  -0.00
     4   6    -0.00  -0.00   0.00    -0.00  -0.00   0.00     0.00  -0.00   0.00
     5   8    -0.00   0.00  -0.00     0.00   0.00  -0.00    -0.00   0.00  -0.00
     6   8     0.00   0.00  -0.00    -0.00   0.00  -0.00    -0.00  -0.00  -0.00
     7   6     0.03  -0.06  -0.02     0.01   0.01  -0.03    -0.01  -0.03   0.05
     8   6    -0.01   0.01  -0.00     0.06  -0.05   0.03     0.06   0.00  -0.04
     9   1    -0.22  -0.03   0.52    -0.14  -0.01   0.34     0.17   0.02  -0.41
    10   1    -0.13   0.72  -0.34     0.02  -0.09   0.04    -0.07   0.36  -0.16
    11   1     0.12  -0.01   0.01    -0.59   0.04  -0.05    -0.47   0.04  -0.05
    12   1     0.01  -0.06   0.03    -0.14   0.62  -0.29     0.02  -0.02   0.00
    13   1     0.01   0.00  -0.03     0.05  -0.01  -0.08    -0.26  -0.03   0.58
    14   8     0.00  -0.00  -0.00     0.00  -0.00  -0.00     0.00   0.00  -0.00
    15   1    -0.00   0.00   0.00    -0.00  -0.00   0.00    -0.00  -0.00   0.00
                     37                     38                     39
                      A                      A                      A
 Frequencies --   3174.7829              3488.2976              3792.1661
 Red. masses --      1.1068                 1.1674                 1.0672
 Frc consts  --      6.5730                 8.3692                 9.0421
 IR Inten    --     14.4054                67.1584                31.8655
  Atom  AN      X      Y      Z        X      Y      Z        X      Y      Z
     1   6    -0.00   0.00  -0.00    -0.11   0.00  -0.02     0.00  -0.00   0.00
     2   1     0.00   0.00   0.00     0.98  -0.02   0.18     0.00  -0.00   0.00
     3   6     0.00  -0.00   0.00     0.03  -0.00   0.01    -0.00  -0.00  -0.00
     4   6    -0.00   0.00  -0.00    -0.00   0.00  -0.00    -0.00   0.00  -0.00
     5   8     0.00  -0.00   0.00     0.00   0.00  -0.00     0.00  -0.00   0.00
     6   8    -0.00  -0.00   0.00     0.00  -0.00   0.00     0.00  -0.00  -0.00
     7   6     0.01   0.03  -0.06    -0.00   0.00   0.00    -0.00   0.00   0.00
     8   6     0.02   0.03  -0.05     0.00  -0.00   0.00     0.00  -0.00   0.00
     9   1    -0.22  -0.02   0.54     0.00   0.00  -0.00     0.00  -0.00  -0.00
    10   1     0.07  -0.36   0.16     0.00   0.00   0.00     0.00  -0.00   0.00
    11   1    -0.10   0.01  -0.02     0.00   0.00   0.00     0.00  -0.00   0.00
    12   1     0.08  -0.34   0.15    -0.00   0.00  -0.00    -0.00   0.00   0.00
    13   1    -0.24  -0.02   0.52    -0.00  -0.00  -0.00    -0.00   0.00  -0.00
    14   8    -0.00  -0.00  -0.00     0.00   0.00   0.00    -0.01   0.02  -0.06
    15   1     0.00  -0.00   0.00    -0.00  -0.00  -0.00     0.09  -0.24   0.96

 -------------------
 - Thermochemistry -
 -------------------
 Temperature   298.150 Kelvin.  Pressure   1.00000 Atm.
 Atom     1 has atomic number  6 and mass  12.00000
 Atom     2 has atomic number  1 and mass   1.00783
 Atom     3 has atomic number  6 and mass  12.00000
 Atom     4 has atomic number  6 and mass  12.00000
 Atom     5 has atomic number  8 and mass  15.99491
 Atom     6 has atomic number  8 and mass  15.99491
 Atom     7 has atomic number  6 and mass  12.00000
 Atom     8 has atomic number  6 and mass  12.00000
 Atom     9 has atomic number  1 and mass   1.00783
 Atom    10 has atomic number  1 and mass   1.00783
 Atom    11 has atomic number  1 and mass   1.00783
 Atom    12 has atomic number  1 and mass   1.00783
 Atom    13 has atomic number  1 and mass   1.00783
 Atom    14 has atomic number  8 and mass  15.99491
 Atom    15 has atomic number  1 and mass   1.00783
 Molecular mass:   115.03952 amu.
 Principal axes and moments of inertia in atomic units:
                           1         2         3
     Eigenvalues --   530.592881385.048181567.77669
           X            0.99990   0.01211   0.00748
           Y           -0.01220   0.99985   0.01261
           Z           -0.00732  -0.01270   0.99989
 This molecule is an asymmetric top.
 Rotational symmetry number  1.
 Warning -- assumption of classical behavior for rotation
           may cause significant error
 Rotational temperatures (Kelvin)      0.16324     0.06253     0.05525
 Rotational constants (GHZ):           3.40137     1.30302     1.15115
    1 imaginary frequencies ignored.
 Zero-point vibrational energy     293894.8 (Joules/Mol)
                                   70.24254 (Kcal/Mol)
 Warning -- explicit consideration of  13 degrees of freedom as
           vibrations may cause significant error
 Vibrational temperatures:     60.98   153.57   180.84   226.82   279.94
          (Kelvin)            302.69   335.86   408.72   493.55   609.85
                              749.71   809.54   884.08  1056.18  1080.75
                             1121.47  1155.42  1289.88  1334.01  1550.64
                             1624.49  1731.91  1847.07  1938.46  2017.19
                             2060.86  2145.74  2161.71  2178.84  2663.06
                             3231.77  4425.27  4469.17  4532.02  4540.00
                             4567.80  5018.88  5456.08
 
 Zero-point correction=                           0.111939 (Hartree/Particle)
 Thermal correction to Energy=                    0.121500
 Thermal correction to Enthalpy=                  0.122444
 Thermal correction to Gibbs Free Energy=         0.076439
 Sum of electronic and zero-point Energies=           -420.095466
 Sum of electronic and thermal Energies=              -420.085905
 Sum of electronic and thermal Enthalpies=            -420.084961
 Sum of electronic and thermal Free Energies=         -420.130966
 
                     E (Thermal)             CV                S
                      KCal/Mol        Cal/Mol-Kelvin    Cal/Mol-Kelvin
 Total                   76.242             32.486             96.825
 Electronic               0.000              0.000              1.377
 Translational            0.889              2.981             40.136
 Rotational               0.889              2.981             28.534
 Vibrational             74.465             26.524             26.778
 Vibration     1          0.595              1.980              5.145
 Vibration     2          0.606              1.944              3.327
 Vibration     3          0.611              1.927              3.011
 Vibration     4          0.621              1.894              2.578
 Vibration     5          0.635              1.847              2.184
 Vibration     6          0.643              1.825              2.040
 Vibration     7          0.654              1.790              1.852
 Vibration     8          0.682              1.703              1.509
 Vibration     9          0.722              1.589              1.198
 Vibration    10          0.786              1.418              0.879
 Vibration    11          0.876              1.203              0.607
 Vibration    12          0.918              1.112              0.519
 Vibration    13          0.974              1.001              0.425
                       Q            Log10(Q)             Ln(Q)
 Total Bot       0.692493D-35        -35.159585        -80.957936
 Total V=0       0.213086D+17         16.328555         37.597888
 Vib (Bot)       0.185806D-48        -48.730940       -112.207136
 Vib (Bot)    1  0.488104D+01          0.688512          1.585358
 Vib (Bot)    2  0.192020D+01          0.283346          0.652429
 Vib (Bot)    3  0.162371D+01          0.210508          0.484712
 Vib (Bot)    4  0.128329D+01          0.108324          0.249426
 Vib (Bot)    5  0.102690D+01          0.011526          0.026540
 Vib (Bot)    6  0.943925D+00         -0.025062         -0.057709
 Vib (Bot)    7  0.842466D+00         -0.074448         -0.171422
 Vib (Bot)    8  0.675332D+00         -0.170482         -0.392550
 Vib (Bot)    9  0.540266D+00         -0.267392         -0.615694
 Vib (Bot)   10  0.413027D+00         -0.384022         -0.884243
 Vib (Bot)   11  0.309463D+00         -0.509391         -1.172915
 Vib (Bot)   12  0.275512D+00         -0.559860         -1.289125
 Vib (Bot)   13  0.239385D+00         -0.620903         -1.429682
 Vib (V=0)       0.571742D+03          2.757200          6.348688
 Vib (V=0)    1  0.540658D+01          0.732923          1.687617
 Vib (V=0)    2  0.248423D+01          0.395192          0.909963
 Vib (V=0)    3  0.219895D+01          0.342215          0.787979
 Vib (V=0)    4  0.187725D+01          0.273523          0.629810
 Vib (V=0)    5  0.164215D+01          0.215414          0.496008
 Vib (V=0)    6  0.156817D+01          0.195394          0.449912
 Vib (V=0)    7  0.147967D+01          0.170164          0.391818
 Vib (V=0)    8  0.134028D+01          0.127196          0.292880
 Vib (V=0)    9  0.123613D+01          0.092064          0.211985
 Vib (V=0)   10  0.114853D+01          0.060142          0.138483
 Vib (V=0)   11  0.108802D+01          0.036637          0.084360
 Vib (V=0)   12  0.107088D+01          0.029742          0.068483
 Vib (V=0)   13  0.105435D+01          0.022985          0.052926
 Electronic      0.200000D+01          0.301030          0.693147
 Translational   0.484981D+08          7.685724         17.697035
 Rotational      0.384238D+06          5.584601         12.859019
 ***** Axes restored to original set *****
 -------------------------------------------------------------------
 Center     Atomic                   Forces (Hartrees/Bohr)
 Number     Number              X              Y              Z
 -------------------------------------------------------------------
      1        6           0.000515751   -0.000357109    0.000453347
      2        1          -0.000036637    0.000337051   -0.000085701
      3        6           0.000443079   -0.007209946    0.002353478
      4        6           0.000111358   -0.002467801    0.000577797
      5        8          -0.000988746    0.000360511   -0.000606396
      6        8           0.000565261   -0.000376240   -0.000112843
      7        6           0.000262122    0.000461968   -0.000104128
      8        6           0.000052660    0.000304929   -0.000122236
      9        1           0.000030542    0.000052825    0.000003985
     10        1          -0.000002440    0.000041671    0.000010643
     11        1           0.000002684    0.000007846    0.000016554
     12        1          -0.000006374    0.000033001   -0.000027618
     13        1          -0.000024027    0.000024046   -0.000016360
     14        8          -0.000626958    0.008838314   -0.002108784
     15        1          -0.000298274   -0.000051066   -0.000231737
 -------------------------------------------------------------------
 Cartesian Forces:  Max     0.008838314 RMS     0.001827805

 GradGradGradGradGradGradGradGradGradGradGradGradGradGradGradGradGradGrad
 Berny optimization.
 Search for a local minimum.
 Step number   1 out of a maximum of    2
 All quantities printed in internal units (Hartrees-Bohrs-Radians)
 Second derivative matrix not updated -- analytic derivatives used.
 ITU=  0
     Eigenvalues ---   -0.00016   0.00029   0.00157   0.00185   0.00305
     Eigenvalues ---    0.00512   0.00584   0.00932   0.01499   0.02218
     Eigenvalues ---    0.03009   0.03324   0.03566   0.05165   0.06380
     Eigenvalues ---    0.07615   0.08200   0.09072   0.09197   0.10230
     Eigenvalues ---    0.11446   0.14160   0.17069   0.17452   0.19870
     Eigenvalues ---    0.28830   0.29762   0.43801   0.49470   0.62741
     Eigenvalues ---    0.71049   0.76507   0.79377   0.86407   0.88506
     Eigenvalues ---    0.90573   0.95881   1.74736   2.68624
 Eigenvalue     1 is  -1.65D-04 should be greater than     0.000000 Eigenvector:
                          Z15       Z14       Z12       Y9        Y13
   1                    0.45664   0.34551  -0.32794   0.28857  -0.25934
                          Z2        X15       Z10       Z1        Y5
   1                   -0.24648  -0.24590   0.24091  -0.19030  -0.16924
 Quadratic step=2.969D+00 exceeds max=3.000D-01 adjusted using Lamda=-1.086D-02.
 Angle between NR and scaled steps=  68.91 degrees.
 Angle between quadratic step and forces=  16.71 degrees.
 Linear search not attempted -- first point.
 B after Tr=    -0.000165   -0.002671   -0.001530
         Rot=    1.000000   -0.000247   -0.000176    0.000001 Ang=  -0.03 deg.
 Variable       Old X    -DE/DX   Delta X   Delta X   Delta X     New X
                                 (Linear)    (Quad)   (Total)
    X1        5.20393   0.00052   0.00000   0.00148   0.00160   5.20553
    Y1       -0.76846  -0.00036   0.00000  -0.03225  -0.03532  -0.80378
    Z1        0.79365   0.00045   0.00000   0.01621   0.01245   0.80610
    X2        7.18269  -0.00004   0.00000   0.00207   0.00232   7.18501
    Y2       -0.72106   0.00034   0.00000   0.03215   0.02890  -0.69216
    Z2        1.15890  -0.00009   0.00000   0.00325  -0.00115   1.15775
    X3        2.97748   0.00044   0.00000   0.00332   0.00329   2.98078
    Y3       -0.79979  -0.00721   0.00000  -0.15644  -0.15930  -0.95910
    Z3        0.35082   0.00235   0.00000   0.03922   0.03617   0.38699
    X4        0.30587   0.00011   0.00000   0.00139   0.00114   0.30701
    Y4       -1.14532  -0.00247   0.00000  -0.06991  -0.07246  -1.21778
    Z4       -0.25133   0.00058   0.00000   0.00911   0.00687  -0.24446
    X5       -0.40740  -0.00099   0.00000  -0.02273  -0.02365  -0.43105
    Y5       -2.15558   0.00036   0.00000  -0.02064  -0.02225  -2.17783
    Z5       -2.14615  -0.00061   0.00000  -0.00886  -0.01131  -2.15746
    X6       -1.16850   0.00057   0.00000   0.01252   0.01292  -1.15558
    Y6       -0.28402  -0.00038   0.00000  -0.02905  -0.03251  -0.31653
    Z6        1.60042  -0.00011   0.00000   0.00108  -0.00020   1.60022
    X7       -3.85193   0.00026   0.00000   0.00795   0.00821  -3.84372
    Y7       -0.56299   0.00046   0.00000   0.00786   0.00460  -0.55839
    Z7        1.20450  -0.00010   0.00000  -0.00002  -0.00047   1.20403
    X8       -4.84747   0.00005   0.00000   0.01570   0.01535  -4.83212
    Y8        1.48729   0.00030   0.00000   0.01127   0.00886   1.49615
    Z8       -0.52888  -0.00012   0.00000  -0.00113  -0.00022  -0.52910
    X9       -4.65377   0.00003   0.00000   0.00968   0.01061  -4.64316
    Y9       -0.42618   0.00005   0.00000   0.01502   0.01083  -0.41535
    Z9        3.09406   0.00000   0.00000   0.00038   0.00028   3.09434
   X10       -4.21193  -0.00000   0.00000  -0.01100  -0.01102  -4.22295
   Y10       -2.44243   0.00004   0.00000   0.01045   0.00757  -2.43486
   Z10        0.43917   0.00001   0.00000   0.00186   0.00062   0.43980
   X11       -6.89362   0.00000   0.00000   0.01477   0.01435  -6.87927
   Y11        1.30155   0.00001   0.00000   0.01096   0.00865   1.31020
   Z11       -0.71728   0.00002   0.00000   0.00233   0.00387  -0.71341
   X12       -4.42578  -0.00001   0.00000   0.01513   0.01505  -4.41072
   Y12        3.35113   0.00003   0.00000   0.01180   0.00902   3.36014
   Z12        0.24466  -0.00003   0.00000  -0.00304  -0.00136   0.24330
   X13       -4.00020  -0.00002   0.00000   0.01146   0.01045  -3.98975
   Y13        1.32940   0.00002   0.00000   0.00761   0.00613   1.33553
   Z13       -2.39978  -0.00002   0.00000  -0.00230  -0.00176  -2.40154
   X14        2.63063  -0.00063   0.00000  -0.01423  -0.01469   2.61594
   Y14        3.38541   0.00884   0.00000   0.21682   0.21457   3.59998
   Z14       -0.80570  -0.00211   0.00000  -0.05095  -0.05162  -0.85733
   X15        2.78905  -0.00030   0.00000  -0.04611  -0.04593   2.74311
   Y15        3.90206  -0.00005   0.00000   0.02587   0.02272   3.92479
   Z15        0.94939  -0.00023   0.00000   0.00840   0.00784   0.95723
         Item               Value     Threshold  Converged?
 Maximum Force            0.008838     0.000450     NO 
 RMS     Force            0.001828     0.000300     NO 
 Maximum Displacement     0.214570     0.001800     NO 
 RMS     Displacement     0.044678     0.001200     NO 
 Predicted change in Energy=-2.250522D-03
 GradGradGradGradGradGradGradGradGradGradGradGradGradGradGradGradGradGrad


 ----------------------------------------------------------------------

 Electric dipole moment (input orientation):
 (Debye = 10**-18 statcoulomb cm , SI units = C m)
                  (au)            (Debye)         (10**-30 SI)
   Tot        0.124558D+01      0.316594D+01      0.105604D+02
   x         -0.725575D-01     -0.184423D+00     -0.615168D+00
   y          0.355231D+00      0.902908D+00      0.301178D+01
   z          0.119164D+01      0.302885D+01      0.101032D+02

 Dipole polarizability, Alpha (input orientation).
 (esu units = cm**3 , SI units = C**2 m**2 J**-1)
 Alpha(0;0):
               (au)            (10**-24 esu)      (10**-40 SI)
   iso        0.710083D+02      0.105223D+02      0.117077D+02
   aniso      0.326492D+02      0.483812D+01      0.538313D+01
   xx         0.913724D+02      0.135400D+02      0.150653D+02
   yx        -0.359905D+01     -0.533324D+00     -0.593403D+00
   yy         0.633982D+02      0.939464D+01      0.104530D+02
   zx         0.489223D+01      0.724954D+00      0.806620D+00
   zy         0.893498D+00      0.132403D+00      0.147318D+00
   zz         0.582542D+02      0.863239D+01      0.960483D+01

 ----------------------------------------------------------------------

 Dipole orientation:
     6          5.23461067         -0.91867801          0.23698844
     1          7.23162017         -0.96060917          0.48466744
     6          2.98596472         -0.84131927         -0.06590986
     6          0.28097019         -1.02343233         -0.58490295
     8         -0.55001134         -1.45736800         -2.64424292
     8         -1.07565616         -0.73856713          1.51818514
     6         -3.77986408         -0.91581214          1.21616718
     6         -4.85724663          1.53513883          0.20056420
     1         -4.46908428         -1.33038465          3.10962879
     1         -4.19978321         -2.50190973         -0.03105585
     1         -6.91239995          1.39348185          0.08654412
     1         -4.37539703          3.10447487          1.44759431
     1         -4.12176828          1.92457971         -1.68370408
     8          2.60788237          3.49680691          0.04144462
     1          2.87264386          3.49278390          1.85865383

 Electric dipole moment (dipole orientation):
 (Debye = 10**-18 statcoulomb cm , SI units = C m)
                  (au)            (Debye)         (10**-30 SI)
   Tot        0.124558D+01      0.316594D+01      0.105604D+02
   x          0.000000D+00      0.000000D+00      0.000000D+00
   y          0.000000D+00      0.000000D+00      0.000000D+00
   z          0.124558D+01      0.316594D+01      0.105604D+02

 Dipole polarizability, Alpha (dipole orientation).
 (esu units = cm**3 , SI units = C**2 m**2 J**-1)
 Alpha(0;0):
               (au)            (10**-24 esu)      (10**-40 SI)
   iso        0.710083D+02      0.105223D+02      0.117077D+02
   aniso      0.326492D+02      0.483812D+01      0.538313D+01
   xx         0.917669D+02      0.135984D+02      0.151303D+02
   yx        -0.446384D+01     -0.661473D+00     -0.735988D+00
   yy         0.624111D+02      0.924837D+01      0.102902D+02
   zx         0.174151D+01      0.258065D+00      0.287136D+00
   zy         0.244950D+01      0.362979D+00      0.403869D+00
   zz         0.588469D+02      0.872021D+01      0.970254D+01

 ----------------------------------------------------------------------
 1\1\GINC-AJ\Freq\UM062X\6-311++G(d,p)\C5H7O3(2)\AAYUSH\16-Aug-2025\0\\
 # freq 6-311++g(d,p) m062x\\Title Card Required\\0,2\C,2.7538,-0.40665
 1,0.419984\H,3.800916,-0.381566,0.613262\C,1.575616,-0.423232,0.185647
 \C,0.161857,-0.606075,-0.132999\O,-0.215586,-1.140684,-1.135693\O,-0.6
 18343,-0.150298,0.846906\C,-2.038353,-0.297923,0.637396\C,-2.565172,0.
 787038,-0.27987\H,-2.46267,-0.225525,1.637306\H,-2.228859,-1.292476,0.
 2324\H,-3.647948,0.688751,-0.379567\H,-2.34202,1.773339,0.129467\H,-2.
 116815,0.703489,-1.269907\O,1.392072,1.791484,-0.42636\H,1.4759,2.0648
 83,0.502394\\Version=ES64L-G16RevA.03\State=2-A\HF=-420.2074048\S2=0.7
 56773\S2-1=0.\S2A=0.750031\RMSD=1.792e-09\RMSF=1.828e-03\ZeroPoint=0.1
 119386\Thermal=0.1214998\Dipole=-0.0725575,0.3552313,1.1916419\DipoleD
 eriv=-0.2651368,-0.1762713,-0.0052579,-0.027928,-0.1894551,-0.0067282,
 -0.0588977,-0.0274969,-0.1487404,0.2756114,-0.0148729,0.0090843,0.0007
 626,0.2021382,0.0056974,0.0194584,0.0047286,0.2214507,-0.5727052,0.171
 7211,-0.093326,0.0259697,-0.2940217,0.0167292,-0.0411376,0.0762918,-0.
 1287243,2.1618209,0.1193149,-0.0644359,-0.1823213,0.7744932,0.5476074,
 -0.4302973,0.622768,1.4567177,-0.8278864,-0.1608958,-0.2153623,-0.0015
 289,-0.5604236,-0.3281516,-0.0154687,-0.3775538,-0.9197203,-1.6267927,
 0.1998785,0.3235813,0.2228399,-0.4328406,-0.1955572,0.4787481,-0.21772
 54,-0.7949701,0.994256,-0.1049805,-0.0547026,-0.0166425,0.2983881,-0.0
 757618,0.059173,-0.0343929,0.3157164,-0.0648499,0.0337052,0.0285288,0.
 0461955,-0.0140271,0.084273,-0.0290934,0.0546728,-0.0436556,-0.024731,
 0.0129555,0.026349,0.0233593,0.0679069,-0.0017528,0.065612,0.0241736,-
 0.0895195,-0.0185151,0.0403152,0.0117178,-0.0340225,-0.0700563,0.00144
 63,-0.0569627,-0.0380802,0.0549034,-0.1304441,-0.0000721,-0.0193104,-0
 .014331,0.0648494,0.0056588,-0.0192377,0.0189963,0.0916599,0.0788249,-
 0.05114,-0.0320499,-0.0051476,-0.0789811,-0.0264351,-0.0319394,-0.0603
 233,0.0252099,0.0786229,-0.0013622,0.069149,0.0117952,0.0497101,-0.014
 0212,0.0457196,0.0172245,-0.0287631,-0.3633872,-0.0889688,0.0182454,-0
 .0607898,-0.1772979,0.0175353,0.0411078,-0.0872546,-0.14919,0.305312,0
 .020673,-0.0022108,0.0117895,0.3596174,-0.0305393,-0.0267844,0.0239715
 ,0.1376254\Polar=91.372433,-3.5990486,63.3982006,4.8922344,0.8934975,5
 8.2542417\Quadrupole=7.979179,-2.7454568,-5.2337222,-0.3836707,2.23343
 49,0.3311828\PG=C01 [X(C5H7O3)]\NImag=1\\1.49113622,0.02995957,0.06115
 388,0.28030559,0.00429459,0.11059768,-0.41045267,-0.00911548,-0.071625
 21,0.40101481,-0.01100632,-0.02784287,-0.00134913,0.00925349,0.0170953
 7,-0.07045688,-0.00091798,-0.03967720,0.07133840,0.00159579,0.02952359
 ,-1.08104655,-0.02093662,-0.20675111,0.00951870,0.00198387,0.00041410,
 1.40505756,-0.03466994,-0.02999552,-0.00812117,-0.00018651,0.00652570,
 -0.00122741,0.06096929,0.07551968,-0.20585933,-0.00552558,-0.07422715,
 0.00109065,-0.00078253,0.00494734,0.25393209,0.03283743,0.15042339,0.0
 1298720,-0.00155287,0.00160551,-0.00098993,-0.00060040,-0.00195137,-0.
 25936322,-0.01501654,-0.03965152,0.67412525,0.00542240,0.00187677,0.00
 113884,0.00015606,0.00524345,-0.00001950,-0.02019662,-0.06528130,0.000
 53948,0.07755203,0.37567664,-0.00174387,-0.00078942,0.00274327,-0.0008
 0607,-0.00012675,0.00533599,-0.02545334,0.00233370,-0.06571800,0.12414
 650,0.31328895,0.80691729,-0.00491181,-0.00020690,-0.00051736,0.000313
 82,0.00071534,0.00156846,-0.02344889,-0.02486781,-0.04391067,-0.185639
 93,-0.10408868,-0.19240957,0.18462772,-0.00076897,0.00070494,0.0003234
 3,-0.00008196,-0.00060380,0.00066444,-0.02004195,0.00848566,-0.0219810
 7,-0.09794156,-0.21627818,-0.25571077,0.11183883,0.20862852,0.00013775
 ,0.00056381,0.00097439,0.00005197,0.00058422,0.00018468,-0.03757107,-0
 .02208507,-0.01939482,-0.18326197,-0.25579235,-0.55892350,0.20577486,0
 .32927077,0.65920020,-0.00678783,-0.00084326,-0.00231726,0.00088504,-0
 .00048286,-0.00097147,-0.05324438,0.01141591,0.03293745,-0.18749316,0.
 04112013,0.08587788,0.02858686,0.01057683,0.02493015,0.49270349,-0.000
 14726,0.00070437,-0.00030667,-0.00006832,-0.00040428,-0.00008981,0.003
 93687,0.00995390,-0.00136846,0.02853303,-0.09804974,-0.06218192,0.0120
 0306,0.00345075,-0.05477339,-0.02919603,0.15227859,0.00023248,-0.00005
 497,0.00014975,-0.00012871,-0.00003507,-0.00053629,0.00994766,-0.00117
 185,0.00558763,0.06479684,-0.06406817,-0.19505591,0.02464951,-0.054558
 94,-0.08032791,-0.08547711,0.13231186,0.35381308,0.00191042,0.00040109
 ,0.00065561,-0.00035419,-0.00004796,-0.00003897,0.00293527,0.00117296,
 -0.00037784,-0.05255950,0.01273129,0.03353791,-0.00132803,-0.00951007,
 -0.01778679,-0.17781954,-0.01640648,-0.01365764,0.44984499,0.00002606,
 -0.00014384,0.00023683,-0.00003761,-0.00015544,0.00012405,0.00150491,0
 .00380434,-0.00349401,0.01346746,0.00593293,0.00889727,-0.00192485,-0.
 00553819,-0.00010650,-0.02645358,-0.07597420,-0.01608376,0.00778167,0.
 58214654,0.00101174,0.00022700,0.00049126,0.00000740,0.00017249,0.0001
 6580,0.00378461,-0.00342040,-0.00227553,0.03333252,0.00666123,0.008742
 81,0.00157486,0.00107753,-0.00408360,-0.03442858,-0.01617358,-0.090502
 12,-0.05949626,0.04974079,0.61459009,-0.00031541,-0.00002442,-0.000119
 95,0.00008531,0.00005947,-0.00004448,-0.00070701,-0.00125200,0.0011760
 0,0.00172612,-0.00123669,-0.00853112,0.00072481,0.00227248,0.00215250,
 -0.03741353,0.02989005,-0.02412858,-0.08177938,0.02199964,-0.01504011,
 0.57497371,-0.00019418,0.00001286,-0.00008486,0.00001421,0.00000090,0.
 00000904,0.00013807,-0.00041628,0.00035693,0.00096839,-0.00126886,-0.0
 0286626,0.00088644,0.00039549,0.00162792,-0.00111594,0.00738481,-0.001
 32395,0.03202311,-0.15987863,0.06173837,0.02606542,0.54008259,-0.00000
 216,0.00005580,-0.00002027,0.00000017,-0.00000409,0.00000011,-0.000350
 70,-0.00024040,0.00006691,0.00128469,-0.00013224,0.00307885,-0.0014245
 4,0.00131378,-0.00111560,-0.00720648,0.00145553,-0.00122561,-0.0220048
 9,0.06049245,-0.13550559,-0.02350661,0.04007356,0.55545524,-0.00056445
 ,-0.00011842,-0.00023968,0.00004400,-0.00003748,-0.00002944,-0.0011801
 1,0.00079809,0.00096095,-0.00381765,-0.00477283,-0.00475796,0.00162100
 ,0.00088794,0.00117062,-0.03352326,0.00549106,0.03466540,-0.08097093,0
 .00577521,0.08785890,0.00689913,-0.00156597,-0.01187672,0.10727194,0.0
 0000900,-0.00003541,0.00000689,-0.00001146,-0.00000996,-0.00000525,-0.
 00018345,0.00029581,-0.00001113,-0.00058462,-0.00141103,-0.00250738,0.
 00201153,0.00084990,0.00039841,-0.00434561,0.00130716,0.00469754,0.008
 86814,-0.05564942,-0.02258987,-0.00948302,0.00189628,0.02474756,-0.009
 42726,0.05375572,-0.00003086,-0.00005484,-0.00003402,-0.00001534,-0.00
 000685,-0.00001769,-0.00013548,0.00033486,0.00016285,-0.00235652,-0.00
 046435,-0.00032195,0.00107431,0.00046644,0.00073908,-0.00444263,-0.000
 05664,0.00826683,0.10093012,-0.02131635,-0.28843204,0.00603496,-0.0016
 8933,-0.01687260,-0.10249793,0.01973667,0.30476240,-0.00010089,-0.0000
 5663,-0.00000358,0.00002971,-0.00004638,0.00000111,-0.00020266,0.00078
 485,-0.00013800,0.00231837,-0.00526984,-0.00781970,0.00054794,0.001740
 07,0.00356026,-0.02768554,-0.03362473,-0.01279451,-0.05465593,-0.03044
 142,-0.01058918,0.00393530,0.01166048,0.00514999,0.00404229,0.01166814
 ,0.00348702,0.07188193,0.00009849,0.00006312,0.00002037,0.00000674,0.0
 0000587,-0.00001913,-0.00020624,-0.00028238,0.00027754,0.00107669,-0.0
 0056682,-0.00345094,0.00252992,0.00079076,0.00051317,-0.00650594,0.001
 28081,-0.00018054,-0.04050631,-0.27679469,-0.09188286,-0.00235022,-0.0
 2068115,-0.00843178,0.00104085,0.00059141,-0.00003092,0.04284614,0.296
 18345,-0.00012366,0.00003248,-0.00002513,0.00001814,0.00001860,0.00000
 791,-0.00030230,-0.00049285,-0.00000061,0.00252356,0.00055259,0.000711
 92,0.00102026,0.00034570,-0.00120877,-0.00560937,-0.00279880,-0.001645
 60,-0.01679637,-0.09517885,-0.09088352,0.00378092,0.02095750,0.0088054
 0,-0.00484104,-0.02612428,-0.00876558,0.02113069,0.10037762,0.09398960
 ,-0.00008607,0.00000672,-0.00002616,0.00003563,0.00000103,0.00000798,-
 0.00016726,-0.00019581,0.00007006,0.00142774,-0.00080030,-0.00122346,-
 0.00006984,0.00055027,0.00032949,-0.00073308,0.00279846,-0.00104635,-0
 .01084343,-0.00334419,0.00118694,-0.31423696,-0.02449954,-0.02443354,0
 .00028330,0.00007260,-0.00037507,0.00022602,0.00043738,0.00009628,0.34
 056164,0.00017576,0.00000018,0.00006224,-0.00001501,-0.00000636,0.0000
 0750,0.00010702,0.00033902,-0.00035381,-0.00082187,0.00056070,0.002115
 53,-0.00010844,-0.00061851,-0.00067200,0.00537113,-0.00392941,0.003257
 36,0.02255315,0.00420422,-0.00127801,-0.02606041,-0.04966422,-0.001332
 76,-0.00055471,0.00086413,-0.00004470,-0.00054897,0.00024995,-0.001022
 93,0.02645036,0.04997388,-0.00008206,-0.00003579,-0.00000958,0.0000114
 8,0.00000632,-0.00000760,-0.00012650,-0.00002485,0.00019123,0.00045533
 ,-0.00071520,-0.00317400,0.00064020,0.00000371,0.00126769,-0.00514543,
 0.00452623,-0.00129302,-0.01841198,-0.00547092,-0.00106505,-0.02292395
 ,-0.00089881,-0.04859417,0.00056766,-0.00081807,0.00006708,0.00034298,
 -0.00007245,0.00070408,0.02743158,0.00035344,0.04893495,-0.00004147,-0
 .00001595,-0.00001883,-0.00002302,0.00000325,0.00000214,0.00012520,-0.
 00007859,0.00001593,-0.00029809,0.00074516,0.00134926,-0.00051664,-0.0
 0012657,-0.00067022,0.00219365,-0.00059155,0.00057720,0.00060589,0.012
 41078,0.00423852,-0.05866367,-0.05226303,-0.02082766,0.00013123,-0.000
 80090,0.00022706,-0.00028630,0.00203479,-0.00158653,-0.00475086,-0.029
 46381,-0.01220444,0.05879292,0.00012147,0.00002398,0.00003150,0.000000
 27,-0.00000431,-0.00000603,-0.00001551,0.00006389,-0.00001858,-0.00013
 125,-0.00058592,-0.00063206,0.00030121,0.00021353,0.00040100,-0.000449
 56,0.00259447,-0.00057618,-0.00591164,-0.02407077,-0.00929456,-0.05031
 673,-0.26741059,-0.09422801,-0.00012935,0.00092857,0.00010073,0.001832
 84,-0.00177339,0.00373959,-0.00015695,-0.00088923,-0.00008215,0.054801
 54,0.29200851,0.00008440,-0.00000319,0.00000804,0.00000111,0.00000048,
 0.00000079,-0.00001547,0.00019616,-0.00002406,-0.00042317,-0.00043868,
 -0.00028829,0.00052433,-0.00028445,0.00042325,0.00176854,-0.00151406,0
 .00065974,0.00509158,0.02266898,0.00849529,-0.02185485,-0.09645858,-0.
 08948519,0.00062393,-0.00056022,0.00102762,-0.00228624,0.00314283,-0.0
 0245789,0.00004696,-0.00154536,-0.00230728,0.02472704,0.10069144,0.093
 23045,0.00007442,0.00002711,0.00003247,-0.00003119,-0.00000495,-0.0000
 0707,0.00008484,0.00000341,-0.00001164,-0.00094665,0.00028519,-0.00120
 967,-0.00066699,0.00080802,0.00058540,0.00132862,-0.00105613,0.0010018
 1,0.00453880,-0.00086404,-0.01327879,-0.09528342,0.00797316,0.10525502
 ,-0.00017400,0.00226256,-0.00194258,0.00001787,-0.00052489,0.00068566,
 -0.01156664,0.00292923,0.02937971,0.00271552,-0.00000816,-0.00820889,0
 .09973945,-0.00014500,-0.00003188,-0.00002215,0.00000795,0.00001349,0.
 00001205,0.00009107,-0.00027312,-0.00010099,0.00088295,0.00138295,0.00
 238747,-0.00041956,-0.00105841,-0.00148318,0.00008413,0.00075633,-0.00
 283638,-0.01307381,0.00172142,0.02535711,0.01034361,-0.05041010,-0.023
 81558,0.00255111,-0.00338454,0.00300200,-0.00059381,0.00092969,-0.0004
 0099,-0.00131283,-0.00109610,0.00321527,0.01338566,-0.00112552,-0.0259
 0364,-0.01189908,0.05260455,0.00006660,-0.00001546,0.00003818,-0.00002
 209,-0.00001622,-0.00001198,0.00001742,0.00027749,-0.00000238,-0.00078
 390,-0.00023137,-0.00182231,0.00119510,-0.00085001,0.00105225,-0.00039
 983,-0.00081506,0.00194531,0.00887603,-0.00059008,-0.01979740,0.102964
 43,-0.02129246,-0.27443285,-0.00166080,0.00303466,-0.00058917,-0.00016
 817,-0.00031357,0.00076484,-0.00208419,0.00041795,0.00523885,0.0042715
 3,-0.00018218,-0.00935413,-0.11235679,0.02058453,0.29701266,-0.0012721
 2,0.00200554,-0.00128258,0.00006874,-0.00033901,0.00010011,0.00260751,
 0.00096975,-0.00053236,-0.00507436,0.00052601,0.00191420,0.00094463,-0
 .00044101,-0.00024839,0.00011387,-0.00337832,0.00020645,0.00091991,0.0
 0015339,-0.00030076,-0.00005093,0.00020273,0.00006017,-0.00003377,-0.0
 0000418,0.00003518,-0.00016963,-0.00006997,-0.00002009,-0.00014155,-0.
 00015628,0.00003799,0.00025079,-0.00013182,-0.00018119,0.00014908,0.00
 013373,0.00012277,0.00731054,0.01126850,-0.00596472,0.00424785,-0.0002
 2701,0.00004311,-0.00016992,-0.00761376,-0.00545385,0.00166099,-0.0032
 3493,-0.00556800,0.00098191,0.00036416,0.00036204,0.00041178,-0.000684
 96,-0.00164378,0.00045790,0.00102874,0.00017800,-0.00029044,-0.0000551
 0,-0.00010535,0.00002254,-0.00004193,0.00001965,0.00002826,-0.00013913
 ,0.00000426,-0.00007875,-0.00005770,0.00008264,-0.00003923,-0.00003956
 ,0.00004047,0.00006570,0.00009588,-0.00009010,-0.00000036,0.01106275,0
 .06241834,-0.00440473,0.00112401,-0.00141114,0.00002159,-0.00003567,0.
 00004350,0.00376547,-0.00223448,-0.00010545,0.00199394,0.00022966,-0.0
 0263899,-0.00028725,-0.00032553,0.00108362,-0.00006084,0.00198321,0.00
 088621,-0.00044771,0.00016420,0.00003296,0.00000928,-0.00015670,-0.000
 13257,-0.00000314,-0.00003511,0.00002441,0.00014763,0.00005180,0.00001
 646,0.00000026,0.00002300,0.00005032,-0.00005750,0.00007525,0.00002662
 ,0.00009481,0.00002133,-0.00000428,0.04317119,0.13116353,0.47532024,-0
 .00052899,0.00047054,0.00030256,-0.00014475,0.00054891,0.00006737,-0.0
 0096899,0.00015293,0.00029822,0.00359780,-0.00217330,-0.00287100,-0.00
 078465,0.00023766,0.00084544,-0.00111122,0.00181628,0.00115554,-0.0004
 4435,-0.00005341,0.00013817,0.00010593,-0.00029333,-0.00011673,-0.0000
 2872,-0.00005149,0.00000776,0.00010152,0.00009256,0.00002384,0.0000613
 5,0.00014284,0.00002742,-0.00023515,0.00019364,0.00010191,0.00002030,-
 0.00003611,-0.00003812,-0.00562271,-0.01172593,-0.04394299,0.00598264,
 -0.00014958,-0.00052585,-0.00047856,0.00030466,0.00009911,0.00004216,0
 .00046304,-0.00328554,-0.00203620,-0.00259650,-0.00166361,-0.00173933,
 0.00096575,0.00021549,0.00114141,0.00150963,0.00029020,0.00016515,-0.0
 0110389,0.00021774,-0.00004481,0.00014792,0.00006224,0.00002366,0.0001
 0370,-0.00001826,-0.00000497,0.00018840,-0.00000089,0.00007336,0.00005
 049,-0.00007087,0.00005250,-0.00000123,-0.00001369,-0.00005741,-0.0000
 2729,0.00006134,-0.00000785,-0.01053332,-0.04432272,-0.13204850,0.0106
 7821,0.04895530,0.00086497,0.00109955,0.00040192,0.00005650,-0.0000215
 9,0.00004105,-0.00115539,0.00303885,0.00036866,-0.00171044,-0.00054888
 ,0.00041282,0.00052749,0.00024498,0.00012904,0.00054500,-0.00019844,-0
 .00072208,-0.00007281,-0.00008409,0.00002663,0.00003155,0.00000762,-0.
 00002206,0.00005925,0.00002957,-0.00001722,-0.00002030,-0.00000115,-0.
 00001311,0.00001922,0.00001257,-0.00000349,-0.00004351,-0.00001975,0.0
 0004504,-0.00001945,-0.00001685,-0.00003758,-0.04308269,-0.13846177,-0
 .47319191,0.04400060,0.13491938,0.47258231\\-0.00051575,0.00035711,-0.
 00045335,0.00003664,-0.00033705,0.00008570,-0.00044308,0.00720995,-0.0
 0235348,-0.00011136,0.00246780,-0.00057780,0.00098875,-0.00036051,0.00
 060640,-0.00056526,0.00037624,0.00011284,-0.00026212,-0.00046197,0.000
 10413,-0.00005266,-0.00030493,0.00012224,-0.00003054,-0.00005282,-0.00
 000398,0.00000244,-0.00004167,-0.00001064,-0.00000268,-0.00000785,-0.0
 0001655,0.00000637,-0.00003300,0.00002762,0.00002403,-0.00002405,0.000
 01636,0.00062696,-0.00883831,0.00210878,0.00029827,0.00005107,0.000231
 74\\\@


 MICRO CREDO - NEVER TRUST A COMPUTER BIGGER
               BIGGER THAN YOU CAN LIFT.
 Job cpu time:       0 days  0 hours 54 minutes 56.6 seconds.
 Elapsed time:       0 days  0 hours  2 minutes 17.4 seconds.
 File lengths (MBytes):  RWF=    153 Int=      0 D2E=      0 Chk=      6 Scr=      1
 Normal termination of Gaussian 16 at Sat Aug 16 21:00:12 2025.
