 Entering Gaussian System, Link 0=g16
 Initial command:
 /opt/g16/l1.exe "/home/aayush/scratches/g16/Gau-61627.inp" -scrdir="/home/aayush/scratches/g16/"
 Entering Link 1 = /opt/g16/l1.exe PID=     61630.
  
 Copyright (c) 1988,1990,1992,1993,1995,1998,2003,2009,2016,
            Gaussian, Inc.  All Rights Reserved.
  
 This is part of the Gaussian(R) 16 program.  It is based on
 the Gaussian(R) 09 system (copyright 2009, Gaussian, Inc.),
 the Gaussian(R) 03 system (copyright 2003, Gaussian, Inc.),
 the Gaussian(R) 98 system (copyright 1998, Gaussian, Inc.),
 the Gaussian(R) 94 system (copyright 1995, Gaussian, Inc.),
 the Gaussian 92(TM) system (copyright 1992, Gaussian, Inc.),
 the Gaussian 90(TM) system (copyright 1990, Gaussian, Inc.),
 the Gaussian 88(TM) system (copyright 1988, Gaussian, Inc.),
 the Gaussian 86(TM) system (copyright 1986, Carnegie Mellon
 University), and the Gaussian 82(TM) system (copyright 1983,
 Carnegie Mellon University). Gaussian is a federally registered
 trademark of Gaussian, Inc.
  
 This software contains proprietary and confidential information,
 including trade secrets, belonging to Gaussian, Inc.
  
 This software is provided under written license and may be
 used, copied, transmitted, or stored only in accord with that
 written license.
  
 The following legend is applicable only to US Government
 contracts under FAR:
  
                    RESTRICTED RIGHTS LEGEND
  
 Use, reproduction and disclosure by the US Government is
 subject to restrictions as set forth in subparagraphs (a)
 and (c) of the Commercial Computer Software - Restricted
 Rights clause in FAR 52.227-19.
  
 Gaussian, Inc.
 340 Quinnipiac St., Bldg. 40, Wallingford CT 06492
  
  
 ---------------------------------------------------------------
 Warning -- This program may not be used in any manner that
 competes with the business of Gaussian, Inc. or will provide
 assistance to any competitor of Gaussian, Inc.  The licensee
 of this program is prohibited from giving any competitor of
 Gaussian, Inc. access to this program.  By using this program,
 the user acknowledges that Gaussian, Inc. is engaged in the
 business of creating and licensing software in the field of
 computational chemistry and represents and warrants to the
 licensee that it is not a competitor of Gaussian, Inc. and that
 it will not use this program in any manner prohibited above.
 ---------------------------------------------------------------
  

 Cite this work as:
 Gaussian 16, Revision A.03,
 M. J. Frisch, G. W. Trucks, H. B. Schlegel, G. E. Scuseria, 
 M. A. Robb, J. R. Cheeseman, G. Scalmani, V. Barone, 
 G. A. Petersson, H. Nakatsuji, X. Li, M. Caricato, A. V. Marenich, 
 J. Bloino, B. G. Janesko, R. Gomperts, B. Mennucci, H. P. Hratchian, 
 J. V. Ortiz, A. F. Izmaylov, J. L. Sonnenberg, D. Williams-Young, 
 F. Ding, F. Lipparini, F. Egidi, J. Goings, B. Peng, A. Petrone, 
 T. Henderson, D. Ranasinghe, V. G. Zakrzewski, J. Gao, N. Rega, 
 G. Zheng, W. Liang, M. Hada, M. Ehara, K. Toyota, R. Fukuda, 
 J. Hasegawa, M. Ishida, T. Nakajima, Y. Honda, O. Kitao, H. Nakai, 
 T. Vreven, K. Throssell, J. A. Montgomery, Jr., J. E. Peralta, 
 F. Ogliaro, M. J. Bearpark, J. J. Heyd, E. N. Brothers, K. N. Kudin, 
 V. N. Staroverov, T. A. Keith, R. Kobayashi, J. Normand, 
 K. Raghavachari, A. P. Rendell, J. C. Burant, S. S. Iyengar, 
 J. Tomasi, M. Cossi, J. M. Millam, M. Klene, C. Adamo, R. Cammi, 
 J. W. Ochterski, R. L. Martin, K. Morokuma, O. Farkas, 
 J. B. Foresman, and D. J. Fox, Gaussian, Inc., Wallingford CT, 2016.
 
 ******************************************
 Gaussian 16:  ES64L-G16RevA.03 25-Dec-2016
                23-Jun-2025 
 ******************************************
 %nprocshared=24
 Will use up to   24 processors via shared memory.
 %mem=12GB
 %chk=ethyl_propiolate_ts1.chk
 --------------------------
 # freq 6-311++g(d,p) m062x
 --------------------------
 1/10=4,30=1,38=1/1,3;
 2/12=2,17=6,18=5,40=1/2;
 3/5=4,6=6,7=1111,11=2,25=1,30=1,71=2,74=-55,140=1/1,2,3;
 4//1;
 5/5=2,38=5,98=1/2;
 8/6=4,10=90,11=11/1;
 11/6=1,8=1,9=11,15=111,16=1/1,2,10;
 10/6=1/2;
 6/7=2,8=2,9=2,10=2,28=1/1;
 7/8=1,10=1,25=1/1,2,3,16;
 1/10=4,30=1/3;
 99//99;
 -------------------
 Title Card Required
 -------------------
 Symbolic Z-matrix:
 Charge =  0 Multiplicity = 2
 C                    -2.79754  -0.43966  -0.41275 
 H                    -3.83967  -0.4861   -0.6317 
 C                    -1.62525  -0.19446  -0.10449 
 C                    -0.21984  -0.59875   0.14483 
 O                     0.1384   -1.19346   1.11829 
 O                     0.56127  -0.16531  -0.83998 
 C                     1.98103  -0.31902  -0.63122 
 C                     2.50203   0.75401   0.30422 
 H                     2.40684  -0.23003  -1.62894 
 H                     2.17147  -1.31977  -0.24215 
 H                     3.58459   0.65611   0.40613 
 H                     2.2766    1.74556  -0.09042 
 H                     2.05105   0.65531   1.29188 
 O                    -1.46726   1.57939   0.4147 
 H                    -1.55279   2.00121  -0.45229 
 

 GradGradGradGradGradGradGradGradGradGradGradGradGradGradGradGradGradGrad
 Berny optimization.
 Initialization pass.
 Trust Radius=3.00D-01 FncErr=1.00D-07 GrdErr=1.00D-07 EigMax=2.50D+02 EigMin=1.00D-04
 Number of steps in this run=      2 maximum allowed number of steps=      2.
 GradGradGradGradGradGradGradGradGradGradGradGradGradGradGradGradGradGrad

                          Input orientation:                          
 ---------------------------------------------------------------------
 Center     Atomic      Atomic             Coordinates (Angstroms)
 Number     Number       Type             X           Y           Z
 ---------------------------------------------------------------------
      1          6           0       -2.797537   -0.439658   -0.412753
      2          1           0       -3.839669   -0.486096   -0.631697
      3          6           0       -1.625253   -0.194459   -0.104489
      4          6           0       -0.219835   -0.598754    0.144829
      5          8           0        0.138398   -1.193457    1.118287
      6          8           0        0.561272   -0.165310   -0.839984
      7          6           0        1.981030   -0.319019   -0.631224
      8          6           0        2.502025    0.754009    0.304219
      9          1           0        2.406841   -0.230030   -1.628937
     10          1           0        2.171469   -1.319772   -0.242151
     11          1           0        3.584588    0.656114    0.406128
     12          1           0        2.276604    1.745558   -0.090416
     13          1           0        2.051052    0.655314    1.291880
     14          8           0       -1.467255    1.579390    0.414696
     15          1           0       -1.552789    2.001211   -0.452286
 ---------------------------------------------------------------------
                    Distance matrix (angstroms):
                    1          2          3          4          5
     1  C    0.000000
     2  H    1.065895   0.000000
     3  C    1.236689   2.294916   0.000000
     4  C    2.642112   3.703901   1.483514   0.000000
     5  O    3.395881   4.403160   2.367202   1.195668   0.000000
     6  O    3.396968   4.417530   2.307096   1.329608   2.251829
     7  C    4.785080   5.823096   3.646675   2.350386   2.687140
     8  C    5.479439   6.529233   4.254534   3.043665   3.168921
     9  H    5.348701   6.330793   4.310799   3.190867   3.690700
    10  H    5.049230   6.081163   3.962370   2.527440   2.449515
    11  H    6.527082   7.582962   5.303456   4.014549   3.975463
    12  H    5.534074   6.533151   4.357563   3.432688   3.830235
    13  H    5.254860   6.301076   4.023329   2.836431   2.665771
    14  O    2.555558   3.315044   1.855009   2.524519   3.280525
    15  H    2.740219   3.383593   2.224226   2.982135   3.941157
                    6          7          8          9         10
     6  O    0.000000
     7  C    1.443232   0.000000
     8  C    2.433284   1.515875   0.000000
     9  H    2.008173   1.088423   2.171286   0.000000
    10  H    2.069522   1.090482   2.169874   1.779357   0.000000
    11  H    3.371642   2.144384   1.091747   2.512733   2.514219
    12  H    2.675001   2.154603   1.090743   2.507380   3.070883
    13  H    2.727217   2.156979   1.090225   3.072717   2.503740
    14  O    2.955186   4.072907   4.055693   4.739099   4.698606
    15  H    3.051783   4.231237   4.309214   4.694850   4.994315
                   11         12         13         14         15
    11  H    0.000000
    12  H    1.773208   0.000000
    13  H    1.770957   1.774894   0.000000
    14  O    5.135526   3.781432   3.741905   0.000000
    15  H    5.379480   3.854940   4.223887   0.967939   0.000000
 Stoichiometry    C5H7O3(2)
 Framework group  C1[X(C5H7O3)]
 Deg. of freedom    39
 Full point group                 C1      NOp   1
 Largest Abelian subgroup         C1      NOp   1
 Largest concise Abelian subgroup C1      NOp   1
                         Standard orientation:                         
 ---------------------------------------------------------------------
 Center     Atomic      Atomic             Coordinates (Angstroms)
 Number     Number       Type             X           Y           Z
 ---------------------------------------------------------------------
      1          6           0       -2.797537   -0.439658   -0.412753
      2          1           0       -3.839669   -0.486096   -0.631697
      3          6           0       -1.625253   -0.194459   -0.104489
      4          6           0       -0.219835   -0.598754    0.144829
      5          8           0        0.138398   -1.193457    1.118287
      6          8           0        0.561272   -0.165310   -0.839984
      7          6           0        1.981030   -0.319019   -0.631224
      8          6           0        2.502025    0.754009    0.304219
      9          1           0        2.406841   -0.230030   -1.628937
     10          1           0        2.171469   -1.319772   -0.242151
     11          1           0        3.584588    0.656114    0.406128
     12          1           0        2.276604    1.745558   -0.090416
     13          1           0        2.051052    0.655314    1.291880
     14          8           0       -1.467255    1.579390    0.414696
     15          1           0       -1.552789    2.001211   -0.452286
 ---------------------------------------------------------------------
 Rotational constants (GHZ):           3.7253500           1.3106232           1.1855707
 Standard basis: 6-311++G(d,p) (5D, 7F)
 There are   233 symmetry adapted cartesian basis functions of A   symmetry.
 There are   225 symmetry adapted basis functions of A   symmetry.
   225 basis functions,   351 primitive gaussians,   233 cartesian basis functions
    31 alpha electrons       30 beta electrons
       nuclear repulsion energy       363.6454541807 Hartrees.
 NAtoms=   15 NActive=   15 NUniq=   15 SFac= 1.00D+00 NAtFMM=   60 NAOKFM=F Big=F
 Integral buffers will be    131072 words long.
 Raffenetti 2 integral format.
 Two-electron integral symmetry is turned on.
 One-electron integrals computed using PRISM.
 NBasis=   225 RedAO= T EigKep=  4.33D-06  NBF=   225
 NBsUse=   225 1.00D-06 EigRej= -1.00D+00 NBFU=   225
 ExpMin= 3.60D-02 ExpMax= 8.59D+03 ExpMxC= 1.30D+03 IAcc=3 IRadAn=         5 AccDes= 0.00D+00
 Harris functional with IExCor= 1009 and IRadAn=       5 diagonalized for initial guess.
 HarFok:  IExCor= 1009 AccDes= 0.00D+00 IRadAn=         5 IDoV= 1 UseB2=F ITyADJ=14
 ICtDFT=  3500011 ScaDFX=  1.000000  1.000000  1.000000  1.000000
 FoFCou: FMM=F IPFlag=           0 FMFlag=      100000 FMFlg1=           0
         NFxFlg=           0 DoJE=T BraDBF=F KetDBF=T FulRan=T
         wScrn=  0.000000 ICntrl=       500 IOpCl=  0 I1Cent=   200000004 NGrid=           0
         NMat0=    1 NMatS0=      1 NMatT0=    0 NMatD0=    1 NMtDS0=    0 NMtDT0=    0
 Petite list used in FoFCou.
 Initial guess <Sx>= 0.0000 <Sy>= 0.0000 <Sz>= 0.5000 <S**2>= 0.7500 S= 0.5000
 Requested convergence on RMS density matrix=1.00D-08 within 128 cycles.
 Requested convergence on MAX density matrix=1.00D-06.
 Requested convergence on             energy=1.00D-06.
 No special actions if energy rises.
 Restarting incremental Fock formation.
 SCF Done:  E(UM062X) =  -420.205776953     A.U. after   21 cycles
            NFock= 21  Conv=0.61D-08     -V/T= 2.0036
 <Sx>= 0.0000 <Sy>= 0.0000 <Sz>= 0.5000 <S**2>= 0.7866 S= 0.5181
 <L.S>=  0.00000000000    
 Annihilation of the first spin contaminant:
 S**2 before annihilation     0.7866,   after     0.7506
 DoSCS=F DFT=T ScalE2(SS,OS)=  1.000000  1.000000
 Range of M.O.s used for correlation:     1   225
 NBasis=   225 NAE=    31 NBE=    30 NFC=     0 NFV=     0
 NROrb=    225 NOA=    31 NOB=    30 NVA=   194 NVB=   195

 **** Warning!!: The largest alpha MO coefficient is  0.14612716D+03


 **** Warning!!: The largest beta MO coefficient is  0.14260681D+03

 Symmetrizing basis deriv contribution to polar:
 IMax=3 JMax=2 DiffMx= 0.00D+00
 G2DrvN: will do    16 centers at a time, making    1 passes.
 Calling FoFCou, ICntrl=  3107 FMM=F I1Cent=   0 AccDes= 0.00D+00.
 End of G2Drv F.D. properties file   721 does not exist.
 End of G2Drv F.D. properties file   722 does not exist.
 End of G2Drv F.D. properties file   788 does not exist.
          IDoAtm=111111111111111
          Differentiating once with respect to electric field.
                with respect to dipole field.
          Differentiating once with respect to nuclear coordinates.
 Keep R1 and R2 ints in memory in canonical form, NReq=671901991.
          There are    48 degrees of freedom in the 1st order CPHF.  IDoFFX=6 NUNeed=     3.
     45 vectors produced by pass  0 Test12= 2.47D-14 2.08D-09 XBig12= 8.69D+01 3.23D+00.
 AX will form    45 AO Fock derivatives at one time.
     45 vectors produced by pass  1 Test12= 2.47D-14 2.08D-09 XBig12= 1.34D+01 4.39D-01.
     45 vectors produced by pass  2 Test12= 2.47D-14 2.08D-09 XBig12= 6.64D-01 1.20D-01.
     45 vectors produced by pass  3 Test12= 2.47D-14 2.08D-09 XBig12= 1.03D-02 1.15D-02.
     45 vectors produced by pass  4 Test12= 2.47D-14 2.08D-09 XBig12= 1.09D-04 1.32D-03.
     45 vectors produced by pass  5 Test12= 2.47D-14 2.08D-09 XBig12= 1.26D-06 9.67D-05.
     39 vectors produced by pass  6 Test12= 2.47D-14 2.08D-09 XBig12= 1.10D-08 1.11D-05.
     20 vectors produced by pass  7 Test12= 2.47D-14 2.08D-09 XBig12= 9.04D-11 8.58D-07.
      5 vectors produced by pass  8 Test12= 2.47D-14 2.08D-09 XBig12= 8.24D-13 7.13D-08.
      3 vectors produced by pass  9 Test12= 2.47D-14 2.08D-09 XBig12= 7.48D-15 8.61D-09.
      1 vectors produced by pass 10 Test12= 2.47D-14 2.08D-09 XBig12= 1.98D-16 2.42D-09.
 InvSVY:  IOpt=1 It=  1 EMax= 3.55D-15
 Solved reduced A of dimension   338 with    48 vectors.
 Isotropic polarizability for W=    0.000000       73.52 Bohr**3.
 End of Minotr F.D. properties file   721 does not exist.
 End of Minotr F.D. properties file   722 does not exist.
 End of Minotr F.D. properties file   788 does not exist.

 **********************************************************************

            Population analysis using the SCF density.

 **********************************************************************

 Orbital symmetries:
 Alpha Orbitals:
       Occupied  (A) (A) (A) (A) (A) (A) (A) (A) (A) (A) (A) (A)
                 (A) (A) (A) (A) (A) (A) (A) (A) (A) (A) (A) (A)
                 (A) (A) (A) (A) (A) (A) (A)
       Virtual   (A) (A) (A) (A) (A) (A) (A) (A) (A) (A) (A) (A)
                 (A) (A) (A) (A) (A) (A) (A) (A) (A) (A) (A) (A)
                 (A) (A) (A) (A) (A) (A) (A) (A) (A) (A) (A) (A)
                 (A) (A) (A) (A) (A) (A) (A) (A) (A) (A) (A) (A)
                 (A) (A) (A) (A) (A) (A) (A) (A) (A) (A) (A) (A)
                 (A) (A) (A) (A) (A) (A) (A) (A) (A) (A) (A) (A)
                 (A) (A) (A) (A) (A) (A) (A) (A) (A) (A) (A) (A)
                 (A) (A) (A) (A) (A) (A) (A) (A) (A) (A) (A) (A)
                 (A) (A) (A) (A) (A) (A) (A) (A) (A) (A) (A) (A)
                 (A) (A) (A) (A) (A) (A) (A) (A) (A) (A) (A) (A)
                 (A) (A) (A) (A) (A) (A) (A) (A) (A) (A) (A) (A)
                 (A) (A) (A) (A) (A) (A) (A) (A) (A) (A) (A) (A)
                 (A) (A) (A) (A) (A) (A) (A) (A) (A) (A) (A) (A)
                 (A) (A) (A) (A) (A) (A) (A) (A) (A) (A) (A) (A)
                 (A) (A) (A) (A) (A) (A) (A) (A) (A) (A) (A) (A)
                 (A) (A) (A) (A) (A) (A) (A) (A) (A) (A) (A) (A)
                 (A) (A)
 Beta  Orbitals:
       Occupied  (A) (A) (A) (A) (A) (A) (A) (A) (A) (A) (A) (A)
                 (A) (A) (A) (A) (A) (A) (A) (A) (A) (A) (A) (A)
                 (A) (A) (A) (A) (A) (A)
       Virtual   (A) (A) (A) (A) (A) (A) (A) (A) (A) (A) (A) (A)
                 (A) (A) (A) (A) (A) (A) (A) (A) (A) (A) (A) (A)
                 (A) (A) (A) (A) (A) (A) (A) (A) (A) (A) (A) (A)
                 (A) (A) (A) (A) (A) (A) (A) (A) (A) (A) (A) (A)
                 (A) (A) (A) (A) (A) (A) (A) (A) (A) (A) (A) (A)
                 (A) (A) (A) (A) (A) (A) (A) (A) (A) (A) (A) (A)
                 (A) (A) (A) (A) (A) (A) (A) (A) (A) (A) (A) (A)
                 (A) (A) (A) (A) (A) (A) (A) (A) (A) (A) (A) (A)
                 (A) (A) (A) (A) (A) (A) (A) (A) (A) (A) (A) (A)
                 (A) (A) (A) (A) (A) (A) (A) (A) (A) (A) (A) (A)
                 (A) (A) (A) (A) (A) (A) (A) (A) (A) (A) (A) (A)
                 (A) (A) (A) (A) (A) (A) (A) (A) (A) (A) (A) (A)
                 (A) (A) (A) (A) (A) (A) (A) (A) (A) (A) (A) (A)
                 (A) (A) (A) (A) (A) (A) (A) (A) (A) (A) (A) (A)
                 (A) (A) (A) (A) (A) (A) (A) (A) (A) (A) (A) (A)
                 (A) (A) (A) (A) (A) (A) (A) (A) (A) (A) (A) (A)
                 (A) (A) (A)
 The electronic state is 2-A.
 Alpha  occ. eigenvalues --  -19.68400 -19.64338 -19.63453 -10.70749 -10.61838
 Alpha  occ. eigenvalues --  -10.60649 -10.59590 -10.53616  -1.25924  -1.16695
 Alpha  occ. eigenvalues --   -1.10713  -0.91554  -0.87868  -0.78402  -0.71027
 Alpha  occ. eigenvalues --   -0.64862  -0.62506  -0.58977  -0.57304  -0.53959
 Alpha  occ. eigenvalues --   -0.53165  -0.49472  -0.48417  -0.46169  -0.45320
 Alpha  occ. eigenvalues --   -0.42063  -0.41336  -0.38727  -0.38080  -0.37372
 Alpha  occ. eigenvalues --   -0.32197
 Alpha virt. eigenvalues --   -0.00513  -0.00283   0.00423   0.01465   0.02253
 Alpha virt. eigenvalues --    0.02486   0.03150   0.04389   0.05509   0.05992
 Alpha virt. eigenvalues --    0.07047   0.07815   0.07949   0.10201   0.10331
 Alpha virt. eigenvalues --    0.10697   0.11387   0.12365   0.13070   0.13493
 Alpha virt. eigenvalues --    0.13777   0.13973   0.14723   0.15237   0.15497
 Alpha virt. eigenvalues --    0.17243   0.17474   0.18064   0.19464   0.20081
 Alpha virt. eigenvalues --    0.20742   0.21756   0.23218   0.23538   0.24715
 Alpha virt. eigenvalues --    0.25732   0.26741   0.28120   0.29660   0.30785
 Alpha virt. eigenvalues --    0.31573   0.32362   0.32588   0.33922   0.34504
 Alpha virt. eigenvalues --    0.35060   0.36273   0.37081   0.37738   0.40141
 Alpha virt. eigenvalues --    0.41217   0.42829   0.44516   0.46812   0.49356
 Alpha virt. eigenvalues --    0.50108   0.52613   0.54377   0.55527   0.57808
 Alpha virt. eigenvalues --    0.58188   0.60731   0.62900   0.65698   0.66913
 Alpha virt. eigenvalues --    0.67968   0.69298   0.70408   0.70853   0.72404
 Alpha virt. eigenvalues --    0.73492   0.75250   0.78103   0.78261   0.79674
 Alpha virt. eigenvalues --    0.83668   0.85859   0.90382   0.93704   0.97509
 Alpha virt. eigenvalues --    0.98811   1.02418   1.05861   1.07539   1.12655
 Alpha virt. eigenvalues --    1.16337   1.18298   1.20312   1.21752   1.23887
 Alpha virt. eigenvalues --    1.24724   1.27617   1.31549   1.31882   1.33611
 Alpha virt. eigenvalues --    1.35367   1.36443   1.38059   1.42730   1.45562
 Alpha virt. eigenvalues --    1.47842   1.50621   1.52060   1.52642   1.57575
 Alpha virt. eigenvalues --    1.59068   1.59896   1.61099   1.62270   1.64865
 Alpha virt. eigenvalues --    1.66219   1.67013   1.70492   1.71724   1.74732
 Alpha virt. eigenvalues --    1.75702   1.80947   1.84073   1.86729   1.87941
 Alpha virt. eigenvalues --    1.90809   1.94905   1.98956   2.03740   2.06068
 Alpha virt. eigenvalues --    2.09870   2.13202   2.14023   2.20671   2.29172
 Alpha virt. eigenvalues --    2.31165   2.35296   2.41849   2.51585   2.51820
 Alpha virt. eigenvalues --    2.54204   2.56327   2.59954   2.61756   2.63523
 Alpha virt. eigenvalues --    2.65035   2.66641   2.71115   2.73167   2.74471
 Alpha virt. eigenvalues --    2.78713   2.81044   2.83602   2.87707   2.90906
 Alpha virt. eigenvalues --    2.94610   2.96303   2.98624   3.01748   3.07588
 Alpha virt. eigenvalues --    3.10110   3.15792   3.17921   3.20819   3.21309
 Alpha virt. eigenvalues --    3.26491   3.30496   3.33850   3.36642   3.44436
 Alpha virt. eigenvalues --    3.45771   3.49856   3.64743   3.74949   3.85612
 Alpha virt. eigenvalues --    3.86012   3.89730   3.91662   4.02425   4.10001
 Alpha virt. eigenvalues --    4.18311   4.28061   5.13881   5.16858   5.19519
 Alpha virt. eigenvalues --    5.22282   5.31810   5.47579   5.60713   5.72828
 Alpha virt. eigenvalues --    5.94589  23.58359  23.92346  23.94154  24.05817
 Alpha virt. eigenvalues --   24.86198  49.98770  50.01649  50.10717
  Beta  occ. eigenvalues --  -19.68402 -19.63471 -19.63345 -10.70706 -10.61976
  Beta  occ. eigenvalues --  -10.60648 -10.59138 -10.53616  -1.25914  -1.16727
  Beta  occ. eigenvalues --   -1.07137  -0.90502  -0.87066  -0.77924  -0.70460
  Beta  occ. eigenvalues --   -0.64665  -0.61768  -0.58883  -0.57017  -0.53485
  Beta  occ. eigenvalues --   -0.51785  -0.49012  -0.46736  -0.45307  -0.42210
  Beta  occ. eigenvalues --   -0.41982  -0.39394  -0.38642  -0.36629  -0.36271
  Beta virt. eigenvalues --   -0.09678  -0.00432   0.00411   0.00884   0.01731
  Beta virt. eigenvalues --    0.02372   0.02781   0.03164   0.04551   0.05556
  Beta virt. eigenvalues --    0.05916   0.07129   0.07614   0.07987   0.10335
  Beta virt. eigenvalues --    0.10603   0.10825   0.11694   0.12363   0.13066
  Beta virt. eigenvalues --    0.13302   0.13820   0.14191   0.15239   0.15484
  Beta virt. eigenvalues --    0.15546   0.17175   0.17292   0.18068   0.19956
  Beta virt. eigenvalues --    0.20416   0.20696   0.21735   0.23514   0.23569
  Beta virt. eigenvalues --    0.24832   0.25533   0.26915   0.27922   0.29809
  Beta virt. eigenvalues --    0.30707   0.31489   0.32382   0.32685   0.33905
  Beta virt. eigenvalues --    0.34510   0.35049   0.36301   0.37069   0.37787
  Beta virt. eigenvalues --    0.40146   0.41355   0.42804   0.44529   0.46842
  Beta virt. eigenvalues --    0.49407   0.50222   0.52631   0.54430   0.55737
  Beta virt. eigenvalues --    0.58145   0.58676   0.61126   0.63060   0.65711
  Beta virt. eigenvalues --    0.66741   0.68348   0.69204   0.70484   0.70848
  Beta virt. eigenvalues --    0.72255   0.73506   0.75207   0.77927   0.78173
  Beta virt. eigenvalues --    0.79714   0.83649   0.85885   0.90630   0.93878
  Beta virt. eigenvalues --    0.97496   0.98894   1.02747   1.06060   1.07611
  Beta virt. eigenvalues --    1.13500   1.17097   1.18559   1.20733   1.22362
  Beta virt. eigenvalues --    1.24430   1.25124   1.28370   1.32137   1.32906
  Beta virt. eigenvalues --    1.35172   1.35581   1.36715   1.38305   1.43424
  Beta virt. eigenvalues --    1.46691   1.48229   1.50818   1.52651   1.53582
  Beta virt. eigenvalues --    1.57692   1.59338   1.60020   1.61158   1.62338
  Beta virt. eigenvalues --    1.64918   1.66390   1.67138   1.70483   1.71819
  Beta virt. eigenvalues --    1.74795   1.75789   1.81061   1.84294   1.86935
  Beta virt. eigenvalues --    1.88138   1.90961   1.95412   1.98999   2.03876
  Beta virt. eigenvalues --    2.06470   2.10122   2.13636   2.14171   2.20716
  Beta virt. eigenvalues --    2.29277   2.31201   2.35323   2.42032   2.51671
  Beta virt. eigenvalues --    2.52334   2.54218   2.56466   2.60300   2.61909
  Beta virt. eigenvalues --    2.63995   2.65534   2.66704   2.71506   2.73350
  Beta virt. eigenvalues --    2.74626   2.79954   2.81310   2.84684   2.90315
  Beta virt. eigenvalues --    2.91009   2.94763   2.96384   2.98672   3.01654
  Beta virt. eigenvalues --    3.10222   3.11051   3.16068   3.20345   3.22472
  Beta virt. eigenvalues --    3.24134   3.26615   3.30551   3.34629   3.36554
  Beta virt. eigenvalues --    3.45276   3.45732   3.50020   3.64709   3.74917
  Beta virt. eigenvalues --    3.85616   3.86031   3.90136   3.93320   4.02430
  Beta virt. eigenvalues --    4.09869   4.18176   4.28059   5.14670   5.17454
  Beta virt. eigenvalues --    5.23486   5.23665   5.31829   5.47559   5.62620
  Beta virt. eigenvalues --    5.72841   5.94577  23.58461  23.92352  23.94159
  Beta virt. eigenvalues --   24.05817  24.86894  49.98392  50.01344  50.10737
          Condensed to atoms (all electrons):
               1          2          3          4          5          6
     1  C   15.111688   0.606013  -3.787300  -5.440147  -0.033604  -0.006798
     2  H    0.606013   0.423312  -0.164987  -0.071683  -0.001522  -0.001447
     3  C   -3.787300  -0.164987  11.373811  -1.914400   0.137878  -0.206309
     4  C   -5.440147  -0.071683  -1.914400  13.649260   0.326770   0.053477
     5  O   -0.033604  -0.001522   0.137878   0.326770   7.948289  -0.156982
     6  O   -0.006798  -0.001447  -0.206309   0.053477  -0.156982   8.292765
     7  C   -0.085745  -0.000812  -0.242590   0.195301   0.053193   0.140445
     8  C    0.086481   0.000158   0.163869  -0.320785  -0.073897  -0.041246
     9  H    0.001873   0.000069   0.001923   0.002180   0.006883  -0.090407
    10  H   -0.030834  -0.000195  -0.078819   0.106533  -0.019014  -0.016251
    11  H    0.003224   0.000042   0.014741  -0.011167  -0.002513   0.016711
    12  H   -0.005656   0.000030  -0.025704   0.032126   0.000494  -0.000425
    13  H    0.003084  -0.000253   0.013932  -0.045906   0.008063  -0.018619
    14  O   -0.345424  -0.007450   0.446979  -0.198547  -0.002976   0.036819
    15  H   -0.088547  -0.003541   0.114797  -0.006958   0.000343  -0.003840
               7          8          9         10         11         12
     1  C   -0.085745   0.086481   0.001873  -0.030834   0.003224  -0.005656
     2  H   -0.000812   0.000158   0.000069  -0.000195   0.000042   0.000030
     3  C   -0.242590   0.163869   0.001923  -0.078819   0.014741  -0.025704
     4  C    0.195301  -0.320785   0.002180   0.106533  -0.011167   0.032126
     5  O    0.053193  -0.073897   0.006883  -0.019014  -0.002513   0.000494
     6  O    0.140445  -0.041246  -0.090407  -0.016251   0.016711  -0.000425
     7  C    5.452940   0.010086   0.447798   0.411207  -0.057218  -0.032234
     8  C    0.010086   5.476368  -0.064311  -0.036696   0.406752   0.413222
     9  H    0.447798  -0.064311   0.539528  -0.038744   0.000214  -0.011850
    10  H    0.411207  -0.036696  -0.038744   0.524786  -0.006483   0.006879
    11  H   -0.057218   0.406752   0.000214  -0.006483   0.537967  -0.035876
    12  H   -0.032234   0.413222  -0.011850   0.006879  -0.035876   0.544502
    13  H    0.004208   0.378395   0.011964  -0.011989  -0.034745  -0.045369
    14  O   -0.014686   0.023584   0.000641  -0.002479   0.001760  -0.002478
    15  H    0.001004   0.002238   0.000468  -0.000656   0.000183  -0.001274
              13         14         15
     1  C    0.003084  -0.345424  -0.088547
     2  H   -0.000253  -0.007450  -0.003541
     3  C    0.013932   0.446979   0.114797
     4  C   -0.045906  -0.198547  -0.006958
     5  O    0.008063  -0.002976   0.000343
     6  O   -0.018619   0.036819  -0.003840
     7  C    0.004208  -0.014686   0.001004
     8  C    0.378395   0.023584   0.002238
     9  H    0.011964   0.000641   0.000468
    10  H   -0.011989  -0.002479  -0.000656
    11  H   -0.034745   0.001760   0.000183
    12  H   -0.045369  -0.002478  -0.001274
    13  H    0.541256  -0.000784   0.000965
    14  O   -0.000784   8.089253   0.247010
    15  H    0.000965   0.247010   0.510595
          Atomic-Atomic Spin Densities.
               1          2          3          4          5          6
     1  C    1.686604   0.059647  -0.563952  -0.046189   0.000133  -0.030139
     2  H    0.059647  -0.017192  -0.049506  -0.013683   0.000016  -0.000749
     3  C   -0.563952  -0.049506   0.055278   0.239030  -0.008153   0.002928
     4  C   -0.046189  -0.013683   0.239030  -0.297533   0.010709   0.013992
     5  O    0.000133   0.000016  -0.008153   0.010709  -0.012842   0.000136
     6  O   -0.030139  -0.000749   0.002928   0.013992   0.000136   0.003992
     7  C   -0.023761  -0.000517  -0.007909   0.010520  -0.001041   0.005101
     8  C    0.023964   0.000274   0.015308  -0.021350   0.001531  -0.005622
     9  H   -0.000794  -0.000024  -0.002270   0.001255  -0.000018   0.000175
    10  H    0.001645   0.000008   0.004169  -0.006288  -0.000009   0.000668
    11  H    0.000721   0.000008   0.000282  -0.000105   0.000056  -0.000307
    12  H   -0.002796  -0.000037  -0.002055   0.003275  -0.000045   0.000543
    13  H   -0.007903  -0.000077  -0.013249   0.014532  -0.000547   0.001047
    14  O   -0.325794  -0.004563   0.004636   0.161011   0.001516   0.007996
    15  H    0.039456   0.000808  -0.007919  -0.019048  -0.000131  -0.001168
               7          8          9         10         11         12
     1  C   -0.023761   0.023964  -0.000794   0.001645   0.000721  -0.002796
     2  H   -0.000517   0.000274  -0.000024   0.000008   0.000008  -0.000037
     3  C   -0.007909   0.015308  -0.002270   0.004169   0.000282  -0.002055
     4  C    0.010520  -0.021350   0.001255  -0.006288  -0.000105   0.003275
     5  O   -0.001041   0.001531  -0.000018  -0.000009   0.000056  -0.000045
     6  O    0.005101  -0.005622   0.000175   0.000668  -0.000307   0.000543
     7  C    0.015176  -0.010993   0.001310  -0.000543  -0.000809   0.001468
     8  C   -0.010993   0.007286  -0.000988   0.000337   0.000976  -0.001695
     9  H    0.001310  -0.000988   0.000604   0.000122  -0.000131   0.000103
    10  H   -0.000543   0.000337   0.000122  -0.000688   0.000161  -0.000011
    11  H   -0.000809   0.000976  -0.000131   0.000161  -0.000150  -0.000150
    12  H    0.001468  -0.001695   0.000103  -0.000011  -0.000150   0.000550
    13  H    0.005388  -0.003945   0.000582   0.000151  -0.000479   0.000393
    14  O    0.009344  -0.003847   0.000576   0.000123  -0.000152   0.000146
    15  H   -0.001708   0.000903  -0.000206   0.000052   0.000031  -0.000152
              13         14         15
     1  C   -0.007903  -0.325794   0.039456
     2  H   -0.000077  -0.004563   0.000808
     3  C   -0.013249   0.004636  -0.007919
     4  C    0.014532   0.161011  -0.019048
     5  O   -0.000547   0.001516  -0.000131
     6  O    0.001047   0.007996  -0.001168
     7  C    0.005388   0.009344  -0.001708
     8  C   -0.003945  -0.003847   0.000903
     9  H    0.000582   0.000576  -0.000206
    10  H    0.000151   0.000123   0.000052
    11  H   -0.000479  -0.000152   0.000031
    12  H    0.000393   0.000146  -0.000152
    13  H    0.002071   0.001234  -0.000533
    14  O    0.001234   0.660487   0.001332
    15  H   -0.000533   0.001332  -0.019180
 Mulliken charges and spin densities:
               1          2
     1  C    0.011692   0.810841
     2  H    0.222265  -0.025587
     3  C    0.152180  -0.333383
     4  C   -0.356054   0.050130
     5  O   -0.191407  -0.008690
     6  O    0.002107  -0.001407
     7  C   -0.282897   0.001025
     8  C   -0.424219   0.002141
     9  H    0.191771   0.000297
    10  H    0.192753  -0.000104
    11  H    0.166409  -0.000048
    12  H    0.163613  -0.000461
    13  H    0.195797  -0.001335
    14  O   -0.271222   0.514044
    15  H    0.227213  -0.007464
 Sum of Mulliken charges =  -0.00000   1.00000
 Mulliken charges and spin densities with hydrogens summed into heavy atoms:
               1          2
     1  C    0.233957   0.785254
     3  C    0.152180  -0.333383
     4  C   -0.356054   0.050130
     5  O   -0.191407  -0.008690
     6  O    0.002107  -0.001407
     7  C    0.101626   0.001218
     8  C    0.101600   0.000297
    14  O   -0.044009   0.506581
 APT charges:
               1
     1  C   -0.144660
     2  H    0.241372
     3  C   -0.217176
     4  C    1.408530
     5  O   -0.758861
     6  O   -0.943815
     7  C    0.535051
     8  C   -0.042583
     9  H   -0.014778
    10  H   -0.010883
    11  H    0.011167
    12  H    0.012437
    13  H    0.031049
    14  O   -0.340843
    15  H    0.233993
 Sum of APT charges =   0.00000
 APT charges with hydrogens summed into heavy atoms:
               1
     1  C    0.096713
     3  C   -0.217176
     4  C    1.408530
     5  O   -0.758861
     6  O   -0.943815
     7  C    0.509390
     8  C    0.012070
    14  O   -0.106851
 Electronic spatial extent (au):  <R**2>=           1060.9273
 Charge=              0.0000 electrons
 Dipole moment (field-independent basis, Debye):
    X=              0.0287    Y=              0.0735    Z=             -3.1974  Tot=              3.1984
 Quadrupole moment (field-independent basis, Debye-Ang):
   XX=            -32.6773   YY=            -49.0504   ZZ=            -51.2022
   XY=              2.1367   XZ=              3.5519   YZ=             -0.3942
 Traceless Quadrupole moment (field-independent basis, Debye-Ang):
   XX=             11.6327   YY=             -4.7404   ZZ=             -6.8923
   XY=              2.1367   XZ=              3.5519   YZ=             -0.3942
 Octapole moment (field-independent basis, Debye-Ang**2):
  XXX=            -27.7950  YYY=              7.8714  ZZZ=             -1.0567  XYY=              1.8854
  XXY=             -7.9147  XXZ=            -15.5499  XZZ=              3.5704  YZZ=              4.0454
  YYZ=            -10.0422  XYZ=              5.0967
 Hexadecapole moment (field-independent basis, Debye-Ang**3):
 XXXX=           -760.2061 YYYY=           -250.6787 ZZZZ=           -165.6855 XXXY=             17.1296
 XXXZ=             36.6303 YYYX=            -17.7596 YYYZ=            -11.8894 ZZZX=             -7.4078
 ZZZY=             -0.0970 XXYY=           -210.8287 XXZZ=           -188.9844 YYZZ=            -76.5646
 XXYZ=             -4.7554 YYXZ=              8.6532 ZZXY=             -2.8700
 N-N= 3.636454541807D+02 E-N=-1.711883621775D+03  KE= 4.187161035649D+02
  Exact polarizability:  89.417   7.033  72.524   5.198   1.772  58.620
 Approx polarizability:  93.562   8.449  84.592   8.678  -0.749  75.699
                          Isotropic Fermi Contact Couplings
        Atom                 a.u.       MegaHertz       Gauss      10(-4) cm-1
     1  C(13)              0.09982     112.21943      40.04268      37.43237
     2  H(1)              -0.01143     -51.08142     -18.22712     -17.03893
     3  C(13)             -0.01427     -16.04085      -5.72377      -5.35065
     4  C(13)              0.02881      32.38732      11.55660      10.80325
     5  O(17)             -0.00351       2.12472       0.75815       0.70873
     6  O(17)              0.00216      -1.30882      -0.46702      -0.43658
     7  C(13)              0.00005       0.06062       0.02163       0.02022
     8  C(13)             -0.00062      -0.69929      -0.24952      -0.23326
     9  H(1)               0.00005       0.22075       0.07877       0.07363
    10  H(1)              -0.00004      -0.19939      -0.07115      -0.06651
    11  H(1)              -0.00002      -0.07378      -0.02633      -0.02461
    12  H(1)               0.00002       0.08447       0.03014       0.02818
    13  H(1)               0.00001       0.05508       0.01966       0.01837
    14  O(17)              0.10870     -65.89050     -23.51137     -21.97871
    15  H(1)              -0.00890     -39.80315     -14.20275     -13.27690
 --------------------------------------------------------
       Center         ----  Spin Dipole Couplings  ----
                      3XX-RR        3YY-RR        3ZZ-RR
 --------------------------------------------------------
     1   Atom       -0.405344      0.647323     -0.241979
     2   Atom        0.052877     -0.011274     -0.041603
     3   Atom        0.134772     -0.066173     -0.068600
     4   Atom        0.017195      0.003867     -0.021062
     5   Atom        0.015942     -0.018678      0.002736
     6   Atom        0.007751     -0.017912      0.010162
     7   Atom        0.003168     -0.001155     -0.002012
     8   Atom        0.002403     -0.001174     -0.001229
     9   Atom        0.001337     -0.000770     -0.000567
    10   Atom        0.001449     -0.000279     -0.001171
    11   Atom        0.001338     -0.000632     -0.000706
    12   Atom        0.003012     -0.001472     -0.001540
    13   Atom        0.002689     -0.001280     -0.001408
    14   Atom       -0.684432      1.350905     -0.666473
    15   Atom       -0.067257     -0.001395      0.068651
 --------------------------------------------------------
                        XY            XZ            YZ
 --------------------------------------------------------
     1   Atom       -0.128258     -0.056970      0.204639
     2   Atom        0.003747      0.021092      0.009909
     3   Atom       -0.016922      0.042161     -0.000081
     4   Atom       -0.019986      0.004014      0.002889
     5   Atom       -0.059660     -0.030307     -0.022944
     6   Atom       -0.011773     -0.013620      0.003011
     7   Atom       -0.002198     -0.000747      0.000331
     8   Atom       -0.000830     -0.000094      0.000087
     9   Atom       -0.000504     -0.000863      0.000241
    10   Atom       -0.000984     -0.000118      0.000076
    11   Atom       -0.000166      0.000101      0.000038
    12   Atom        0.000377     -0.000500      0.000072
    13   Atom       -0.000833      0.001227     -0.000126
    14   Atom        0.960071      0.390309      1.005321
    15   Atom        0.011894      0.016361     -0.057136
 --------------------------------------------------------


 ---------------------------------------------------------------------------------
              Anisotropic Spin Dipole Couplings in Principal Axis System
 ---------------------------------------------------------------------------------

       Atom             a.u.   MegaHertz   Gauss  10(-4) cm-1        Axes

              Baa    -0.4279   -57.414   -20.487   -19.151  0.9736  0.0751  0.2157
     1 C(13)  Bbb    -0.2813   -37.743   -13.468   -12.590 -0.1928 -0.2365  0.9523
              Bcc     0.7091    95.158    33.955    31.741 -0.1225  0.9687  0.2158
 
              Baa    -0.0483   -25.751    -9.188    -8.589 -0.1900 -0.2360  0.9530
     2 H(1)   Bbb    -0.0096    -5.117    -1.826    -1.707 -0.1303  0.9681  0.2138
              Bcc     0.0579    30.867    11.014    10.296  0.9731  0.0835  0.2147
 
              Baa    -0.0780   -10.464    -3.734    -3.490 -0.2082 -0.2920  0.9335
     3 C(13)  Bbb    -0.0665    -8.923    -3.184    -2.977  0.0169  0.9532  0.3020
              Bcc     0.1445    19.387     6.918     6.467  0.9779 -0.0786  0.1935
 
              Baa    -0.0229    -3.071    -1.096    -1.024 -0.2293 -0.2722  0.9345
     4 C(13)  Bbb    -0.0088    -1.175    -0.419    -0.392  0.5354  0.7665  0.3546
              Bcc     0.0316     4.247     1.515     1.416  0.8129 -0.5817  0.0300
 
              Baa    -0.0798     5.776     2.061     1.927  0.5723  0.7114  0.4078
     5 O(17)  Bbb     0.0169    -1.221    -0.436    -0.407 -0.0735 -0.4508  0.8896
              Bcc     0.0630    -4.555    -1.625    -1.519  0.8167 -0.5391 -0.2057
 
              Baa    -0.0227     1.640     0.585     0.547  0.3900  0.9175  0.0776
     6 O(17)  Bbb    -0.0025     0.178     0.063     0.059  0.6052 -0.3190  0.7293
              Bcc     0.0251    -1.818    -0.649    -0.606  0.6940 -0.2374 -0.6797
 
              Baa    -0.0021    -0.285    -0.102    -0.095 -0.0086 -0.3403  0.9403
     7 C(13)  Bbb    -0.0021    -0.278    -0.099    -0.093  0.4051  0.8585  0.3145
              Bcc     0.0042     0.563     0.201     0.188  0.9142 -0.3836 -0.1304
 
              Baa    -0.0014    -0.186    -0.066    -0.062  0.1874  0.9004 -0.3927
     8 C(13)  Bbb    -0.0012    -0.162    -0.058    -0.054  0.1108  0.3779  0.9192
              Bcc     0.0026     0.347     0.124     0.116  0.9760 -0.2158 -0.0290
 
              Baa    -0.0009    -0.500    -0.179    -0.167  0.1359 -0.6567  0.7418
     9 H(1)   Bbb    -0.0009    -0.455    -0.162    -0.152  0.3907  0.7236  0.5690
              Bcc     0.0018     0.955     0.341     0.319  0.9104 -0.2125 -0.3549
 
              Baa    -0.0012    -0.629    -0.224    -0.210  0.0227 -0.0590  0.9980
    10 H(1)   Bbb    -0.0007    -0.386    -0.138    -0.129  0.4141  0.9092  0.0444
              Bcc     0.0019     1.014     0.362     0.338  0.9100 -0.4122 -0.0451
 
              Baa    -0.0007    -0.392    -0.140    -0.131 -0.0797 -0.4568  0.8860
    11 H(1)   Bbb    -0.0006    -0.332    -0.119    -0.111  0.0515  0.8857  0.4613
              Bcc     0.0014     0.724     0.258     0.241  0.9955 -0.0824  0.0471
 
              Baa    -0.0017    -0.890    -0.318    -0.297  0.1324 -0.5544  0.8217
    12 H(1)   Bbb    -0.0014    -0.761    -0.272    -0.254 -0.0074  0.8284  0.5601
              Bcc     0.0031     1.652     0.589     0.551  0.9912  0.0802 -0.1056
 
              Baa    -0.0018    -0.948    -0.338    -0.316 -0.3022 -0.2757  0.9125
    13 H(1)   Bbb    -0.0014    -0.751    -0.268    -0.251  0.0968  0.9435  0.3171
              Bcc     0.0032     1.699     0.606     0.567  0.9483 -0.1841  0.2584
 
              Baa    -1.0835    78.401    27.975    26.152  0.2574 -0.4538  0.8531
    14 O(17)  Bbb    -1.0623    76.869    27.429    25.641  0.9030 -0.2012 -0.3795
              Bcc     2.1458  -155.270   -55.404   -51.793  0.3438  0.8681  0.3580
 
              Baa    -0.0756   -40.363   -14.402   -13.464  0.9162 -0.3260 -0.2330
    15 H(1)   Bbb    -0.0254   -13.566    -4.841    -4.525  0.3974  0.8134  0.4248
              Bcc     0.1011    53.929    19.243    17.989  0.0510 -0.4818  0.8748
 

 ---------------------------------------------------------------------------------

 Calling FoFJK, ICntrl=    100127 FMM=F ISym2X=0 I1Cent= 0 IOpClX= 1 NMat=1 NMatS=1 NMatT=0.
 Full mass-weighted force constant matrix:
 Low frequencies --- -693.4371  -16.7964   -0.0005    0.0004    0.0006   16.0958
 Low frequencies ---   29.7922   78.2758   88.6365
 ******    1 imaginary frequencies (negative Signs) ****** 
 Diagonal vibrational polarizability:
      324.0658642      35.3481497      22.7123537
 Harmonic frequencies (cm**-1), IR intensities (KM/Mole), Raman scattering
 activities (A**4/AMU), depolarization ratios for plane and unpolarized
 incident light, reduced masses (AMU), force constants (mDyne/A),
 and normal coordinates:
                      1                      2                      3
                      A                      A                      A
 Frequencies --   -693.4371                58.8066                79.6197
 Red. masses --     12.4151                 2.0508                 3.4136
 Frc consts  --      3.5173                 0.0042                 0.0127
 IR Inten    --      2.1804                27.6968                 2.7501
  Atom  AN      X      Y      Z        X      Y      Z        X      Y      Z
     1   6     0.05  -0.13  -0.01    -0.04  -0.00   0.15    -0.00   0.14  -0.02
     2   1     0.02   0.13   0.04    -0.06   0.07   0.23    -0.00   0.27  -0.03
     3   6     0.04   0.79   0.22    -0.00  -0.02   0.02     0.02   0.01  -0.00
     4   6    -0.01   0.02   0.00    -0.01  -0.03  -0.00    -0.01  -0.10  -0.01
     5   8    -0.02  -0.02  -0.02     0.00  -0.12  -0.06    -0.04  -0.11  -0.01
     6   8     0.00  -0.01  -0.00    -0.01   0.07   0.03     0.01  -0.14  -0.02
     7   6     0.00  -0.01  -0.00    -0.01   0.05   0.01     0.01   0.01   0.07
     8   6    -0.00  -0.00  -0.00     0.01   0.01   0.05    -0.18   0.23  -0.07
     9   1     0.00  -0.00  -0.00    -0.02   0.10   0.01     0.06  -0.12   0.09
    10   1     0.01  -0.00  -0.00    -0.00   0.04  -0.04     0.08   0.10   0.26
    11   1    -0.00  -0.00  -0.00     0.00  -0.01   0.05    -0.18   0.35   0.07
    12   1    -0.00  -0.00  -0.00     0.02   0.03   0.10    -0.23   0.14  -0.28
    13   1    -0.00   0.00  -0.00     0.00  -0.03   0.05    -0.28   0.38  -0.10
    14   8    -0.03  -0.47  -0.14    -0.01   0.04  -0.15     0.17  -0.03   0.06
    15   1     0.05  -0.17   0.02     0.84  -0.13  -0.32     0.29  -0.00   0.06
                      4                      5                      6
                      A                      A                      A
 Frequencies --    100.8668               133.0569               185.8537
 Red. masses --      2.4310                 2.0760                 1.8697
 Frc consts  --      0.0146                 0.0217                 0.0381
 IR Inten    --     29.7501                20.7561                 6.8233
  Atom  AN      X      Y      Z        X      Y      Z        X      Y      Z
     1   6     0.02   0.01  -0.16     0.02   0.03  -0.09    -0.03  -0.03   0.09
     2   1     0.05   0.06  -0.28     0.04   0.11  -0.16    -0.06  -0.03   0.23
     3   6    -0.02  -0.02   0.01     0.01  -0.02   0.02    -0.00   0.00  -0.06
     4   6    -0.02   0.00   0.06     0.01   0.01   0.03     0.01   0.04  -0.09
     5   8    -0.03  -0.04   0.04     0.08   0.13   0.08     0.00   0.11  -0.05
     6   8    -0.01   0.07   0.09    -0.05  -0.07  -0.06     0.05  -0.01  -0.09
     7   6    -0.01  -0.03   0.02    -0.03   0.03  -0.08     0.03  -0.06   0.05
     8   6     0.14   0.04  -0.16    -0.10  -0.06   0.06    -0.01  -0.01   0.03
     9   1    -0.06  -0.21  -0.02    -0.05   0.19  -0.08     0.14  -0.16   0.09
    10   1    -0.08   0.00   0.14     0.05  -0.01  -0.22    -0.06  -0.03   0.15
    11   1     0.13  -0.08  -0.16    -0.08   0.04  -0.03    -0.08  -0.27   0.42
    12   1     0.26   0.01  -0.30    -0.23  -0.03   0.22     0.38  -0.02  -0.22
    13   1     0.15   0.25  -0.13    -0.02  -0.27   0.07    -0.38   0.28  -0.11
    14   8    -0.11  -0.03   0.09     0.00  -0.04   0.05    -0.06  -0.03   0.08
    15   1     0.64  -0.07  -0.01     0.76  -0.10  -0.05     0.33  -0.00   0.05
                      7                      8                      9
                      A                      A                      A
 Frequencies --    226.1437               234.4754               280.7598
 Red. masses --      4.7721                 2.0389                 2.6450
 Frc consts  --      0.1438                 0.0660                 0.1228
 IR Inten    --     10.3748                 2.6689                 7.5219
  Atom  AN      X      Y      Z        X      Y      Z        X      Y      Z
     1   6    -0.09  -0.06  -0.05    -0.09   0.01   0.07    -0.08   0.24   0.01
     2   1    -0.08  -0.09  -0.08    -0.13   0.08   0.24    -0.12   0.75   0.10
     3   6    -0.08  -0.12  -0.04    -0.03  -0.04  -0.11    -0.00  -0.09  -0.00
     4   6    -0.06   0.02   0.02    -0.03   0.01  -0.07     0.03  -0.06   0.02
     5   8    -0.03   0.08   0.05    -0.10   0.08   0.00     0.09   0.00   0.04
     6   8    -0.10   0.16   0.06     0.05   0.00  -0.01     0.01  -0.03   0.01
     7   6    -0.10   0.10  -0.02     0.05  -0.01   0.05     0.03   0.05  -0.03
     8   6     0.06  -0.00   0.01     0.09   0.03  -0.01     0.06   0.01   0.02
     9   1    -0.15   0.11  -0.04     0.07  -0.07   0.06    -0.01   0.13  -0.04
    10   1    -0.14   0.07  -0.08     0.03   0.01   0.11     0.10   0.04  -0.09
    11   1    -0.00  -0.41   0.27     0.16   0.33  -0.44     0.04  -0.14   0.12
    12   1     0.52   0.06  -0.10    -0.34   0.01   0.17     0.23   0.04  -0.00
    13   1    -0.21   0.23  -0.09     0.49  -0.19   0.15    -0.04   0.06  -0.02
    14   8     0.34  -0.18  -0.06     0.03  -0.10   0.03    -0.12  -0.13  -0.07
    15   1    -0.04  -0.11   0.02     0.18  -0.02   0.06    -0.36  -0.13  -0.05
                     10                     11                     12
                      A                      A                      A
 Frequencies --    340.7081               434.8002               481.9264
 Red. masses --      3.0868                 3.4042                 1.4795
 Frc consts  --      0.2111                 0.3792                 0.2025
 IR Inten    --     12.3275                 2.3296                34.8910
  Atom  AN      X      Y      Z        X      Y      Z        X      Y      Z
     1   6    -0.01   0.04  -0.03     0.07  -0.00   0.04     0.04  -0.17  -0.04
     2   1    -0.00   0.15  -0.10     0.01   0.30   0.25    -0.07   0.94   0.24
     3   6    -0.02  -0.05   0.07     0.10  -0.03  -0.12     0.01   0.01   0.00
     4   6     0.02   0.05  -0.02     0.06   0.06   0.05    -0.01  -0.01  -0.01
     5   8     0.21   0.03  -0.10    -0.10  -0.01   0.07    -0.01   0.01  -0.00
     6   8    -0.04   0.14  -0.02     0.09   0.18   0.13    -0.03  -0.01  -0.02
     7   6    -0.10  -0.15   0.16     0.06  -0.10  -0.12    -0.03   0.01   0.02
     8   6    -0.08  -0.03   0.00    -0.18  -0.07  -0.09     0.01   0.01   0.01
     9   1     0.06  -0.45   0.20    -0.02  -0.07  -0.15    -0.01  -0.01   0.02
    10   1    -0.37  -0.10   0.40    -0.01  -0.14  -0.17    -0.04   0.02   0.03
    11   1    -0.04   0.19  -0.20    -0.18   0.24   0.19     0.01  -0.05  -0.04
    12   1    -0.35  -0.11  -0.04    -0.39  -0.15  -0.17     0.05   0.02   0.02
    13   1     0.11  -0.03   0.09    -0.42  -0.16  -0.21     0.06   0.02   0.03
    14   8     0.02  -0.04  -0.03    -0.01  -0.06  -0.00     0.02   0.06   0.02
    15   1    -0.08  -0.08  -0.04    -0.03   0.02   0.04    -0.03   0.06   0.02
                     13                     14                     15
                      A                      A                      A
 Frequencies --    573.0059               603.0336               709.9289
 Red. masses --      4.3088                 5.5047                 1.3219
 Frc consts  --      0.8335                 1.1794                 0.3925
 IR Inten    --      2.2446                10.9676                40.1695
  Atom  AN      X      Y      Z        X      Y      Z        X      Y      Z
     1   6    -0.19  -0.08  -0.08    -0.23  -0.08  -0.05     0.03   0.04  -0.14
     2   1    -0.15   0.24  -0.39    -0.32  -0.13   0.32    -0.18  -0.25   0.93
     3   6    -0.25  -0.04   0.27    -0.14   0.18  -0.33    -0.02  -0.01   0.07
     4   6    -0.03   0.08  -0.01    -0.04  -0.07   0.09     0.00  -0.01  -0.01
     5   8    -0.01   0.02  -0.06     0.29  -0.03   0.00    -0.01   0.00   0.00
     6   8     0.13   0.01   0.03     0.01  -0.07   0.18    -0.00   0.00   0.00
     7   6     0.25  -0.06  -0.06     0.03  -0.03   0.00     0.01  -0.00  -0.00
     8   6     0.01   0.00  -0.01    -0.01  -0.00  -0.02     0.00   0.00   0.00
     9   1     0.15   0.06  -0.10    -0.14   0.14  -0.06     0.00  -0.00  -0.00
    10   1     0.29  -0.09  -0.16     0.19  -0.05  -0.15     0.00  -0.00  -0.00
    11   1     0.01   0.30   0.27    -0.01   0.07   0.06     0.00   0.01   0.01
    12   1    -0.19  -0.07  -0.08    -0.04  -0.04  -0.09    -0.00  -0.00  -0.00
    13   1    -0.23  -0.09  -0.12    -0.07   0.03  -0.04    -0.00  -0.00  -0.00
    14   8     0.04   0.04   0.00     0.02   0.07   0.03     0.00   0.01  -0.00
    15   1     0.00  -0.17  -0.10     0.08   0.48   0.22    -0.01  -0.10  -0.05
                     16                     17                     18
                      A                      A                      A
 Frequencies --    769.2664               800.0150               891.5948
 Red. masses --      9.6311                 1.2148                 2.9031
 Frc consts  --      3.3580                 0.4581                 1.3597
 IR Inten    --     32.4688                 5.2676                19.4265
  Atom  AN      X      Y      Z        X      Y      Z        X      Y      Z
     1   6    -0.01   0.00  -0.01     0.03   0.01   0.01     0.05   0.01   0.01
     2   1    -0.06   0.14   0.20     0.04   0.01  -0.01     0.06   0.03  -0.03
     3   6    -0.00  -0.10  -0.09     0.02  -0.01   0.02     0.02  -0.01   0.02
     4   6     0.08   0.69   0.37    -0.03  -0.01  -0.05    -0.07   0.04  -0.09
     5   8    -0.02  -0.17  -0.14    -0.01   0.03  -0.04     0.01   0.08  -0.14
     6   8    -0.01  -0.19  -0.07     0.01  -0.01   0.04     0.10  -0.10   0.21
     7   6    -0.05  -0.01   0.03    -0.03  -0.04   0.06    -0.07   0.07   0.03
     8   6    -0.02   0.01   0.02    -0.01  -0.03   0.02    -0.09  -0.02  -0.10
     9   1    -0.05   0.21   0.05    -0.09   0.52   0.08    -0.26  -0.05  -0.06
    10   1     0.12  -0.03  -0.12     0.12  -0.21  -0.45     0.24   0.19   0.22
    11   1    -0.01  -0.12  -0.13     0.02   0.08  -0.17    -0.12  -0.42  -0.15
    12   1     0.10   0.01  -0.06    -0.06  -0.20  -0.40     0.16   0.17   0.27
    13   1     0.14   0.17   0.10     0.12   0.42   0.12    -0.01  -0.33  -0.09
    14   8     0.01  -0.11  -0.02    -0.00  -0.00   0.00     0.00   0.00   0.02
    15   1     0.06   0.07   0.06    -0.01  -0.06  -0.03    -0.05  -0.39  -0.17
                     19                     20                     21
                      A                      A                      A
 Frequencies --    918.5839               933.5786              1070.7079
 Red. masses --      2.4587                 1.2588                 4.0557
 Frc consts  --      1.2223                 0.6464                 2.7394
 IR Inten    --      1.1082                56.2709                24.6964
  Atom  AN      X      Y      Z        X      Y      Z        X      Y      Z
     1   6    -0.09  -0.01  -0.03     0.04   0.01  -0.00     0.07   0.01   0.02
     2   1    -0.10  -0.02  -0.03     0.04  -0.01   0.03     0.07   0.01   0.05
     3   6    -0.06   0.01   0.04     0.01  -0.05   0.07     0.03  -0.01  -0.03
     4   6     0.13  -0.03   0.01    -0.03   0.00  -0.03    -0.15   0.00   0.05
     5   8    -0.02  -0.04   0.08    -0.01   0.03  -0.04     0.02   0.00  -0.01
     6   8     0.15   0.05  -0.06    -0.00  -0.02   0.04    -0.21   0.04  -0.03
     7   6    -0.05   0.09   0.05    -0.00  -0.00   0.00     0.32   0.12   0.16
     8   6    -0.15  -0.08  -0.07     0.01   0.01  -0.01    -0.07  -0.14  -0.12
     9   1     0.26   0.17   0.19    -0.07  -0.01  -0.03     0.36   0.23   0.20
    10   1     0.00   0.11   0.08     0.05   0.01   0.01     0.39   0.18   0.25
    11   1    -0.14  -0.52  -0.51     0.00   0.01   0.04    -0.07  -0.25  -0.20
    12   1     0.17  -0.02  -0.10    -0.00   0.02   0.04    -0.03  -0.17  -0.20
    13   1     0.21   0.08   0.11    -0.03  -0.05  -0.03    -0.05  -0.24  -0.13
    14   8    -0.00   0.01  -0.01    -0.01  -0.04  -0.06     0.00  -0.01  -0.00
    15   1     0.05   0.24   0.10     0.14   0.89   0.38    -0.02  -0.01   0.00
                     22                     23                     24
                      A                      A                      A
 Frequencies --   1127.8148              1202.5004              1273.5755
 Red. masses --      2.0918                 1.7810                 4.5366
 Frc consts  --      1.5676                 1.5173                 4.3354
 IR Inten    --     20.8813                 9.5685               548.1990
  Atom  AN      X      Y      Z        X      Y      Z        X      Y      Z
     1   6    -0.01  -0.00  -0.00    -0.02  -0.00  -0.00    -0.09  -0.01  -0.02
     2   1    -0.01  -0.00  -0.01    -0.02  -0.00  -0.01    -0.09  -0.02  -0.06
     3   6    -0.01   0.00   0.01    -0.00   0.01  -0.00    -0.00   0.01   0.01
     4   6     0.03   0.00  -0.00     0.07  -0.00  -0.02     0.42   0.04  -0.17
     5   8    -0.00  -0.00   0.00    -0.01  -0.02   0.03    -0.06   0.01  -0.01
     6   8     0.05  -0.04  -0.02    -0.02   0.04  -0.06    -0.22  -0.05   0.11
     7   6    -0.11   0.18   0.10    -0.03  -0.10   0.16     0.12   0.04   0.03
     8   6     0.11  -0.14  -0.07     0.03   0.07  -0.11    -0.02  -0.04   0.06
     9   1    -0.09   0.08   0.10    -0.33   0.37   0.08    -0.63  -0.21  -0.30
    10   1    -0.20   0.16   0.08     0.29  -0.20  -0.26    -0.02   0.09   0.19
    11   1     0.10   0.39   0.31    -0.03  -0.14   0.26     0.00   0.01  -0.15
    12   1    -0.41  -0.31  -0.23    -0.01   0.24   0.35     0.01  -0.15  -0.24
    13   1    -0.37  -0.14  -0.29    -0.08  -0.41  -0.20     0.01   0.09   0.08
    14   8    -0.00   0.00   0.00    -0.00   0.00   0.00    -0.00   0.01   0.00
    15   1     0.00  -0.00  -0.00     0.01  -0.00  -0.00     0.04   0.01   0.00
                     25                     26                     27
                      A                      A                      A
 Frequencies --   1344.0357              1401.3263              1430.1343
 Red. masses --      1.1996                 1.2686                 1.3614
 Frc consts  --      1.2768                 1.4677                 1.6406
 IR Inten    --     64.2286                17.2679                12.5920
  Atom  AN      X      Y      Z        X      Y      Z        X      Y      Z
     1   6     0.01   0.00   0.00    -0.01  -0.00  -0.00    -0.01  -0.00  -0.00
     2   1     0.01   0.00   0.01    -0.01  -0.00  -0.01    -0.01  -0.00  -0.01
     3   6    -0.00  -0.00  -0.00     0.00   0.00   0.00     0.00   0.00   0.00
     4   6    -0.04  -0.01   0.02     0.05  -0.00  -0.01     0.04   0.00  -0.01
     5   8     0.01  -0.01   0.02    -0.01   0.01  -0.01    -0.01   0.01  -0.01
     6   8     0.04   0.04  -0.06    -0.04   0.00   0.03    -0.03   0.01   0.02
     7   6    -0.03  -0.01   0.00    -0.05  -0.03  -0.04    -0.08  -0.06  -0.06
     8   6    -0.00  -0.04   0.04    -0.02  -0.09  -0.07     0.08   0.06   0.06
     9   1    -0.54  -0.17  -0.23     0.35   0.22   0.16     0.42   0.22   0.18
    10   1     0.67   0.21   0.25     0.29   0.14   0.24     0.41   0.16   0.27
    11   1     0.01   0.07  -0.03    -0.00   0.40   0.30     0.06  -0.31  -0.19
    12   1    -0.02  -0.10  -0.09     0.17   0.14   0.37    -0.33  -0.13  -0.19
    13   1     0.02   0.17   0.08     0.21   0.36   0.09    -0.31  -0.16  -0.14
    14   8     0.00  -0.00   0.00    -0.00   0.00   0.00    -0.00   0.00   0.00
    15   1    -0.01  -0.00  -0.00     0.00  -0.00  -0.00     0.01  -0.00  -0.00
                     28                     29                     30
                      A                      A                      A
 Frequencies --   1491.1882              1501.7378              1514.2810
 Red. masses --      1.0403                 1.0530                 1.0923
 Frc consts  --      1.3630                 1.3992                 1.4758
 IR Inten    --     10.6868                 1.2425                19.0631
  Atom  AN      X      Y      Z        X      Y      Z        X      Y      Z
     1   6     0.00   0.00   0.00    -0.00  -0.00  -0.00     0.01   0.00   0.00
     2   1     0.00   0.00   0.00    -0.00  -0.00  -0.00     0.01   0.00   0.00
     3   6    -0.00   0.00   0.00     0.00  -0.00   0.00    -0.00  -0.00  -0.00
     4   6    -0.00   0.00  -0.00     0.01  -0.00   0.00    -0.02   0.00  -0.00
     5   8     0.00  -0.00   0.00    -0.00   0.00  -0.00     0.01  -0.01   0.01
     6   8     0.00   0.00  -0.00    -0.01   0.00   0.00     0.02  -0.00  -0.01
     7   6    -0.01  -0.02   0.01     0.00   0.03   0.03     0.05  -0.04  -0.02
     8   6    -0.02  -0.01   0.04     0.03  -0.03  -0.00     0.02  -0.02  -0.00
     9   1    -0.00   0.14   0.03     0.11  -0.38   0.03    -0.29   0.48  -0.11
    10   1    -0.00   0.00   0.07     0.17  -0.11  -0.37    -0.38   0.05   0.41
    11   1     0.08   0.48  -0.44     0.04  -0.05  -0.34     0.02  -0.13  -0.19
    12   1     0.56   0.08  -0.07    -0.14   0.11   0.42    -0.19   0.07   0.30
    13   1    -0.34  -0.27  -0.15    -0.39   0.39  -0.15    -0.23   0.32  -0.08
    14   8     0.00   0.00  -0.00    -0.00   0.00  -0.00    -0.00  -0.00  -0.00
    15   1    -0.00  -0.00  -0.00     0.00   0.00   0.00    -0.00   0.00   0.00
                     31                     32                     33
                      A                      A                      A
 Frequencies --   1853.1313              1977.7388              3076.1483
 Red. masses --     11.5787                 7.0600                 1.0354
 Frc consts  --     23.4273                16.2702                 5.7728
 IR Inten    --    329.8618                50.7092                 8.9545
  Atom  AN      X      Y      Z        X      Y      Z        X      Y      Z
     1   6    -0.15  -0.02  -0.04    -0.39  -0.06  -0.10    -0.00  -0.00  -0.00
     2   1    -0.23  -0.05  -0.03    -0.64  -0.11  -0.16    -0.00   0.00  -0.00
     3   6     0.18   0.01   0.02     0.56  -0.02   0.12     0.00   0.00   0.00
     4   6     0.19  -0.37   0.62    -0.15   0.09  -0.11     0.00   0.00  -0.00
     5   8    -0.16   0.25  -0.41     0.03  -0.04   0.06     0.00   0.00   0.00
     6   8     0.01   0.03  -0.06    -0.00  -0.00   0.01    -0.00  -0.00   0.00
     7   6     0.03  -0.01   0.02     0.00   0.00  -0.00    -0.00   0.00   0.00
     8   6    -0.01   0.01   0.00     0.00  -0.00  -0.00    -0.02  -0.04  -0.03
     9   1    -0.16   0.09  -0.06     0.02  -0.01   0.00     0.00  -0.00  -0.01
    10   1    -0.13  -0.04   0.08     0.01   0.00  -0.01     0.00  -0.02   0.01
    11   1    -0.00  -0.02  -0.06     0.00   0.00   0.01     0.62  -0.06   0.06
    12   1     0.04   0.01  -0.00    -0.00  -0.00   0.00    -0.13   0.52  -0.22
    13   1    -0.04  -0.05  -0.01     0.01   0.01   0.00    -0.22  -0.06   0.46
    14   8    -0.00   0.02   0.00    -0.00   0.04   0.01     0.00   0.00   0.00
    15   1    -0.02   0.02   0.01    -0.01   0.02   0.01    -0.00  -0.00  -0.00
                     34                     35                     36
                      A                      A                      A
 Frequencies --   3108.0578              3151.9413              3155.3960
 Red. masses --      1.0609                 1.1017                 1.1047
 Frc consts  --      6.0382                 6.4484                 6.4803
 IR Inten    --     19.4946                14.1699                 2.8261
  Atom  AN      X      Y      Z        X      Y      Z        X      Y      Z
     1   6    -0.00  -0.00  -0.00    -0.00  -0.00  -0.00    -0.00  -0.00  -0.00
     2   1     0.00  -0.00   0.00     0.00  -0.00   0.00    -0.00  -0.00  -0.00
     3   6     0.00  -0.00  -0.00     0.00   0.00   0.00     0.00  -0.00  -0.00
     4   6    -0.00  -0.00   0.00    -0.00  -0.00   0.00     0.00  -0.00   0.00
     5   8    -0.00   0.00  -0.00     0.00   0.00  -0.00    -0.00   0.00  -0.00
     6   8     0.00   0.00  -0.00    -0.00   0.00  -0.00    -0.00  -0.00  -0.00
     7   6     0.03  -0.06  -0.02     0.01   0.01  -0.03    -0.01  -0.03   0.04
     8   6    -0.01   0.01  -0.00     0.06  -0.06   0.03     0.06   0.01  -0.05
     9   1    -0.21  -0.06   0.50    -0.13  -0.03   0.31     0.17   0.04  -0.39
    10   1    -0.14   0.75  -0.31     0.01  -0.06   0.02    -0.06   0.33  -0.13
    11   1     0.12  -0.02   0.01    -0.61   0.05  -0.05    -0.44   0.04  -0.05
    12   1     0.01  -0.06   0.03    -0.14   0.64  -0.26     0.04  -0.10   0.03
    13   1     0.01   0.01  -0.03     0.03  -0.01  -0.03    -0.28  -0.07   0.62
    14   8     0.00  -0.00  -0.00     0.00   0.00  -0.00     0.00  -0.00  -0.00
    15   1    -0.00   0.00   0.00    -0.00   0.00   0.00    -0.00  -0.00   0.00
                     37                     38                     39
                      A                      A                      A
 Frequencies --   3175.7642              3458.7400              3836.6804
 Red. masses --      1.1071                 1.1335                 1.0676
 Frc consts  --      6.5788                 7.9895                 9.2594
 IR Inten    --     14.2626                79.6284                58.4728
  Atom  AN      X      Y      Z        X      Y      Z        X      Y      Z
     1   6    -0.00  -0.00  -0.00    -0.10  -0.01  -0.02     0.00   0.00   0.00
     2   1     0.00   0.00   0.00     0.97   0.04   0.21    -0.00  -0.00  -0.00
     3   6    -0.00  -0.00   0.00     0.02   0.00   0.00    -0.00  -0.00  -0.00
     4   6    -0.00   0.00  -0.00    -0.00   0.00   0.00    -0.00   0.00  -0.00
     5   8     0.00  -0.00   0.00     0.00  -0.00  -0.00     0.00  -0.00   0.00
     6   8     0.00  -0.00   0.00     0.00  -0.00  -0.00     0.00   0.00  -0.00
     7   6     0.02   0.04  -0.06    -0.00  -0.00   0.00    -0.00   0.00   0.00
     8   6     0.02   0.03  -0.05    -0.00  -0.00   0.00     0.00  -0.00   0.00
     9   1    -0.24  -0.05   0.58     0.00   0.00  -0.00     0.00   0.00  -0.00
    10   1     0.07  -0.39   0.14     0.00   0.00   0.00     0.00  -0.00   0.00
    11   1    -0.07   0.01  -0.02     0.00   0.00   0.00     0.00   0.00   0.00
    12   1     0.08  -0.35   0.13    -0.00   0.00  -0.00    -0.00   0.00  -0.00
    13   1    -0.21  -0.04   0.46    -0.00  -0.00  -0.00    -0.00  -0.00  -0.00
    14   8    -0.00   0.00  -0.00     0.00   0.00   0.00    -0.01   0.03  -0.06
    15   1     0.00  -0.00   0.00    -0.00  -0.00   0.00     0.09  -0.43   0.90

 -------------------
 - Thermochemistry -
 -------------------
 Temperature   298.150 Kelvin.  Pressure   1.00000 Atm.
 Atom     1 has atomic number  6 and mass  12.00000
 Atom     2 has atomic number  1 and mass   1.00783
 Atom     3 has atomic number  6 and mass  12.00000
 Atom     4 has atomic number  6 and mass  12.00000
 Atom     5 has atomic number  8 and mass  15.99491
 Atom     6 has atomic number  8 and mass  15.99491
 Atom     7 has atomic number  6 and mass  12.00000
 Atom     8 has atomic number  6 and mass  12.00000
 Atom     9 has atomic number  1 and mass   1.00783
 Atom    10 has atomic number  1 and mass   1.00783
 Atom    11 has atomic number  1 and mass   1.00783
 Atom    12 has atomic number  1 and mass   1.00783
 Atom    13 has atomic number  1 and mass   1.00783
 Atom    14 has atomic number  8 and mass  15.99491
 Atom    15 has atomic number  1 and mass   1.00783
 Molecular mass:   115.03952 amu.
 Principal axes and moments of inertia in atomic units:
                           1         2         3
     Eigenvalues --   484.448771377.009921522.25518
           X            0.99988   0.01237   0.00879
           Y           -0.01259   0.99960   0.02539
           Z           -0.00847  -0.02550   0.99964
 This molecule is an asymmetric top.
 Rotational symmetry number  1.
 Warning -- assumption of classical behavior for rotation
           may cause significant error
 Rotational temperatures (Kelvin)      0.17879     0.06290     0.05690
 Rotational constants (GHZ):           3.72535     1.31062     1.18557
    1 imaginary frequencies ignored.
 Zero-point vibrational energy     292528.4 (Joules/Mol)
                                   69.91596 (Kcal/Mol)
 Warning -- explicit consideration of  13 degrees of freedom as
           vibrations may cause significant error
 Vibrational temperatures:     84.61   114.55   145.12   191.44   267.40
          (Kelvin)            325.37   337.36   403.95   490.20   625.58
                              693.38   824.43   867.63  1021.43  1106.80
                             1151.04  1282.81  1321.64  1343.21  1540.51
                             1622.67  1730.13  1832.39  1933.77  2016.20
                             2057.64  2145.49  2160.67  2178.71  2666.24
                             2845.53  4425.89  4471.80  4534.94  4539.91
                             4569.22  4976.36  5520.13
 
 Zero-point correction=                           0.111418 (Hartree/Particle)
 Thermal correction to Energy=                    0.121073
 Thermal correction to Enthalpy=                  0.122017
 Thermal correction to Gibbs Free Energy=         0.075771
 Sum of electronic and zero-point Energies=           -420.094359
 Sum of electronic and thermal Energies=              -420.084704
 Sum of electronic and thermal Enthalpies=            -420.083760
 Sum of electronic and thermal Free Energies=         -420.130006
 
                     E (Thermal)             CV                S
                      KCal/Mol        Cal/Mol-Kelvin    Cal/Mol-Kelvin
 Total                   75.975             32.439             97.334
 Electronic               0.000              0.000              1.377
 Translational            0.889              2.981             40.136
 Rotational               0.889              2.981             28.409
 Vibrational             74.197             26.477             27.412
 Vibration     1          0.596              1.974              4.497
 Vibration     2          0.600              1.963              3.900
 Vibration     3          0.604              1.948              3.437
 Vibration     4          0.613              1.920              2.901
 Vibration     5          0.632              1.859              2.269
 Vibration     6          0.650              1.801              1.909
 Vibration     7          0.654              1.788              1.844
 Vibration     8          0.680              1.709              1.529
 Vibration     9          0.720              1.594              1.209
 Vibration    10          0.795              1.394              0.843
 Vibration    11          0.838              1.290              0.705
 Vibration    12          0.929              1.090              0.498
 Vibration    13          0.961              1.025              0.444
                       Q            Log10(Q)             Ln(Q)
 Total Bot       0.140543D-34        -34.852189        -80.250131
 Total V=0       0.249211D+17         16.396567         37.754490
 Vib (Bot)       0.401675D-48        -48.396126       -111.436197
 Vib (Bot)    1  0.351203D+01          0.545559          1.256195
 Vib (Bot)    2  0.258674D+01          0.412753          0.950399
 Vib (Bot)    3  0.203430D+01          0.308414          0.710150
 Vib (Bot)    4  0.153098D+01          0.184969          0.425907
 Vib (Bot)    5  0.107848D+01          0.032811          0.075550
 Vib (Bot)    6  0.872401D+00         -0.059284         -0.136506
 Vib (Bot)    7  0.838337D+00         -0.076582         -0.176336
 Vib (Bot)    8  0.684516D+00         -0.164617         -0.379044
 Vib (Bot)    9  0.544753D+00         -0.263801         -0.607423
 Vib (Bot)   10  0.399227D+00         -0.398780         -0.918225
 Vib (Bot)   11  0.346463D+00         -0.460343         -1.059979
 Vib (Bot)   12  0.267795D+00         -0.572198         -1.317535
 Vib (Bot)   13  0.246841D+00         -0.607583         -1.399011
 Vib (V=0)       0.712247D+03          2.852630          6.568424
 Vib (V=0)    1  0.404745D+01          0.607181          1.398086
 Vib (V=0)    2  0.313462D+01          0.496185          1.142508
 Vib (V=0)    3  0.259484D+01          0.414111          0.953525
 Vib (V=0)    4  0.211056D+01          0.324397          0.746952
 Vib (V=0)    5  0.168874D+01          0.227564          0.523985
 Vib (V=0)    6  0.150553D+01          0.177688          0.409143
 Vib (V=0)    7  0.147612D+01          0.169121          0.389416
 Vib (V=0)    8  0.134768D+01          0.129587          0.298385
 Vib (V=0)    9  0.123943D+01          0.093222          0.214651
 Vib (V=0)   10  0.113983D+01          0.056840          0.130879
 Vib (V=0)   11  0.110831D+01          0.044660          0.102833
 Vib (V=0)   12  0.106720D+01          0.028245          0.065037
 Vib (V=0)   13  0.105761D+01          0.024326          0.056013
 Electronic      0.200000D+01          0.301030          0.693147
 Translational   0.484981D+08          7.685724         17.697035
 Rotational      0.360730D+06          5.557182         12.795884
 ***** Axes restored to original set *****
 -------------------------------------------------------------------
 Center     Atomic                   Forces (Hartrees/Bohr)
 Number     Number              X              Y              Z
 -------------------------------------------------------------------
      1        6           0.001607904   -0.004387174   -0.000428353
      2        1           0.000063072   -0.000049364   -0.000008244
      3        6           0.001375397    0.032016572    0.008993267
      4        6          -0.000435150    0.000972890    0.000170258
      5        8          -0.001216100   -0.000949323   -0.000896149
      6        8           0.000125321   -0.000701372   -0.000243119
      7        6           0.000163641   -0.000240780   -0.000127323
      8        6          -0.000119385   -0.000062511   -0.000067419
      9        1           0.000020692   -0.000007612   -0.000004945
     10        1           0.000025514   -0.000013271   -0.000008288
     11        1          -0.000011353   -0.000003847    0.000000080
     12        1          -0.000017331   -0.000005908   -0.000006840
     13        1          -0.000017549   -0.000002428   -0.000001936
     14        8          -0.001715423   -0.025901553   -0.007527308
     15        1           0.000150751   -0.000664319    0.000156320
 -------------------------------------------------------------------
 Cartesian Forces:  Max     0.032016572 RMS     0.006439249

 GradGradGradGradGradGradGradGradGradGradGradGradGradGradGradGradGradGrad
 Berny optimization.
 Search for a local minimum.
 Step number   1 out of a maximum of    2
 All quantities printed in internal units (Hartrees-Bohrs-Radians)
 Second derivative matrix not updated -- analytic derivatives used.
 ITU=  0
     Eigenvalues ---   -0.23693   0.00021   0.00110   0.00162   0.00174
     Eigenvalues ---    0.00370   0.00697   0.01065   0.01893   0.02213
     Eigenvalues ---    0.03197   0.03584   0.03613   0.05209   0.06348
     Eigenvalues ---    0.07297   0.07714   0.08611   0.09975   0.10244
     Eigenvalues ---    0.11572   0.14200   0.17014   0.18145   0.20619
     Eigenvalues ---    0.28521   0.29306   0.43056   0.49386   0.62265
     Eigenvalues ---    0.69173   0.76460   0.79249   0.86127   0.87991
     Eigenvalues ---    0.92469   0.97954   1.76074   2.11671
 Eigenvalue     1 is  -2.37D-01 should be greater than     0.000000 Eigenvector:
                          Y3        Y14       Z3        Z14       Y1
   1                    0.77719  -0.54104   0.21087  -0.18096  -0.12194
                          Y15       Z15       X3        X14       X1
   1                   -0.05272   0.04822   0.03458  -0.03395   0.03147
 Quadratic step=4.561D-01 exceeds max=3.000D-01 adjusted using Lamda=-1.691D-04.
 Angle between NR and scaled steps=  15.33 degrees.
 Angle between quadratic step and forces=  52.29 degrees.
 Linear search not attempted -- first point.
 B after Tr=     0.004995    0.004068    0.000358
         Rot=    0.999999    0.001004    0.000117    0.000709 Ang=   0.14 deg.
 Variable       Old X    -DE/DX   Delta X   Delta X   Delta X     New X
                                 (Linear)    (Quad)   (Total)
    X1       -5.28658   0.00161   0.00000   0.01167   0.01568  -5.27089
    Y1       -0.83083  -0.00439   0.00000   0.00090   0.01084  -0.81999
    Z1       -0.77999  -0.00043   0.00000  -0.02260  -0.02182  -0.80181
    X2       -7.25592   0.00006   0.00000   0.01934   0.02323  -7.23270
    Y2       -0.91859  -0.00005   0.00000  -0.07245  -0.06062  -0.97921
    Z2       -1.19373  -0.00001   0.00000  -0.05526  -0.05462  -1.24836
    X3       -3.07128   0.00138   0.00000   0.00978   0.01451  -3.05677
    Y3       -0.36747   0.03202   0.00000   0.14958   0.15766  -0.20981
    Z3       -0.19746   0.00899   0.00000   0.03245   0.03252  -0.16493
    X4       -0.41543  -0.00044   0.00000   0.00213   0.00548  -0.40995
    Y4       -1.13148   0.00097   0.00000   0.01827   0.02348  -1.10800
    Z4        0.27369   0.00017   0.00000   0.00382   0.00631   0.28000
    X5        0.26153  -0.00122   0.00000  -0.00437  -0.00303   0.25850
    Y5       -2.25531  -0.00095   0.00000   0.03365   0.04163  -2.21368
    Z5        2.11326  -0.00090   0.00000   0.01543   0.02031   2.13356
    X6        1.06065   0.00013   0.00000   0.00583   0.01073   1.07138
    Y6       -0.31239  -0.00070   0.00000  -0.01589  -0.01654  -0.32893
    Z6       -1.58734  -0.00024   0.00000  -0.00705  -0.00578  -1.59312
    X7        3.74360   0.00016   0.00000   0.00521   0.00961   3.75321
    Y7       -0.60286  -0.00024   0.00000  -0.01559  -0.01923  -0.62209
    Z7       -1.19284  -0.00013   0.00000  -0.00251  -0.00003  -1.19287
    X8        4.72814  -0.00012   0.00000   0.00620   0.01306   4.74120
    Y8        1.42487  -0.00006   0.00000  -0.01212  -0.01363   1.41124
    Z8        0.57489  -0.00007   0.00000  -0.00653  -0.00789   0.56700
    X9        4.54827   0.00002   0.00000   0.00651   0.01158   4.55985
    Y9       -0.43469  -0.00001   0.00000  -0.02020  -0.02878  -0.46347
    Z9       -3.07824  -0.00000   0.00000  -0.00211   0.00024  -3.07800
   X10        4.10348   0.00003   0.00000   0.00210   0.00364   4.10712
   Y10       -2.49401  -0.00001   0.00000  -0.01390  -0.01656  -2.51057
   Z10       -0.45760  -0.00001   0.00000   0.00281   0.00917  -0.44843
   X11        6.77389  -0.00001   0.00000   0.00662   0.01318   6.78707
   Y11        1.23988  -0.00000   0.00000  -0.01019  -0.01422   1.22565
   Z11        0.76747   0.00000   0.00000  -0.00931  -0.00982   0.75765
   X12        4.30216  -0.00002   0.00000   0.00331   0.01300   4.31516
   Y12        3.29863  -0.00001   0.00000  -0.01358  -0.01599   3.28264
   Z12       -0.17086  -0.00001   0.00000  -0.00879  -0.01400  -0.18486
   X13        3.87593  -0.00002   0.00000   0.00896   0.01512   3.89105
   Y13        1.23836  -0.00000   0.00000  -0.00978  -0.00634   1.23202
   Z13        2.44130  -0.00000   0.00000  -0.00514  -0.00633   2.43497
   X14       -2.77271  -0.00172   0.00000   0.01566   0.02456  -2.74815
   Y14        2.98461  -0.02590   0.00000  -0.10800  -0.09848   2.88613
   Z14        0.78366  -0.00753   0.00000  -0.01266  -0.01873   0.76494
   X15       -2.93435   0.00015   0.00000  -0.18095  -0.17034  -3.10468
   Y15        3.78174  -0.00066   0.00000   0.04986   0.05678   3.83852
   Z15       -0.85470   0.00016   0.00000   0.07851   0.07045  -0.78425
         Item               Value     Threshold  Converged?
 Maximum Force            0.032017     0.000450     NO 
 RMS     Force            0.006439     0.000300     NO 
 Maximum Displacement     0.170337     0.001800     NO 
 RMS     Displacement     0.044430     0.001200     NO 
 Predicted change in Energy=-1.176062D-02
 GradGradGradGradGradGradGradGradGradGradGradGradGradGradGradGradGradGrad


 ----------------------------------------------------------------------

 Electric dipole moment (input orientation):
 (Debye = 10**-18 statcoulomb cm , SI units = C m)
                  (au)            (Debye)         (10**-30 SI)
   Tot        0.125836D+01      0.319842D+01      0.106688D+02
   x          0.112821D-01      0.286763D-01      0.956540D-01
   y          0.289125D-01      0.734883D-01      0.245131D+00
   z         -0.125797D+01     -0.319745D+01     -0.106655D+02

 Dipole polarizability, Alpha (input orientation).
 (esu units = cm**3 , SI units = C**2 m**2 J**-1)
 Alpha(0;0):
               (au)            (10**-24 esu)      (10**-40 SI)
   iso        0.735202D+02      0.108946D+02      0.121218D+02
   aniso      0.308614D+02      0.457319D+01      0.508836D+01
   xx         0.894169D+02      0.132502D+02      0.147429D+02
   yx         0.703271D+01      0.104214D+01      0.115954D+01
   yy         0.725237D+02      0.107469D+02      0.119576D+02
   zx         0.519783D+01      0.770239D+00      0.857006D+00
   zy         0.177201D+01      0.262585D+00      0.292165D+00
   zz         0.586199D+02      0.868657D+01      0.966511D+01

 ----------------------------------------------------------------------

 Dipole orientation:
     6         -5.29327387          0.84799065          0.71326499
     1         -7.26623927          0.94502607          1.10721033
     6         -3.07289208          0.37159767          0.16141584
     6         -0.41284086          1.12485122         -0.30332591
     8          0.28070312          2.20618336         -2.16208733
     8          1.04640817          0.34888880          1.58918878
     6          3.73282102          0.63049224          1.21219042
     6          4.73295950         -1.43721619         -0.49958582
     1          4.52053340          0.50577453          3.10809949
     1          4.09947094          2.50428593          0.43694741
     1          6.78037053         -1.25648435         -0.67801613
     1          4.30011339         -3.29338675          0.28517232
     1          3.89753132         -1.29373009         -2.37735288
     8         -2.76587997         -3.00211799         -0.73970723
     1         -2.94228058         -3.76140675          0.91501884

 Electric dipole moment (dipole orientation):
 (Debye = 10**-18 statcoulomb cm , SI units = C m)
                  (au)            (Debye)         (10**-30 SI)
   Tot        0.125836D+01      0.319842D+01      0.106688D+02
   x          0.000000D+00      0.000000D+00      0.000000D+00
   y          0.000000D+00      0.000000D+00      0.000000D+00
   z          0.125836D+01      0.319842D+01      0.106688D+02

 Dipole polarizability, Alpha (dipole orientation).
 (esu units = cm**3 , SI units = C**2 m**2 J**-1)
 Alpha(0;0):
               (au)            (10**-24 esu)      (10**-40 SI)
   iso        0.735202D+02      0.108946D+02      0.121218D+02
   aniso      0.308614D+02      0.457319D+01      0.508836D+01
   xx         0.895062D+02      0.132635D+02      0.147576D+02
   yx        -0.716126D+01     -0.106119D+01     -0.118073D+01
   yy         0.725963D+02      0.107577D+02      0.119695D+02
   zx        -0.475743D+01     -0.704978D+00     -0.784393D+00
   zy         0.138610D+01      0.205398D+00      0.228536D+00
   zz         0.584580D+02      0.866258D+01      0.963842D+01

 ----------------------------------------------------------------------
 1\1\GINC-AJ\Freq\UM062X\6-311++G(d,p)\C5H7O3(2)\AAYUSH\23-Jun-2025\0\\
 # freq 6-311++g(d,p) m062x\\Title Card Required\\0,2\C,-2.797537,-0.43
 9658,-0.412753\H,-3.839669,-0.486096,-0.631697\C,-1.625253,-0.194459,-
 0.104489\C,-0.219835,-0.598754,0.144829\O,0.138398,-1.193457,1.118287\
 O,0.561272,-0.16531,-0.839984\C,1.98103,-0.319019,-0.631224\C,2.502025
 ,0.754009,0.304219\H,2.406841,-0.23003,-1.628937\H,2.171469,-1.319772,
 -0.242151\H,3.584588,0.656114,0.406128\H,2.276604,1.745558,-0.090416\H
 ,2.051052,0.655314,1.29188\O,-1.467255,1.57939,0.414696\H,-1.552789,2.
 001211,-0.452286\\Version=ES64L-G16RevA.03\State=2-A\HF=-420.205777\S2
 =0.786575\S2-1=0.\S2A=0.750579\RMSD=6.062e-09\RMSF=6.439e-03\ZeroPoint
 =0.1114182\Thermal=0.1210732\Dipole=0.0112821,0.0289125,-1.2579735\Dip
 oleDeriv=-0.2746699,0.3188346,0.0515795,0.0336882,-0.0423748,0.0261747
 ,-0.084086,0.0764232,-0.1169339,0.2767065,0.018339,0.0088576,0.047986,
 0.215358,0.0068439,0.0365181,-0.0028888,0.2320523,-0.2436714,-0.251211
 5,-0.0891032,0.0223858,-0.3085508,-0.0492101,0.0222904,-0.1249586,-0.0
 993056,2.0072783,-0.2708395,-0.1653307,-0.0033602,0.7903827,-0.596634,
 -0.5111466,-0.6398777,1.4279296,-0.7973671,0.2136204,-0.1760319,0.0510
 852,-0.5985202,0.3566348,0.0307979,0.4068859,-0.8806945,-1.6278644,-0.
 1322437,0.3395924,-0.1553395,-0.3973622,0.1863562,0.4802588,0.2074032,
 -0.8062192,0.9988222,0.0910913,-0.053083,0.0039166,0.2883755,0.0772175
 ,0.0640141,0.025792,0.3179559,-0.065743,-0.0306736,0.0300372,-0.045422
 7,-0.0173758,-0.0823729,-0.0349047,-0.05465,-0.0446296,-0.0238821,-0.0
 086511,0.0250129,-0.0233728,0.0680298,0.0047576,0.0634491,-0.020999,-0
 .0884827,-0.0189379,-0.0376979,0.0115403,0.0365952,-0.0694404,-0.00206
 72,-0.0576324,0.0364067,0.0557287,-0.1276288,0.000325,-0.0197301,0.014
 1309,0.0688309,-0.0050828,-0.0194951,-0.0174125,0.0922987,0.0813212,0.
 0528008,-0.0294355,0.006161,-0.0703731,0.0247659,-0.0319273,0.0534866,
 0.0263631,0.0766254,-0.0006914,0.0689519,-0.0165054,0.0450795,0.014291
 8,0.0474144,-0.0121598,-0.028559,-0.5400364,0.0823938,0.0214077,0.0332
 565,-0.2894074,0.0190304,0.0406854,0.152728,-0.1930857,0.2790473,-0.04
 53961,-0.0242651,-0.0052046,0.3173484,0.0192943,-0.0462362,-0.0861791,
 0.105582\Polar=89.4169475,7.0327065,72.5237485,5.1978297,1.7720125,58.
 6198753\Quadrupole=8.6486129,-3.5243705,-5.1242424,1.5885873,2.6407228
 ,-0.2930796\PG=C01 [X(C5H7O3)]\NImag=1\\1.19161752,0.13879172,0.057006
 45,0.27393563,0.03069243,0.11594117,-0.40227934,-0.02341683,-0.0817176
 8,0.39389365,-0.00855607,-0.01025732,0.00194206,0.01957015,0.00847138,
 -0.07741954,-0.00115333,-0.04019216,0.08054179,0.00198861,0.03179471,-
 0.78121671,-0.10861486,-0.18777708,0.00785679,-0.01180290,-0.00163818,
 1.08161722,-0.01559869,0.01193518,0.00708095,0.00254884,-0.00294233,-0
 .00081046,-0.04123753,-0.10170910,-0.16458243,-0.01089033,-0.07261624,
 0.00164572,-0.00399513,0.00306112,0.19132412,-0.08077717,0.15237706,0.
 00664321,0.00582032,0.00321448,-0.00061094,0.00058357,-0.00217415,-0.2
 2182782,0.03268884,-0.02730409,0.63904212,-0.02878723,-0.00532351,-0.0
 0787267,-0.00039159,0.00318276,-0.00029989,0.05355360,-0.04006994,0.01
 183257,-0.11115965,0.42505335,-0.01083370,-0.00109397,-0.00107880,-0.0
 0100252,-0.00018506,0.00568354,-0.00776734,0.00737426,-0.05926052,0.09
 517662,-0.33741911,0.78410837,-0.00268973,0.00104405,-0.00065066,0.000
 26424,-0.00044987,0.00155540,-0.01921375,0.02287115,-0.03871672,-0.179
 42133,0.11581536,-0.17933725,0.17252355,0.00301319,0.00042616,0.001051
 33,0.00011091,-0.00026699,-0.00097050,0.02219368,0.00041919,0.02434427
 ,0.10838667,-0.25325605,0.28223727,-0.12478130,0.25314604,0.00178997,0
 .00082103,0.00124361,0.00004770,-0.00025208,-0.00002808,-0.02936184,0.
 01838409,-0.01435494,-0.17346030,0.28204040,-0.53709433,0.18573179,-0.
 35940318,0.62970466,-0.00700857,0.00060714,-0.00188912,0.00087537,0.00
 050437,-0.00106816,-0.05097029,-0.00723841,0.03422026,-0.18964754,-0.0
 3560031,0.09120589,0.02782744,-0.01269805,0.02582313,0.49260750,0.0007
 0599,0.00054492,0.00019646,-0.00002005,-0.00027651,0.00016557,0.002806
 71,0.00794884,-0.00076159,-0.02739003,-0.09752706,0.06270370,-0.014252
 16,0.00188657,0.05626182,0.01998681,0.15406765,0.00239139,0.00065502,0
 .00080204,-0.00007700,-0.00017696,-0.00071816,0.00841602,-0.00022509,0
 .00371421,0.07040719,0.06257663,-0.19755770,0.02478109,0.05633860,-0.0
 7947121,-0.09236686,-0.13239305,0.35540304,0.00187403,0.00002618,0.000
 69623,-0.00036368,-0.00007038,-0.00002831,0.00178373,-0.00243388,-0.00
 077315,-0.05297807,-0.01210250,0.03454027,-0.00093007,0.01027785,-0.01
 757033,-0.17618421,0.01779930,-0.01393779,0.44847064,0.00133574,0.0003
 4625,0.00013955,0.00003730,-0.00009677,0.00000910,-0.00122253,0.001962
 53,0.00240901,-0.01266812,0.00690305,-0.01017867,0.00214210,-0.0056586
 2,0.00063280,0.02557529,-0.07638743,0.01703530,-0.00893740,0.58252813,
 0.00135642,-0.00008368,0.00045380,-0.00000926,-0.00007247,0.00028209,0
 .00441277,0.00280690,-0.00253821,0.03363386,-0.00729364,0.00709487,0.0
 0167324,-0.00122723,-0.00364419,-0.03499563,0.01694748,-0.08902885,-0.
 06142861,-0.05053882,0.61294084,0.00005053,0.00007860,0.00001838,0.000
 08451,0.00000026,0.00000042,-0.00039515,0.00078720,0.00088824,0.001612
 65,0.00103691,-0.00930896,0.00084783,-0.00213899,0.00223080,-0.0385772
 5,-0.02946153,-0.02426615,-0.08096387,-0.02110694,-0.01444513,0.575618
 61,0.00021248,-0.00004847,0.00007132,-0.00000591,0.00000420,-0.0000149
 7,-0.00029141,-0.00015555,-0.00030027,-0.00104016,-0.00138837,0.002886
 54,-0.00079943,0.00058783,-0.00156357,0.00129793,0.00712300,0.00114582
 ,-0.03101189,-0.15750115,-0.06148244,-0.02629485,0.54084825,0.00013051
 ,0.00003567,-0.00000103,0.00000796,-0.00002088,-0.00000466,-0.00046058
 ,0.00014625,0.00010983,0.00134136,0.00018417,0.00339553,-0.00148230,-0
 .00124119,-0.00128726,-0.00724452,-0.00172198,-0.00151389,-0.02181155,
 -0.06005716,-0.13683732,-0.02350222,-0.04112479,0.55304485,-0.00062080
 ,0.00004170,-0.00022074,0.00004101,0.00004345,-0.00004788,-0.00114558,
 -0.00065591,0.00104646,-0.00392608,0.00471004,-0.00455707,0.00156029,-
 0.00082413,0.00111813,-0.03331375,-0.00592049,0.03455124,-0.08132416,-
 0.00729580,0.08828793,0.00685711,0.00172884,-0.01181563,0.10754696,0.0
 0004238,-0.00000194,0.00000866,0.00001099,-0.00000257,0.00001523,0.000
 23973,0.00016592,-0.00005051,0.00057608,-0.00146599,0.00241318,-0.0019
 3082,0.00086684,-0.00038249,0.00449722,0.00135880,-0.00483280,-0.01071
 651,-0.05614003,0.02641967,0.00951938,0.00234979,-0.02435345,0.0110309
 7,0.05422355,-0.00004987,0.00000535,-0.00001258,-0.00001103,-0.0000006
 7,-0.00003216,-0.00021901,-0.00019076,0.00015853,-0.00230295,0.0004726
 7,-0.00009129,0.00095600,-0.00046604,0.00069805,-0.00442788,-0.0001191
 6,0.00807311,0.10154832,0.02514146,-0.28796977,0.00622521,0.00199511,-
 0.01716891,-0.10304326,-0.02388853,0.30423770,-0.00034972,-0.00003221,
 -0.00003775,0.00002832,0.00004597,-0.00002892,-0.00006830,-0.00031798,
 0.00000803,0.00261561,0.00510872,-0.00755202,0.00040698,-0.00197264,0.
 00352206,-0.02738997,0.03420221,-0.01248624,-0.05473033,0.03060084,-0.
 00986120,0.00392536,-0.01157248,0.00493374,0.00411915,-0.01182287,0.00
 334826,0.07155918,-0.00015209,-0.00001422,-0.00004391,-0.00000763,-0.0
 0000321,0.00002057,0.00014235,-0.00007667,-0.00019737,-0.00092363,-0.0
 0092116,0.00343617,-0.00257899,0.00088339,-0.00048012,0.00664770,0.001
 44392,0.00006837,0.04068703,-0.28012345,0.08892805,0.00233191,-0.02031
 350,0.00801338,-0.00096589,0.00009375,0.00020274,-0.04328244,0.2995962
 8,-0.00004004,-0.00000213,0.00000201,0.00002517,0.00000482,0.00000723,
 -0.00015139,0.00033580,0.00000475,0.00233326,-0.00059374,0.00057469,0.
 00105991,-0.00034525,-0.00121385,-0.00546178,0.00279968,-0.00155767,-0
 .01609852,0.09208564,-0.08809608,0.00388975,-0.02142361,0.00870673,-0.
 00488591,0.02632572,-0.00835328,0.02023260,-0.09707901,0.09093592,-0.0
 0005777,0.00001870,-0.00001774,0.00003127,0.00001442,0.00001350,-0.000
 00418,0.00011847,0.00004950,0.00139902,0.00077564,-0.00127544,-0.00004
 360,-0.00049456,0.00033681,-0.00079541,-0.00269119,-0.00101416,-0.0107
 1674,0.00323261,0.00118576,-0.31431203,0.02438311,-0.02503110,0.000283
 38,-0.00006622,-0.00037291,0.00022845,-0.00044322,0.00007418,0.3405873
 5,-0.00017305,0.00000897,-0.00005574,0.00001260,-0.00000730,-0.0000019
 1,0.00001813,0.00024973,0.00034315,0.00085940,0.00051006,-0.00221198,0
 .00009892,-0.00059310,0.00063783,-0.00551707,-0.00379134,-0.00319310,-
 0.02220487,0.00398907,0.00130837,0.02592109,-0.04963279,0.00139084,0.0
 0054798,0.00087054,0.00005999,0.00055106,0.00021777,0.00101731,-0.0263
 4720,0.04983553,-0.00009977,0.00000636,-0.00002068,0.00000962,-0.00000
 092,-0.00000271,-0.00005176,0.00005785,0.00018205,0.00055397,0.0007489
 5,-0.00328714,0.00059317,-0.00015006,0.00131130,-0.00537386,-0.0045209
 7,-0.00139193,-0.01875358,0.00544691,-0.00106712,-0.02353390,0.0010031
 9,-0.04857391,0.00058436,0.00083738,0.00008885,0.00035487,0.00005516,0
 .00071882,0.02804679,-0.00040114,0.04909283,-0.00012355,-0.00002941,-0
 .00003056,-0.00002219,-0.00001510,-0.00000397,0.00015217,0.00013767,0.
 00003724,-0.00023824,-0.00079327,0.00134731,-0.00052658,0.00015031,-0.
 00066652,0.00217031,0.00052406,0.00056857,0.00057330,-0.01237027,0.004
 01300,-0.05900662,0.05317773,-0.02040345,0.00012395,0.00079707,0.00023
 296,-0.00027908,-0.00200324,-0.00162475,-0.00477603,0.02957652,-0.0117
 4161,0.05907376,-0.00017011,-0.00000983,-0.00004101,-0.00000304,-0.000
 00706,0.00000252,0.00004579,0.00008842,0.00005231,0.00010539,-0.000679
 47,0.00063884,-0.00030212,0.00025949,-0.00040807,0.00050951,0.00256589
 ,0.00061967,0.00576787,-0.02385390,0.00873490,0.05107566,-0.27056468,0
 .09171254,0.00011754,0.00092674,-0.00009152,-0.00175288,-0.00165449,-0
 .00372951,0.00012445,-0.00072444,0.00003700,-0.05567533,0.29512998,0.0
 0013090,0.00001854,0.00001983,0.00000277,0.00000749,0.00000257,-0.0001
 0050,-0.00022545,-0.00006002,-0.00043891,0.00048704,-0.00025895,0.0005
 1828,0.00025870,0.00041667,0.00179894,0.00153936,0.00069585,0.00522413
 ,-0.02321106,0.00832785,-0.02144242,0.09390294,-0.08676329,0.00064319,
 0.00056318,0.00104149,-0.00231757,-0.00314540,-0.00258349,0.00005813,0
 .00163244,-0.00232185,0.02422111,-0.09777892,0.09044751,0.00005703,0.0
 0001297,0.00003706,-0.00002701,-0.00002633,-0.00001479,-0.00001700,-0.
 00002687,-0.00004035,-0.00083165,-0.00026407,-0.00117945,-0.00064414,-
 0.00079504,0.00050739,0.00136890,0.00099134,0.00099578,0.00451648,0.00
 111718,-0.01320278,-0.09563844,-0.00985620,0.10537893,-0.00019677,-0.0
 0220604,-0.00198330,0.00004538,0.00051650,0.00069022,-0.01164715,-0.00
 338971,0.02933539,0.00276583,0.00014492,-0.00815920,0.09994337,0.00020
 650,0.00003332,0.00005214,-0.00000293,0.00000130,-0.00001447,-0.000256
 27,-0.00031960,0.00001057,-0.00086330,0.00153775,-0.00215993,0.0003899
 7,-0.00114565,0.00136412,0.00005237,0.00073976,0.00278685,0.01304357,0
 .00212744,-0.02504411,-0.01217280,-0.05112392,0.02700356,-0.00253932,-
 0.00331171,-0.00305301,0.00061191,0.00093813,0.00043474,0.00131834,-0.
 00105703,-0.00314328,-0.01352504,-0.00151771,0.02598312,0.01387310,0.0
 5317059,-0.00005499,-0.00003675,0.00000344,-0.00002074,-0.00000592,-0.
 00001902,-0.00001177,-0.00011558,0.00002193,-0.00077248,0.00035775,-0.
 00184317,0.00109564,0.00061752,0.00111188,-0.00032143,0.00079295,0.002
 00474,0.00900434,0.00094964,-0.02008586,0.10314230,0.02471009,-0.27291
 783,-0.00165819,-0.00310253,-0.00067049,-0.00019913,0.00030125,0.00080
 657,-0.00207490,-0.00048846,0.00520555,0.00417843,0.00032203,-0.009026
 02,-0.11249916,-0.02419956,0.29544075,-0.00686035,-0.01390467,-0.00568
 426,0.00026429,0.00061845,0.00036294,-0.01348412,0.01121779,0.00074042
 ,-0.00493295,0.00590673,0.00358050,0.00074472,-0.00042665,-0.00082119,
 -0.00004314,0.00423349,0.00087044,0.00139000,-0.00037377,-0.00070484,-
 0.00018179,-0.00020677,0.00007764,0.00001084,-0.00002073,0.00008220,-0
 .00021516,0.00011305,-0.00006450,-0.00022789,0.00016524,0.00003727,0.0
 0033536,0.00018615,-0.00021791,0.00028146,-0.00014575,0.00022402,0.027
 45000,-0.08803073,-0.05342351,-0.03172051,0.00176160,0.00222009,0.0010
 9957,0.08036334,0.12639724,0.04293621,0.00317189,-0.03278006,-0.008603
 77,0.00351683,0.00153928,0.00320591,0.00239509,-0.00018220,-0.00028100
 ,-0.00106871,0.00156425,0.00057377,0.00050148,-0.00025431,0.00007155,0
 .00004796,0.00006930,-0.00007479,-0.00016905,-0.00006366,0.00022544,0.
 00009786,0.00017717,0.00005312,0.00005093,0.00005092,-0.00006254,-0.00
 012200,-0.00008785,-0.00011075,-0.02253046,0.07085610,-0.03001515,-0.0
 1924553,-0.00590520,0.00045015,0.00080358,0.00029644,0.02634865,0.0587
 6935,-0.01353000,0.00296219,-0.00512787,-0.00045620,0.00124774,-0.0009
 1580,0.00221089,-0.00105332,-0.00239659,0.00148738,-0.00046431,0.00004
 685,0.00018980,0.00004286,0.00022015,-0.00015941,-0.00008493,0.0000481
 8,0.00001197,0.00010511,-0.00009492,0.00005853,0.00000854,-0.00005359,
 0.00004793,-0.00011033,-0.00011299,0.00005050,0.00012746,0.00000288,-0
 .00001240,0.04560567,-0.21363058,0.44839433,0.00096420,-0.00044340,0.0
 0012380,-0.00003628,-0.00046000,-0.00005014,-0.00306701,-0.00286070,0.
 00145674,0.00310203,0.00219163,-0.00303685,-0.00070585,-0.00000125,0.0
 0077239,-0.00091938,-0.00151445,0.00116647,-0.00041706,-0.00006622,0.0
 0008448,0.00007854,0.00027900,-0.00011879,-0.00001557,0.00004937,0.000
 01726,0.00010414,-0.00008140,0.00002178,0.00005133,-0.00011902,0.00003
 904,-0.00022239,-0.00017382,0.00007907,0.00002370,0.00000965,-0.000031
 94,-0.00453126,0.02001398,-0.04517034,0.00559085,-0.00284003,-0.001222
 45,-0.00150107,-0.00020439,-0.00001967,-0.00003563,0.00406219,-0.00389
 385,0.01504425,0.00185274,-0.00377535,0.00016254,-0.00078369,0.0009056
 3,-0.00085850,-0.00101958,0.00048519,-0.00012427,0.00094434,0.00034063
 ,0.00002325,-0.00007740,0.00006967,-0.00003850,-0.00006695,-0.00000299
 ,0.00000719,-0.00019816,-0.00000286,-0.00005589,-0.00004122,-0.0000528
 5,-0.00002955,-0.00000263,-0.00000985,0.00003055,0.00003026,0.00001520
 ,0.00000833,0.01516791,-0.11608276,0.18168690,-0.01682338,0.12324630,0
 .00336067,0.00027133,0.00136079,0.00010735,-0.00003646,-0.00013074,-0.
 00296211,-0.01261094,0.00273046,-0.00317006,-0.00009325,0.00007111,0.0
 0097467,-0.00012845,0.00039679,0.00115432,0.00050632,-0.00094095,-0.00
 014713,0.00008944,-0.00002184,0.00006081,-0.00002551,-0.00002944,0.000
 08231,-0.00002088,-0.00001122,-0.00002185,0.00001504,-0.00001087,0.000
 01304,0.00001600,0.00001802,-0.00001742,0.00004220,0.00001134,0.000006
 79,-0.00002362,-0.00002007,-0.04408841,0.20631838,-0.43268455,0.044647
 02,-0.19431961,0.42926118\\-0.00160790,0.00438717,0.00042835,-0.000063
 07,0.00004936,0.00000824,-0.00137540,-0.03201657,-0.00899327,0.0004351
 5,-0.00097289,-0.00017026,0.00121610,0.00094932,0.00089615,-0.00012532
 ,0.00070137,0.00024312,-0.00016364,0.00024078,0.00012732,0.00011939,0.
 00006251,0.00006742,-0.00002069,0.00000761,0.00000495,-0.00002551,0.00
 001327,0.00000829,0.00001135,0.00000385,-0.00000008,0.00001733,0.00000
 591,0.00000684,0.00001755,0.00000243,0.00000194,0.00171542,0.02590155,
 0.00752731,-0.00015075,0.00066432,-0.00015632\\\@


 REFRAIN FROM ILLUSIONS, INSIST ON WORK AND NOT WORDS,
 PATIENTLY SEEK DIVINE AND SCIENTIFIC TRUTH.
 LAST WORDS OF MARIA MENDELEEVA TO HER SON DMITRI, C. 1850
 Job cpu time:       0 days  0 hours 59 minutes  1.6 seconds.
 Elapsed time:       0 days  0 hours  2 minutes 27.9 seconds.
 File lengths (MBytes):  RWF=    153 Int=      0 D2E=      0 Chk=      9 Scr=      1
 Normal termination of Gaussian 16 at Mon Jun 23 04:59:14 2025.
