 Entering Gaussian System, Link 0=g16
 Initial command:
 /opt/g16/l1.exe "/home/aayush/scratches/g16/Gau-95620.inp" -scrdir="/home/aayush/scratches/g16/"
 Entering Link 1 = /opt/g16/l1.exe PID=     95623.
  
 Copyright (c) 1988,1990,1992,1993,1995,1998,2003,2009,2016,
            Gaussian, Inc.  All Rights Reserved.
  
 This is part of the Gaussian(R) 16 program.  It is based on
 the Gaussian(R) 09 system (copyright 2009, Gaussian, Inc.),
 the Gaussian(R) 03 system (copyright 2003, Gaussian, Inc.),
 the Gaussian(R) 98 system (copyright 1998, Gaussian, Inc.),
 the Gaussian(R) 94 system (copyright 1995, Gaussian, Inc.),
 the Gaussian 92(TM) system (copyright 1992, Gaussian, Inc.),
 the Gaussian 90(TM) system (copyright 1990, Gaussian, Inc.),
 the Gaussian 88(TM) system (copyright 1988, Gaussian, Inc.),
 the Gaussian 86(TM) system (copyright 1986, Carnegie Mellon
 University), and the Gaussian 82(TM) system (copyright 1983,
 Carnegie Mellon University). Gaussian is a federally registered
 trademark of Gaussian, Inc.
  
 This software contains proprietary and confidential information,
 including trade secrets, belonging to Gaussian, Inc.
  
 This software is provided under written license and may be
 used, copied, transmitted, or stored only in accord with that
 written license.
  
 The following legend is applicable only to US Government
 contracts under FAR:
  
                    RESTRICTED RIGHTS LEGEND
  
 Use, reproduction and disclosure by the US Government is
 subject to restrictions as set forth in subparagraphs (a)
 and (c) of the Commercial Computer Software - Restricted
 Rights clause in FAR 52.227-19.
  
 Gaussian, Inc.
 340 Quinnipiac St., Bldg. 40, Wallingford CT 06492
  
  
 ---------------------------------------------------------------
 Warning -- This program may not be used in any manner that
 competes with the business of Gaussian, Inc. or will provide
 assistance to any competitor of Gaussian, Inc.  The licensee
 of this program is prohibited from giving any competitor of
 Gaussian, Inc. access to this program.  By using this program,
 the user acknowledges that Gaussian, Inc. is engaged in the
 business of creating and licensing software in the field of
 computational chemistry and represents and warrants to the
 licensee that it is not a competitor of Gaussian, Inc. and that
 it will not use this program in any manner prohibited above.
 ---------------------------------------------------------------
  

 Cite this work as:
 Gaussian 16, Revision A.03,
 M. J. Frisch, G. W. Trucks, H. B. Schlegel, G. E. Scuseria, 
 M. A. Robb, J. R. Cheeseman, G. Scalmani, V. Barone, 
 G. A. Petersson, H. Nakatsuji, X. Li, M. Caricato, A. V. Marenich, 
 J. Bloino, B. G. Janesko, R. Gomperts, B. Mennucci, H. P. Hratchian, 
 J. V. Ortiz, A. F. Izmaylov, J. L. Sonnenberg, D. Williams-Young, 
 F. Ding, F. Lipparini, F. Egidi, J. Goings, B. Peng, A. Petrone, 
 T. Henderson, D. Ranasinghe, V. G. Zakrzewski, J. Gao, N. Rega, 
 G. Zheng, W. Liang, M. Hada, M. Ehara, K. Toyota, R. Fukuda, 
 J. Hasegawa, M. Ishida, T. Nakajima, Y. Honda, O. Kitao, H. Nakai, 
 T. Vreven, K. Throssell, J. A. Montgomery, Jr., J. E. Peralta, 
 F. Ogliaro, M. J. Bearpark, J. J. Heyd, E. N. Brothers, K. N. Kudin, 
 V. N. Staroverov, T. A. Keith, R. Kobayashi, J. Normand, 
 K. Raghavachari, A. P. Rendell, J. C. Burant, S. S. Iyengar, 
 J. Tomasi, M. Cossi, J. M. Millam, M. Klene, C. Adamo, R. Cammi, 
 J. W. Ochterski, R. L. Martin, K. Morokuma, O. Farkas, 
 J. B. Foresman, and D. J. Fox, Gaussian, Inc., Wallingford CT, 2016.
 
 ******************************************
 Gaussian 16:  ES64L-G16RevA.03 25-Dec-2016
                16-Aug-2025 
 ******************************************
 %chk=ethyl_propiolate_non_planar.chk
 %mem=12GB
 %nprocshared=24
 Will use up to   24 processors via shared memory.
 --------------------------
 # freq 6-311++g(d,p) m062x
 --------------------------
 1/10=4,30=1,38=1/1,3;
 2/12=2,17=6,18=5,40=1/2;
 3/5=4,6=6,7=1111,11=2,25=1,30=1,71=2,74=-55,140=1/1,2,3;
 4//1;
 5/5=2,38=5,98=1/2;
 8/6=4,10=90,11=11/1;
 11/6=1,8=1,9=11,15=111,16=1/1,2,10;
 10/6=1/2;
 6/7=2,8=2,9=2,10=2,28=1/1;
 7/8=1,10=1,25=1/1,2,3,16;
 1/10=4,30=1/3;
 99//99;
 -------------------
 Title Card Required
 -------------------
 Symbolic Z-matrix:
 Charge =  0 Multiplicity = 2
 C                     2.73928  -0.41242   0.41518 
 H                     3.78151  -0.46151   0.63164 
 C                     1.56698  -0.23244   0.12892 
 C                     0.1587   -0.57281  -0.1421 
 O                    -0.20212  -1.14785  -1.12678 
 O                    -0.62179  -0.15205   0.84926 
 C                    -2.04135  -0.30326   0.63911 
 C                    -2.56382   0.78433  -0.27839 
 H                    -2.46653  -0.23071   1.63846 
 H                    -2.23157  -1.29767   0.23394 
 H                    -3.64645   0.68797  -0.38106 
 H                    -2.33859   1.7695    0.13215 
 H                    -2.11359   0.70148  -1.26784 
 O                     1.40298   1.65063  -0.3882 
 H                     1.49446   2.03519   0.49694 
 

 GradGradGradGradGradGradGradGradGradGradGradGradGradGradGradGradGradGrad
 Berny optimization.
 Initialization pass.
 Trust Radius=3.00D-01 FncErr=1.00D-07 GrdErr=1.00D-07 EigMax=2.50D+02 EigMin=1.00D-04
 Number of steps in this run=      2 maximum allowed number of steps=      2.
 GradGradGradGradGradGradGradGradGradGradGradGradGradGradGradGradGradGrad

                          Input orientation:                          
 ---------------------------------------------------------------------
 Center     Atomic      Atomic             Coordinates (Angstroms)
 Number     Number       Type             X           Y           Z
 ---------------------------------------------------------------------
      1          6           0        2.739279   -0.412423    0.415175
      2          1           0        3.781506   -0.461512    0.631642
      3          6           0        1.566983   -0.232444    0.128919
      4          6           0        0.158700   -0.572813   -0.142103
      5          8           0       -0.202120   -1.147848   -1.126783
      6          8           0       -0.621785   -0.152050    0.849258
      7          6           0       -2.041352   -0.303259    0.639106
      8          6           0       -2.563824    0.784331   -0.278394
      9          1           0       -2.466532   -0.230711    1.638459
     10          1           0       -2.231572   -1.297666    0.233936
     11          1           0       -3.646451    0.687965   -0.381059
     12          1           0       -2.338590    1.769497    0.132150
     13          1           0       -2.113593    0.701479   -1.267844
     14          8           0        1.402975    1.650632   -0.388204
     15          1           0        1.494461    2.035191    0.496938
 ---------------------------------------------------------------------
                    Distance matrix (angstroms):
                    1          2          3          4          5
     1  C    0.000000
     2  H    1.065601   0.000000
     3  C    1.220087   2.282392   0.000000
     4  C    2.644933   3.706183   1.473962   0.000000
     5  O    3.401516   4.408219   2.354671   1.196015   0.000000
     6  O    3.398967   4.419513   2.305658   1.330036   2.252215
     7  C    4.787118   5.825013   3.644912   2.350144   2.685976
     8  C    5.480525   6.530199   4.273558   3.045087   3.167132
     9  H    5.350693   6.332845   4.306734   3.190498   3.689887
    10  H    5.052313   6.083949   3.946485   2.525909   2.447994
    11  H    6.528583   7.584287   5.318564   4.015699   3.973629
    12  H    5.534043   6.533182   4.388767   3.434835   3.828879
    13  H    5.255825   6.301808   4.045961   2.838032   2.663388
    14  O    2.585986   3.340456   1.959666   2.559784   3.309580
    15  H    2.747193   3.388546   2.298449   2.999052   3.955578
                    6          7          8          9         10
     6  O    0.000000
     7  C    1.442982   0.000000
     8  C    2.433089   1.515795   0.000000
     9  H    2.008013   1.088461   2.171198   0.000000
    10  H    2.069413   1.090501   2.169697   1.779406   0.000000
    11  H    3.371633   2.144669   1.091745   2.512892   2.514524
    12  H    2.674697   2.154454   1.090793   2.507223   3.070717
    13  H    2.726926   2.156658   1.090222   3.072481   2.503167
    14  O    2.980038   4.091020   4.061777   4.756038   4.721171
    15  H    3.063764   4.241525   4.316882   4.703918   5.006039
                   11         12         13         14         15
    11  H    0.000000
    12  H    1.773019   0.000000
    13  H    1.770939   1.775181   0.000000
    14  O    5.140378   3.779445   3.747120   0.000000
    15  H    5.386546   3.859526   4.232174   0.969398   0.000000
 Stoichiometry    C5H7O3(2)
 Framework group  C1[X(C5H7O3)]
 Deg. of freedom    39
 Full point group                 C1      NOp   1
 Largest Abelian subgroup         C1      NOp   1
 Largest concise Abelian subgroup C1      NOp   1
                         Standard orientation:                         
 ---------------------------------------------------------------------
 Center     Atomic      Atomic             Coordinates (Angstroms)
 Number     Number       Type             X           Y           Z
 ---------------------------------------------------------------------
      1          6           0       -2.800320   -0.436985   -0.405452
      2          1           0       -3.842503   -0.485240   -0.622314
      3          6           0       -1.628087   -0.258120   -0.118240
      4          6           0       -0.219837   -0.599524    0.151650
      5          8           0        0.140828   -1.178568    1.134035
      6          8           0        0.560812   -0.174664   -0.837832
      7          6           0        1.980348   -0.326660   -0.628034
      8          6           0        2.502591    0.757190    0.294011
      9          1           0        2.405712   -0.249998   -1.627001
     10          1           0        2.170543   -1.322708   -0.226904
     11          1           0        3.585203    0.660460    0.396484
     12          1           0        2.277383    1.744018   -0.112538
     13          1           0        2.052178    0.670264    1.283028
     14          8           0       -1.464274    1.622831    0.406621
     15          1           0       -1.555613    2.011007   -0.476956
 ---------------------------------------------------------------------
 Rotational constants (GHZ):           3.6585716           1.3091199           1.1788684
 Standard basis: 6-311++G(d,p) (5D, 7F)
 There are   233 symmetry adapted cartesian basis functions of A   symmetry.
 There are   225 symmetry adapted basis functions of A   symmetry.
   225 basis functions,   351 primitive gaussians,   233 cartesian basis functions
    31 alpha electrons       30 beta electrons
       nuclear repulsion energy       362.6514331126 Hartrees.
 NAtoms=   15 NActive=   15 NUniq=   15 SFac= 1.00D+00 NAtFMM=   60 NAOKFM=F Big=F
 Integral buffers will be    131072 words long.
 Raffenetti 2 integral format.
 Two-electron integral symmetry is turned on.
 One-electron integrals computed using PRISM.
 NBasis=   225 RedAO= T EigKep=  2.73D-06  NBF=   225
 NBsUse=   225 1.00D-06 EigRej= -1.00D+00 NBFU=   225
 ExpMin= 3.60D-02 ExpMax= 8.59D+03 ExpMxC= 1.30D+03 IAcc=3 IRadAn=         5 AccDes= 0.00D+00
 Harris functional with IExCor= 1009 and IRadAn=       5 diagonalized for initial guess.
 HarFok:  IExCor= 1009 AccDes= 0.00D+00 IRadAn=         5 IDoV= 1 UseB2=F ITyADJ=14
 ICtDFT=  3500011 ScaDFX=  1.000000  1.000000  1.000000  1.000000
 FoFCou: FMM=F IPFlag=           0 FMFlag=      100000 FMFlg1=           0
         NFxFlg=           0 DoJE=T BraDBF=F KetDBF=T FulRan=T
         wScrn=  0.000000 ICntrl=       500 IOpCl=  0 I1Cent=   200000004 NGrid=           0
         NMat0=    1 NMatS0=      1 NMatT0=    0 NMatD0=    1 NMtDS0=    0 NMtDT0=    0
 Petite list used in FoFCou.
 Initial guess <Sx>= 0.0000 <Sy>= 0.0000 <Sz>= 0.5000 <S**2>= 0.7500 S= 0.5000
 Requested convergence on RMS density matrix=1.00D-08 within 128 cycles.
 Requested convergence on MAX density matrix=1.00D-06.
 Requested convergence on             energy=1.00D-06.
 No special actions if energy rises.
 Restarting incremental Fock formation.
 SCF Done:  E(UM062X) =  -420.202062905     A.U. after   23 cycles
            NFock= 23  Conv=0.25D-08     -V/T= 2.0034
 <Sx>= 0.0000 <Sy>= 0.0000 <Sz>= 0.5000 <S**2>= 0.7797 S= 0.5147
 <L.S>=  0.00000000000    
 Annihilation of the first spin contaminant:
 S**2 before annihilation     0.7797,   after     0.7503
 DoSCS=F DFT=T ScalE2(SS,OS)=  1.000000  1.000000
 Range of M.O.s used for correlation:     1   225
 NBasis=   225 NAE=    31 NBE=    30 NFC=     0 NFV=     0
 NROrb=    225 NOA=    31 NOB=    30 NVA=   194 NVB=   195

 **** Warning!!: The largest alpha MO coefficient is  0.16685526D+03


 **** Warning!!: The largest beta MO coefficient is  0.16399208D+03

 Symmetrizing basis deriv contribution to polar:
 IMax=3 JMax=2 DiffMx= 0.00D+00
 G2DrvN: will do    16 centers at a time, making    1 passes.
 Calling FoFCou, ICntrl=  3107 FMM=F I1Cent=   0 AccDes= 0.00D+00.
 End of G2Drv F.D. properties file   721 does not exist.
 End of G2Drv F.D. properties file   722 does not exist.
 End of G2Drv F.D. properties file   788 does not exist.
          IDoAtm=111111111111111
          Differentiating once with respect to electric field.
                with respect to dipole field.
          Differentiating once with respect to nuclear coordinates.
 Keep R1 and R2 ints in memory in canonical form, NReq=671901991.
          There are    48 degrees of freedom in the 1st order CPHF.  IDoFFX=6 NUNeed=     3.
     45 vectors produced by pass  0 Test12= 2.47D-14 2.08D-09 XBig12= 9.16D+01 2.87D+00.
 AX will form    45 AO Fock derivatives at one time.
     45 vectors produced by pass  1 Test12= 2.47D-14 2.08D-09 XBig12= 1.71D+01 5.33D-01.
     45 vectors produced by pass  2 Test12= 2.47D-14 2.08D-09 XBig12= 6.94D-01 1.10D-01.
     45 vectors produced by pass  3 Test12= 2.47D-14 2.08D-09 XBig12= 1.05D-02 1.22D-02.
     45 vectors produced by pass  4 Test12= 2.47D-14 2.08D-09 XBig12= 1.06D-04 1.59D-03.
     45 vectors produced by pass  5 Test12= 2.47D-14 2.08D-09 XBig12= 1.14D-06 1.11D-04.
     38 vectors produced by pass  6 Test12= 2.47D-14 2.08D-09 XBig12= 9.99D-09 1.11D-05.
     22 vectors produced by pass  7 Test12= 2.47D-14 2.08D-09 XBig12= 7.90D-11 7.73D-07.
      4 vectors produced by pass  8 Test12= 2.47D-14 2.08D-09 XBig12= 7.18D-13 5.80D-08.
      3 vectors produced by pass  9 Test12= 2.47D-14 2.08D-09 XBig12= 7.12D-15 5.87D-09.
      1 vectors produced by pass 10 Test12= 2.47D-14 2.08D-09 XBig12= 5.12D-16 3.83D-09.
 InvSVY:  IOpt=1 It=  1 EMax= 3.55D-15
 Solved reduced A of dimension   338 with    48 vectors.
 Isotropic polarizability for W=    0.000000       74.94 Bohr**3.
 End of Minotr F.D. properties file   721 does not exist.
 End of Minotr F.D. properties file   722 does not exist.
 End of Minotr F.D. properties file   788 does not exist.

 **********************************************************************

            Population analysis using the SCF density.

 **********************************************************************

 Orbital symmetries:
 Alpha Orbitals:
       Occupied  (A) (A) (A) (A) (A) (A) (A) (A) (A) (A) (A) (A)
                 (A) (A) (A) (A) (A) (A) (A) (A) (A) (A) (A) (A)
                 (A) (A) (A) (A) (A) (A) (A)
       Virtual   (A) (A) (A) (A) (A) (A) (A) (A) (A) (A) (A) (A)
                 (A) (A) (A) (A) (A) (A) (A) (A) (A) (A) (A) (A)
                 (A) (A) (A) (A) (A) (A) (A) (A) (A) (A) (A) (A)
                 (A) (A) (A) (A) (A) (A) (A) (A) (A) (A) (A) (A)
                 (A) (A) (A) (A) (A) (A) (A) (A) (A) (A) (A) (A)
                 (A) (A) (A) (A) (A) (A) (A) (A) (A) (A) (A) (A)
                 (A) (A) (A) (A) (A) (A) (A) (A) (A) (A) (A) (A)
                 (A) (A) (A) (A) (A) (A) (A) (A) (A) (A) (A) (A)
                 (A) (A) (A) (A) (A) (A) (A) (A) (A) (A) (A) (A)
                 (A) (A) (A) (A) (A) (A) (A) (A) (A) (A) (A) (A)
                 (A) (A) (A) (A) (A) (A) (A) (A) (A) (A) (A) (A)
                 (A) (A) (A) (A) (A) (A) (A) (A) (A) (A) (A) (A)
                 (A) (A) (A) (A) (A) (A) (A) (A) (A) (A) (A) (A)
                 (A) (A) (A) (A) (A) (A) (A) (A) (A) (A) (A) (A)
                 (A) (A) (A) (A) (A) (A) (A) (A) (A) (A) (A) (A)
                 (A) (A) (A) (A) (A) (A) (A) (A) (A) (A) (A) (A)
                 (A) (A)
 Beta  Orbitals:
       Occupied  (A) (A) (A) (A) (A) (A) (A) (A) (A) (A) (A) (A)
                 (A) (A) (A) (A) (A) (A) (A) (A) (A) (A) (A) (A)
                 (A) (A) (A) (A) (A) (A)
       Virtual   (A) (A) (A) (A) (A) (A) (A) (A) (A) (A) (A) (A)
                 (A) (A) (A) (A) (A) (A) (A) (A) (A) (A) (A) (A)
                 (A) (A) (A) (A) (A) (A) (A) (A) (A) (A) (A) (A)
                 (A) (A) (A) (A) (A) (A) (A) (A) (A) (A) (A) (A)
                 (A) (A) (A) (A) (A) (A) (A) (A) (A) (A) (A) (A)
                 (A) (A) (A) (A) (A) (A) (A) (A) (A) (A) (A) (A)
                 (A) (A) (A) (A) (A) (A) (A) (A) (A) (A) (A) (A)
                 (A) (A) (A) (A) (A) (A) (A) (A) (A) (A) (A) (A)
                 (A) (A) (A) (A) (A) (A) (A) (A) (A) (A) (A) (A)
                 (A) (A) (A) (A) (A) (A) (A) (A) (A) (A) (A) (A)
                 (A) (A) (A) (A) (A) (A) (A) (A) (A) (A) (A) (A)
                 (A) (A) (A) (A) (A) (A) (A) (A) (A) (A) (A) (A)
                 (A) (A) (A) (A) (A) (A) (A) (A) (A) (A) (A) (A)
                 (A) (A) (A) (A) (A) (A) (A) (A) (A) (A) (A) (A)
                 (A) (A) (A) (A) (A) (A) (A) (A) (A) (A) (A) (A)
                 (A) (A) (A) (A) (A) (A) (A) (A) (A) (A) (A) (A)
                 (A) (A) (A)
 The electronic state is 2-A.
 Alpha  occ. eigenvalues --  -19.68350 -19.65118 -19.63326 -10.70768 -10.60623
 Alpha  occ. eigenvalues --  -10.60261 -10.59038 -10.53616  -1.25847  -1.16609
 Alpha  occ. eigenvalues --   -1.11294  -0.91350  -0.87744  -0.78338  -0.70905
 Alpha  occ. eigenvalues --   -0.64756  -0.62377  -0.58841  -0.57130  -0.53988
 Alpha  occ. eigenvalues --   -0.53238  -0.49815  -0.48597  -0.46157  -0.45292
 Alpha  occ. eigenvalues --   -0.42027  -0.41416  -0.38897  -0.38458  -0.37155
 Alpha  occ. eigenvalues --   -0.33373
 Alpha virt. eigenvalues --   -0.00606  -0.00504   0.00454   0.01402   0.02220
 Alpha virt. eigenvalues --    0.02674   0.03287   0.04441   0.05479   0.06019
 Alpha virt. eigenvalues --    0.07063   0.07804   0.07945   0.10190   0.10446
 Alpha virt. eigenvalues --    0.10671   0.11429   0.12518   0.13121   0.13412
 Alpha virt. eigenvalues --    0.13858   0.14247   0.14949   0.15205   0.15570
 Alpha virt. eigenvalues --    0.17306   0.17429   0.18136   0.19574   0.20387
 Alpha virt. eigenvalues --    0.20684   0.22001   0.23129   0.23516   0.24714
 Alpha virt. eigenvalues --    0.25361   0.26843   0.28324   0.29753   0.30567
 Alpha virt. eigenvalues --    0.31196   0.32375   0.32590   0.33344   0.34401
 Alpha virt. eigenvalues --    0.34954   0.36312   0.37017   0.37335   0.40204
 Alpha virt. eigenvalues --    0.41614   0.42836   0.44679   0.46834   0.49476
 Alpha virt. eigenvalues --    0.50404   0.52958   0.54606   0.56284   0.58143
 Alpha virt. eigenvalues --    0.58844   0.60911   0.63102   0.65666   0.67088
 Alpha virt. eigenvalues --    0.68939   0.69853   0.70400   0.71327   0.72530
 Alpha virt. eigenvalues --    0.73640   0.75403   0.77815   0.78565   0.79203
 Alpha virt. eigenvalues --    0.84043   0.86311   0.90955   0.93934   0.97783
 Alpha virt. eigenvalues --    1.00248   1.02669   1.06128   1.07969   1.12111
 Alpha virt. eigenvalues --    1.16589   1.18281   1.19202   1.21100   1.23599
 Alpha virt. eigenvalues --    1.24513   1.27072   1.30961   1.32364   1.33641
 Alpha virt. eigenvalues --    1.35500   1.36476   1.37989   1.41664   1.45230
 Alpha virt. eigenvalues --    1.47652   1.50653   1.51376   1.52376   1.57126
 Alpha virt. eigenvalues --    1.58884   1.59792   1.60943   1.62318   1.64826
 Alpha virt. eigenvalues --    1.66504   1.66660   1.70510   1.72323   1.75023
 Alpha virt. eigenvalues --    1.76105   1.81321   1.84137   1.86784   1.88286
 Alpha virt. eigenvalues --    1.91083   1.95340   1.99005   2.03560   2.05408
 Alpha virt. eigenvalues --    2.09749   2.12207   2.13998   2.20858   2.31368
 Alpha virt. eigenvalues --    2.33951   2.35617   2.44379   2.51693   2.53307
 Alpha virt. eigenvalues --    2.54289   2.56628   2.59969   2.62110   2.63401
 Alpha virt. eigenvalues --    2.65225   2.66533   2.71810   2.73645   2.75056
 Alpha virt. eigenvalues --    2.79729   2.82085   2.84953   2.89092   2.91016
 Alpha virt. eigenvalues --    2.94554   2.96536   2.99071   3.03483   3.05680
 Alpha virt. eigenvalues --    3.10659   3.15670   3.17258   3.19107   3.21541
 Alpha virt. eigenvalues --    3.26499   3.31081   3.32074   3.36559   3.37423
 Alpha virt. eigenvalues --    3.45372   3.48166   3.65216   3.75169   3.85566
 Alpha virt. eigenvalues --    3.86024   3.89217   3.91461   4.02711   4.11462
 Alpha virt. eigenvalues --    4.18747   4.28150   5.13152   5.15178   5.18473
 Alpha virt. eigenvalues --    5.21076   5.32111   5.47643   5.59570   5.73186
 Alpha virt. eigenvalues --    5.94610  23.59846  23.92655  23.94236  24.05851
 Alpha virt. eigenvalues --   24.97138  49.98048  50.01101  50.11075
  Beta  occ. eigenvalues --  -19.68355 -19.63839 -19.63346 -10.70736 -10.60623
  Beta  occ. eigenvalues --  -10.60349 -10.58720 -10.53617  -1.25849  -1.16651
  Beta  occ. eigenvalues --   -1.06364  -0.90564  -0.87151  -0.78017  -0.70551
  Beta  occ. eigenvalues --   -0.64615  -0.61771  -0.58766  -0.56852  -0.53487
  Beta  occ. eigenvalues --   -0.51504  -0.49079  -0.46694  -0.45304  -0.41996
  Beta  occ. eigenvalues --   -0.41269  -0.38976  -0.38530  -0.36681  -0.36498
  Beta virt. eigenvalues --   -0.09908  -0.00405   0.00330   0.00724   0.01703
  Beta virt. eigenvalues --    0.02337   0.02839   0.03274   0.04579   0.05560
  Beta virt. eigenvalues --    0.05967   0.07162   0.07623   0.08010   0.10338
  Beta virt. eigenvalues --    0.10639   0.10837   0.11716   0.12496   0.13156
  Beta virt. eigenvalues --    0.13473   0.13941   0.14422   0.15252   0.15566
  Beta virt. eigenvalues --    0.15597   0.17209   0.17426   0.18158   0.20074
  Beta virt. eigenvalues --    0.20576   0.20648   0.22147   0.23364   0.23622
  Beta virt. eigenvalues --    0.24661   0.25187   0.26988   0.28165   0.29864
  Beta virt. eigenvalues --    0.30486   0.31189   0.32387   0.32698   0.33328
  Beta virt. eigenvalues --    0.34391   0.34945   0.36342   0.37045   0.37382
  Beta virt. eigenvalues --    0.40205   0.41781   0.42814   0.44691   0.46863
  Beta virt. eigenvalues --    0.49500   0.50516   0.53023   0.54656   0.56382
  Beta virt. eigenvalues --    0.58594   0.59228   0.61284   0.63261   0.65679
  Beta virt. eigenvalues --    0.67004   0.69122   0.69875   0.70469   0.71356
  Beta virt. eigenvalues --    0.72384   0.73670   0.75382   0.77739   0.78471
  Beta virt. eigenvalues --    0.79213   0.84039   0.86329   0.90994   0.94230
  Beta virt. eigenvalues --    0.97771   1.00290   1.03173   1.06366   1.08019
  Beta virt. eigenvalues --    1.13670   1.17021   1.18743   1.19707   1.21876
  Beta virt. eigenvalues --    1.23938   1.24754   1.27450   1.31399   1.33066
  Beta virt. eigenvalues --    1.35104   1.35757   1.36691   1.38205   1.42418
  Beta virt. eigenvalues --    1.46087   1.47968   1.50780   1.51977   1.53184
  Beta virt. eigenvalues --    1.57451   1.59162   1.59838   1.60976   1.62303
  Beta virt. eigenvalues --    1.64845   1.66573   1.66691   1.70500   1.72455
  Beta virt. eigenvalues --    1.75033   1.76280   1.81407   1.84385   1.86909
  Beta virt. eigenvalues --    1.88457   1.91237   1.96004   1.99036   2.03695
  Beta virt. eigenvalues --    2.05637   2.09967   2.13059   2.14027   2.20891
  Beta virt. eigenvalues --    2.31390   2.34040   2.35641   2.44497   2.51700
  Beta virt. eigenvalues --    2.53636   2.54302   2.56682   2.60546   2.62250
  Beta virt. eigenvalues --    2.63823   2.65611   2.66587   2.72230   2.73710
  Beta virt. eigenvalues --    2.75286   2.80699   2.82216   2.87058   2.90946
  Beta virt. eigenvalues --    2.91672   2.94733   2.96729   2.99251   3.03545
  Beta virt. eigenvalues --    3.08970   3.11106   3.16135   3.20355   3.21320
  Beta virt. eigenvalues --    3.22879   3.26682   3.31152   3.33531   3.36859
  Beta virt. eigenvalues --    3.37367   3.45351   3.49025   3.65188   3.75219
  Beta virt. eigenvalues --    3.85574   3.86058   3.90180   3.93200   4.02727
  Beta virt. eigenvalues --    4.11378   4.18631   4.28148   5.14277   5.17159
  Beta virt. eigenvalues --    5.21925   5.23501   5.32116   5.47624   5.61976
  Beta virt. eigenvalues --    5.73196   5.94598  23.59932  23.92662  23.94241
  Beta virt. eigenvalues --   24.05851  24.97671  49.97573  50.00967  50.11100
          Condensed to atoms (all electrons):
               1          2          3          4          5          6
     1  C   19.290300   0.633291  -5.556145  -7.721216   0.000785   0.066064
     2  H    0.633291   0.428526  -0.178679  -0.079769  -0.001733  -0.001238
     3  C   -5.556145  -0.178679  13.103312  -2.098742   0.200012  -0.228665
     4  C   -7.721216  -0.079769  -2.098742  16.269979   0.217888  -0.002199
     5  O    0.000785  -0.001733   0.200012   0.217888   7.959270  -0.150886
     6  O    0.066064  -0.001238  -0.228665  -0.002199  -0.150886   8.285023
     7  C   -0.123625  -0.000812  -0.300544   0.288192   0.047543   0.145840
     8  C    0.118455   0.000254   0.168220  -0.369121  -0.070935  -0.039274
     9  H    0.001078   0.000063   0.001181   0.005787   0.006103  -0.090467
    10  H   -0.035875  -0.000214  -0.084008   0.114292  -0.020093  -0.014768
    11  H    0.004027   0.000041   0.013955  -0.011923  -0.002256   0.016427
    12  H   -0.004138   0.000057  -0.022492   0.027367   0.000637  -0.000666
    13  H    0.007743  -0.000236   0.017740  -0.054894   0.007886  -0.018468
    14  O   -0.340357  -0.006983   0.431466  -0.211312  -0.004538   0.035034
    15  H   -0.113513  -0.003350   0.119265   0.016229   0.000283  -0.003548
               7          8          9         10         11         12
     1  C   -0.123625   0.118455   0.001078  -0.035875   0.004027  -0.004138
     2  H   -0.000812   0.000254   0.000063  -0.000214   0.000041   0.000057
     3  C   -0.300544   0.168220   0.001181  -0.084008   0.013955  -0.022492
     4  C    0.288192  -0.369121   0.005787   0.114292  -0.011923   0.027367
     5  O    0.047543  -0.070935   0.006103  -0.020093  -0.002256   0.000637
     6  O    0.145840  -0.039274  -0.090467  -0.014768   0.016427  -0.000666
     7  C    5.452423   0.009404   0.446554   0.413250  -0.054612  -0.032866
     8  C    0.009404   5.481843  -0.063484  -0.035614   0.404131   0.413491
     9  H    0.446554  -0.063484   0.538314  -0.037980   0.000249  -0.011730
    10  H    0.413250  -0.035614  -0.037980   0.522880  -0.006265   0.006534
    11  H   -0.054612   0.404131   0.000249  -0.006265   0.535594  -0.035076
    12  H   -0.032866   0.413491  -0.011730   0.006534  -0.035076   0.545266
    13  H    0.002903   0.380307   0.011590  -0.011923  -0.033979  -0.045667
    14  O   -0.015235   0.024855   0.000422  -0.002419   0.001989  -0.002059
    15  H    0.001898   0.001264   0.000436  -0.000540   0.000139  -0.001177
              13         14         15
     1  C    0.007743  -0.340357  -0.113513
     2  H   -0.000236  -0.006983  -0.003350
     3  C    0.017740   0.431466   0.119265
     4  C   -0.054894  -0.211312   0.016229
     5  O    0.007886  -0.004538   0.000283
     6  O   -0.018468   0.035034  -0.003548
     7  C    0.002903  -0.015235   0.001898
     8  C    0.380307   0.024855   0.001264
     9  H    0.011590   0.000422   0.000436
    10  H   -0.011923  -0.002419  -0.000540
    11  H   -0.033979   0.001989   0.000139
    12  H   -0.045667  -0.002059  -0.001177
    13  H    0.541021  -0.000430   0.000699
    14  O   -0.000430   8.087451   0.248753
    15  H    0.000699   0.248753   0.512121
          Atomic-Atomic Spin Densities.
               1          2          3          4          5          6
     1  C    1.776347   0.059237  -0.608950  -0.273840  -0.001635  -0.040804
     2  H    0.059237  -0.013091  -0.045131  -0.016405   0.000013  -0.000664
     3  C   -0.608950  -0.045131   0.219131   0.208471  -0.007451   0.002973
     4  C   -0.273840  -0.016405   0.208471  -0.101382   0.012309   0.022951
     5  O   -0.001635   0.000013  -0.007451   0.012309  -0.014290  -0.000246
     6  O   -0.040804  -0.000664   0.002973   0.022951  -0.000246   0.004651
     7  C   -0.038250  -0.000546  -0.021247   0.031181  -0.000889   0.006455
     8  C    0.027278   0.000250   0.022671  -0.029990   0.001025  -0.005196
     9  H   -0.001262  -0.000024  -0.002343   0.001559   0.000014   0.000207
    10  H    0.002400   0.000009   0.004001  -0.006247   0.000119   0.000306
    11  H    0.000735   0.000007   0.000413  -0.000498   0.000023  -0.000201
    12  H   -0.003180  -0.000031  -0.002822   0.004811  -0.000069   0.000386
    13  H   -0.008803  -0.000058  -0.015412   0.018242  -0.000486   0.000719
    14  O   -0.338953  -0.004068  -0.002884   0.179861   0.001731   0.006620
    15  H    0.034650   0.000534  -0.006417  -0.019996  -0.000127  -0.000671
               7          8          9         10         11         12
     1  C   -0.038250   0.027278  -0.001262   0.002400   0.000735  -0.003180
     2  H   -0.000546   0.000250  -0.000024   0.000009   0.000007  -0.000031
     3  C   -0.021247   0.022671  -0.002343   0.004001   0.000413  -0.002822
     4  C    0.031181  -0.029990   0.001559  -0.006247  -0.000498   0.004811
     5  O   -0.000889   0.001025   0.000014   0.000119   0.000023  -0.000069
     6  O    0.006455  -0.005196   0.000207   0.000306  -0.000201   0.000386
     7  C    0.023132  -0.015345   0.001675  -0.001129  -0.000761   0.001567
     8  C   -0.015345   0.009706  -0.001135   0.000755   0.000966  -0.001504
     9  H    0.001675  -0.001135   0.000562   0.000037  -0.000067   0.000079
    10  H   -0.001129   0.000755   0.000037  -0.000675   0.000150  -0.000008
    11  H   -0.000761   0.000966  -0.000067   0.000150  -0.000147  -0.000145
    12  H    0.001567  -0.001504   0.000079  -0.000008  -0.000145   0.000367
    13  H    0.005913  -0.003908   0.000587   0.000082  -0.000366   0.000130
    14  O    0.009806  -0.004059   0.000540   0.000069  -0.000159  -0.000100
    15  H   -0.001662   0.000861  -0.000178   0.000037   0.000032  -0.000075
              13         14         15
     1  C   -0.008803  -0.338953   0.034650
     2  H   -0.000058  -0.004068   0.000534
     3  C   -0.015412  -0.002884  -0.006417
     4  C    0.018242   0.179861  -0.019996
     5  O   -0.000486   0.001731  -0.000127
     6  O    0.000719   0.006620  -0.000671
     7  C    0.005913   0.009806  -0.001662
     8  C   -0.003908  -0.004059   0.000861
     9  H    0.000587   0.000540  -0.000178
    10  H    0.000082   0.000069   0.000037
    11  H   -0.000366  -0.000159   0.000032
    12  H    0.000130  -0.000100  -0.000075
    13  H    0.001410   0.000968  -0.000445
    14  O    0.000968   0.830692   0.005995
    15  H   -0.000445   0.005995  -0.027560
 Mulliken charges and spin densities:
               1          2
     1  C   -0.226875   0.584971
     2  H    0.210781  -0.019968
     3  C    0.414124  -0.254994
     4  C   -0.390559   0.031027
     5  O   -0.189967  -0.009958
     6  O    0.001791  -0.002514
     7  C   -0.280312  -0.000100
     8  C   -0.423798   0.002377
     9  H    0.191885   0.000252
    10  H    0.192744  -0.000094
    11  H    0.167559  -0.000019
    12  H    0.162518  -0.000594
    13  H    0.195707  -0.001425
    14  O   -0.246640   0.686061
    15  H    0.221042  -0.015021
 Sum of Mulliken charges =  -0.00000   1.00000
 Mulliken charges and spin densities with hydrogens summed into heavy atoms:
               1          2
     1  C   -0.016093   0.565003
     3  C    0.414124  -0.254994
     4  C   -0.390559   0.031027
     5  O   -0.189967  -0.009958
     6  O    0.001791  -0.002514
     7  C    0.104317   0.000058
     8  C    0.101986   0.000339
    14  O   -0.025599   0.671040
 APT charges:
               1
     1  C   -0.105500
     2  H    0.240353
     3  C   -0.469425
     4  C    1.446940
     5  O   -0.764509
     6  O   -0.938284
     7  C    0.533277
     8  C   -0.042914
     9  H   -0.014495
    10  H   -0.010342
    11  H    0.011228
    12  H    0.012101
    13  H    0.030907
    14  O   -0.173988
    15  H    0.244653
 Sum of APT charges =   0.00000
 APT charges with hydrogens summed into heavy atoms:
               1
     1  C    0.134852
     3  C   -0.469425
     4  C    1.446940
     5  O   -0.764509
     6  O   -0.938284
     7  C    0.508440
     8  C    0.011321
    14  O    0.070664
 Electronic spatial extent (au):  <R**2>=           1065.5954
 Charge=             -0.0000 electrons
 Dipole moment (field-independent basis, Debye):
    X=              0.0516    Y=              0.2481    Z=             -3.1487  Tot=              3.1588
 Quadrupole moment (field-independent basis, Debye-Ang):
   XX=            -32.7115   YY=            -48.7148   ZZ=            -51.1705
   XY=              1.8669   XZ=              3.4529   YZ=             -0.3519
 Traceless Quadrupole moment (field-independent basis, Debye-Ang):
   XX=             11.4875   YY=             -4.5159   ZZ=             -6.9716
   XY=              1.8669   XZ=              3.4529   YZ=             -0.3519
 Octapole moment (field-independent basis, Debye-Ang**2):
  XXX=            -28.3794  YYY=              8.5003  ZZZ=             -1.1493  XYY=              1.6968
  XXY=             -7.6691  XXZ=            -15.4576  XZZ=              3.3716  YZZ=              4.4617
  YYZ=             -9.8548  XYZ=              5.1209
 Hexadecapole moment (field-independent basis, Debye-Ang**3):
 XXXX=           -757.4225 YYYY=           -254.1059 ZZZZ=           -166.0614 XXXY=             16.6572
 XXXZ=             36.6593 YYYX=            -18.3751 YYYZ=            -11.9177 ZZZX=             -7.3805
 ZZZY=              0.2764 XXYY=           -211.6119 XXZZ=           -188.9444 YYZZ=            -76.8685
 XXYZ=             -4.7691 YYXZ=              8.7439 ZZXY=             -3.3406
 N-N= 3.626514331126D+02 E-N=-1.710010207199D+03  KE= 4.187942979383D+02
  Exact polarizability:  90.740   7.857  75.250   5.581   2.333  58.836
 Approx polarizability:  96.373   8.171  82.769   9.311  -1.304  75.703
                          Isotropic Fermi Contact Couplings
        Atom                 a.u.       MegaHertz       Gauss      10(-4) cm-1
     1  C(13)              0.06642      74.66812      26.64344      24.90660
     2  H(1)              -0.00807     -36.06674     -12.86951     -12.03057
     3  C(13)              0.00378       4.25428       1.51803       1.41907
     4  C(13)              0.02035      22.87757       8.16329       7.63114
     5  O(17)             -0.00372       2.25306       0.80395       0.75154
     6  O(17)              0.00072      -0.43854      -0.15648      -0.14628
     7  C(13)              0.00003       0.03283       0.01171       0.01095
     8  C(13)             -0.00063      -0.70623      -0.25200      -0.23557
     9  H(1)               0.00004       0.16529       0.05898       0.05513
    10  H(1)              -0.00006      -0.24958      -0.08906      -0.08325
    11  H(1)              -0.00002      -0.06912      -0.02467      -0.02306
    12  H(1)               0.00001       0.05981       0.02134       0.01995
    13  H(1)               0.00001       0.04471       0.01595       0.01491
    14  O(17)              0.13072     -79.24335     -28.27600     -26.43274
    15  H(1)              -0.01196     -53.44939     -19.07207     -17.82880
 --------------------------------------------------------
       Center         ----  Spin Dipole Couplings  ----
                      3XX-RR        3YY-RR        3ZZ-RR
 --------------------------------------------------------
     1   Atom       -0.296492      0.470578     -0.174086
     2   Atom        0.038981     -0.008392     -0.030589
     3   Atom        0.098625     -0.045881     -0.052745
     4   Atom        0.009535      0.009230     -0.018766
     5   Atom        0.019523     -0.022751      0.003228
     6   Atom        0.008473     -0.017457      0.008984
     7   Atom        0.002841     -0.000950     -0.001891
     8   Atom        0.002859     -0.001395     -0.001464
     9   Atom        0.001273     -0.000702     -0.000571
    10   Atom        0.001241     -0.000057     -0.001184
    11   Atom        0.001521     -0.000713     -0.000807
    12   Atom        0.003725     -0.001882     -0.001843
    13   Atom        0.003204     -0.001500     -0.001704
    14   Atom       -0.873133      1.809113     -0.935979
    15   Atom       -0.087635     -0.008867      0.096501
 --------------------------------------------------------
                        XY            XZ            YZ
 --------------------------------------------------------
     1   Atom       -0.055623     -0.031972      0.148861
     2   Atom        0.004944      0.015914      0.007450
     3   Atom       -0.013777      0.031054      0.001188
     4   Atom       -0.020034      0.001004      0.003506
     5   Atom       -0.054703     -0.027400     -0.027290
     6   Atom       -0.010818     -0.011363      0.001920
     7   Atom       -0.002379     -0.000908      0.000462
     8   Atom       -0.001171     -0.000160      0.000066
     9   Atom       -0.000772     -0.000981      0.000393
    10   Atom       -0.001264     -0.000175      0.000158
    11   Atom       -0.000341      0.000058      0.000030
    12   Atom        0.000196     -0.000742      0.000074
    13   Atom       -0.001318      0.001383     -0.000258
    14   Atom        1.265591      0.478579      1.219254
    15   Atom        0.013265      0.023379     -0.070262
 --------------------------------------------------------


 ---------------------------------------------------------------------------------
              Anisotropic Spin Dipole Couplings in Principal Axis System
 ---------------------------------------------------------------------------------

       Atom             a.u.   MegaHertz   Gauss  10(-4) cm-1        Axes

              Baa    -0.3049   -40.917   -14.600   -13.648  0.9785  0.0311  0.2038
     1 C(13)  Bbb    -0.2030   -27.245    -9.722    -9.088 -0.1917 -0.2268  0.9549
              Bcc     0.5079    68.162    24.322    22.736 -0.0759  0.9734  0.2160
 
              Baa    -0.0355   -18.949    -6.761    -6.321 -0.1889 -0.2279  0.9552
     2 H(1)   Bbb    -0.0077    -4.129    -1.473    -1.377 -0.1693  0.9657  0.1969
              Bcc     0.0433    23.078     8.235     7.698  0.9673  0.1245  0.2210
 
              Baa    -0.0600    -8.050    -2.873    -2.685 -0.2079 -0.2818  0.9367
     3 C(13)  Bbb    -0.0459    -6.162    -2.199    -2.055  0.0280  0.9555  0.2936
              Bcc     0.1059    14.212     5.071     4.741  0.9778 -0.0872  0.1907
 
              Baa    -0.0199    -2.674    -0.954    -0.892 -0.2054 -0.2547  0.9449
     4 C(13)  Bbb    -0.0096    -1.282    -0.457    -0.428  0.6765  0.6608  0.3252
              Bcc     0.0295     3.956     1.412     1.320  0.7073 -0.7060 -0.0366
 
              Baa    -0.0781     5.651     2.017     1.885  0.5303  0.7336  0.4249
     5 O(17)  Bbb     0.0199    -1.438    -0.513    -0.480 -0.0972 -0.4452  0.8901
              Bcc     0.0582    -4.214    -1.503    -1.405  0.8422 -0.5134 -0.1649
 
              Baa    -0.0215     1.558     0.556     0.520  0.3638  0.9283  0.0771
     6 O(17)  Bbb    -0.0007     0.048     0.017     0.016  0.5892 -0.2934  0.7528
              Bcc     0.0222    -1.606    -0.573    -0.536  0.7214 -0.2285 -0.6537
 
              Baa    -0.0021    -0.283    -0.101    -0.094  0.3242  0.8403 -0.4345
     7 C(13)  Bbb    -0.0021    -0.275    -0.098    -0.092  0.3258  0.3321  0.8852
              Bcc     0.0042     0.558     0.199     0.186  0.8881 -0.4285 -0.1661
 
              Baa    -0.0017    -0.228    -0.081    -0.076  0.2440  0.9640 -0.1057
     8 C(13)  Bbb    -0.0015    -0.197    -0.070    -0.066  0.0620  0.0932  0.9937
              Bcc     0.0032     0.425     0.152     0.142  0.9678 -0.2490 -0.0370
 
              Baa    -0.0010    -0.555    -0.198    -0.185  0.1168 -0.6277  0.7697
     9 H(1)   Bbb    -0.0009    -0.499    -0.178    -0.167  0.4768  0.7153  0.5109
              Bcc     0.0020     1.054     0.376     0.352  0.8712 -0.3073 -0.3829
 
              Baa    -0.0012    -0.643    -0.230    -0.215  0.0004 -0.1361  0.9907
    10 H(1)   Bbb    -0.0008    -0.439    -0.157    -0.147  0.5257  0.8428  0.1156
              Bcc     0.0020     1.083     0.386     0.361  0.8507 -0.5208 -0.0719
 
              Baa    -0.0008    -0.443    -0.158    -0.148 -0.0925 -0.4897  0.8670
    11 H(1)   Bbb    -0.0007    -0.396    -0.141    -0.132  0.1166  0.8594  0.4978
              Bcc     0.0016     0.839     0.299     0.280  0.9889 -0.1471  0.0224
 
              Baa    -0.0020    -1.076    -0.384    -0.359  0.1219 -0.6108  0.7823
    12 H(1)   Bbb    -0.0018    -0.967    -0.345    -0.323  0.0536  0.7911  0.6093
              Bcc     0.0038     2.043     0.729     0.681  0.9911  0.0323 -0.1292
 
              Baa    -0.0021    -1.117    -0.398    -0.373 -0.3094 -0.2948  0.9041
    13 H(1)   Bbb    -0.0018    -0.964    -0.344    -0.322  0.1461  0.9247  0.3516
              Bcc     0.0039     2.081     0.742     0.694  0.9396 -0.2409  0.2430
 
              Baa    -1.3995   101.266    36.134    33.779  0.0793 -0.3813  0.9210
    14 O(17)  Bbb    -1.3749    99.485    35.499    33.185  0.9342 -0.2939 -0.2022
              Bcc     2.7744  -200.751   -71.633   -66.963  0.3478  0.8765  0.3329
 
              Baa    -0.0979   -52.215   -18.632   -17.417  0.9221 -0.3149 -0.2248
    15 H(1)   Bbb    -0.0348   -18.571    -6.627    -6.195  0.3807  0.8418  0.3827
              Bcc     0.1327    70.786    25.258    23.612  0.0687 -0.4384  0.8961
 

 ---------------------------------------------------------------------------------

 Calling FoFJK, ICntrl=    100127 FMM=F ISym2X=0 I1Cent= 0 IOpClX= 1 NMat=1 NMatS=1 NMatT=0.
 Full mass-weighted force constant matrix:
 Low frequencies --- -644.5057  -11.0131   -0.0005   -0.0005    0.0005   17.0177
 Low frequencies ---   21.2825   49.7698   69.0637
 ******    1 imaginary frequencies (negative Signs) ****** 
 Diagonal vibrational polarizability:
      313.4190195      54.8480596      24.0756069
 Harmonic frequencies (cm**-1), IR intensities (KM/Mole), Raman scattering
 activities (A**4/AMU), depolarization ratios for plane and unpolarized
 incident light, reduced masses (AMU), force constants (mDyne/A),
 and normal coordinates:
                      1                      2                      3
                      A                      A                      A
 Frequencies --   -644.5057                41.4170                68.6604
 Red. masses --     12.3598                 3.0600                 3.8144
 Frc consts  --      3.0249                 0.0031                 0.0106
 IR Inten    --     60.8243                12.7760                 2.2165
  Atom  AN      X      Y      Z        X      Y      Z        X      Y      Z
     1   6     0.04  -0.08  -0.01     0.03   0.01  -0.18    -0.02   0.13   0.03
     2   1     0.04  -0.15  -0.03     0.05  -0.02  -0.25    -0.03   0.24   0.06
     3   6     0.03   0.79   0.21     0.01   0.02  -0.07     0.01  -0.00   0.00
     4   6     0.01   0.04   0.01     0.00   0.03  -0.01    -0.01  -0.11  -0.02
     5   8    -0.03  -0.02  -0.02    -0.03   0.15   0.08    -0.03  -0.12  -0.03
     6   8     0.00  -0.02  -0.01     0.02  -0.10  -0.04    -0.00  -0.13  -0.03
     7   6     0.01  -0.01  -0.00     0.02  -0.08   0.02     0.00   0.04   0.07
     8   6    -0.00  -0.00  -0.00    -0.01   0.04  -0.10    -0.21   0.23  -0.03
     9   1     0.00  -0.00  -0.00     0.04  -0.20   0.02     0.06  -0.03   0.09
    10   1     0.01  -0.01  -0.00     0.01  -0.03   0.14     0.09   0.11   0.21
    11   1    -0.00  -0.00  -0.00    -0.02   0.05  -0.05    -0.21   0.37   0.10
    12   1    -0.01  -0.00  -0.00    -0.00  -0.01  -0.23    -0.28   0.14  -0.19
    13   1    -0.01   0.00  -0.00    -0.04   0.16  -0.10    -0.30   0.31  -0.06
    14   8    -0.03  -0.49  -0.13     0.02  -0.07   0.22     0.23  -0.03   0.00
    15   1     0.04  -0.19   0.01    -0.66   0.17   0.40     0.34  -0.03  -0.01
                      4                      5                      6
                      A                      A                      A
 Frequencies --    100.3713               134.8515               179.6872
 Red. masses --      2.1344                 1.9460                 2.3157
 Frc consts  --      0.0127                 0.0209                 0.0441
 IR Inten    --     34.5438                21.7326                18.4949
  Atom  AN      X      Y      Z        X      Y      Z        X      Y      Z
     1   6     0.02   0.04  -0.12     0.02   0.02  -0.10     0.03  -0.02  -0.13
     2   1     0.04   0.09  -0.22     0.04   0.08  -0.19     0.07  -0.05  -0.30
     3   6    -0.01  -0.01   0.02     0.00  -0.03   0.02    -0.02  -0.01   0.06
     4   6    -0.02  -0.02   0.06     0.00   0.01   0.04    -0.02  -0.02   0.10
     5   8    -0.03  -0.09   0.02     0.07   0.12   0.07    -0.01  -0.09   0.06
     6   8    -0.01   0.05   0.09    -0.05  -0.04  -0.04    -0.07   0.05   0.10
     7   6    -0.01  -0.02   0.03    -0.04   0.03  -0.08    -0.06   0.06  -0.05
     8   6     0.11   0.07  -0.15    -0.08  -0.06   0.05     0.03   0.01  -0.04
     9   1    -0.05  -0.19  -0.00    -0.07   0.19  -0.08    -0.17   0.14  -0.09
    10   1    -0.06   0.02   0.16     0.04  -0.01  -0.22     0.01   0.04  -0.14
    11   1     0.10  -0.02  -0.14    -0.07   0.03  -0.05     0.08   0.18  -0.38
    12   1     0.21   0.03  -0.30    -0.21  -0.02   0.22    -0.26   0.03   0.17
    13   1     0.10   0.27  -0.13     0.00  -0.26   0.07     0.33  -0.21   0.08
    14   8    -0.09  -0.01   0.05     0.02  -0.05   0.04     0.14   0.01  -0.07
    15   1     0.71  -0.10  -0.07     0.77  -0.13  -0.08    -0.53   0.04   0.02
                      7                      8                      9
                      A                      A                      A
 Frequencies --    189.6918               227.9154               260.3762
 Red. masses --      4.4192                 1.5772                 2.9833
 Frc consts  --      0.0937                 0.0483                 0.1192
 IR Inten    --      1.7742                 4.5932                 4.9769
  Atom  AN      X      Y      Z        X      Y      Z        X      Y      Z
     1   6    -0.11  -0.17   0.04    -0.06   0.03   0.07    -0.07   0.26   0.01
     2   1    -0.13  -0.26   0.12    -0.09   0.09   0.20    -0.10   0.62   0.05
     3   6    -0.09  -0.09  -0.09    -0.02  -0.02  -0.09    -0.01  -0.13  -0.01
     4   6    -0.07   0.07  -0.04    -0.01   0.00  -0.04     0.02  -0.05   0.02
     5   8    -0.09   0.13  -0.00    -0.08   0.04   0.00     0.07   0.03   0.05
     6   8    -0.04   0.17   0.02     0.05  -0.01   0.00    -0.01   0.01   0.03
     7   6    -0.06   0.04   0.04     0.05  -0.00   0.04     0.00   0.07  -0.03
     8   6     0.10  -0.01   0.01     0.07   0.03  -0.01     0.06   0.00   0.02
     9   1    -0.04  -0.05   0.04     0.05  -0.03   0.03    -0.04   0.13  -0.04
    10   1    -0.17   0.03   0.07     0.05   0.01   0.06     0.05   0.05  -0.09
    11   1     0.05  -0.35   0.22     0.15   0.35  -0.46     0.03  -0.22   0.17
    12   1     0.49   0.02  -0.14    -0.39   0.01   0.20     0.32   0.04  -0.03
    13   1    -0.11   0.23  -0.07     0.49  -0.23   0.16    -0.08   0.10  -0.04
    14   8     0.29  -0.15   0.01    -0.02  -0.06   0.01    -0.05  -0.19  -0.08
    15   1     0.31  -0.08   0.03     0.15  -0.03   0.01    -0.42  -0.16  -0.02
                     10                     11                     12
                      A                      A                      A
 Frequencies --    339.2688               430.1678               561.3042
 Red. masses --      2.9805                 3.7843                 4.0462
 Frc consts  --      0.2021                 0.4126                 0.7511
 IR Inten    --     11.8413                 1.7036                 5.5653
  Atom  AN      X      Y      Z        X      Y      Z        X      Y      Z
     1   6    -0.01   0.04  -0.03     0.08   0.02   0.05    -0.19   0.01  -0.06
     2   1     0.01   0.10  -0.10     0.05   0.09   0.21    -0.11  -0.12  -0.43
     3   6    -0.02  -0.04   0.07     0.12  -0.03  -0.14    -0.23  -0.06   0.26
     4   6     0.01   0.05  -0.03     0.07   0.06   0.06    -0.02   0.08  -0.01
     5   8     0.20   0.03  -0.11    -0.10  -0.02   0.07    -0.02   0.02  -0.06
     6   8    -0.03   0.14  -0.02     0.08   0.19   0.14     0.14   0.02   0.03
     7   6    -0.09  -0.15   0.16     0.04  -0.11  -0.12     0.25  -0.07  -0.07
     8   6    -0.08  -0.03   0.00    -0.20  -0.08  -0.09     0.00  -0.00  -0.01
     9   1     0.07  -0.45   0.21    -0.03  -0.08  -0.16     0.16   0.04  -0.10
    10   1    -0.36  -0.10   0.41    -0.03  -0.14  -0.17     0.29  -0.10  -0.16
    11   1    -0.04   0.20  -0.21    -0.20   0.25   0.19     0.00   0.31   0.27
    12   1    -0.36  -0.11  -0.04    -0.42  -0.16  -0.17    -0.20  -0.08  -0.09
    13   1     0.12  -0.03   0.09    -0.44  -0.17  -0.21    -0.24  -0.10  -0.13
    14   8     0.01  -0.04  -0.02    -0.01  -0.06  -0.01     0.02   0.01   0.00
    15   1    -0.08  -0.07  -0.03    -0.01   0.01   0.02    -0.02  -0.22  -0.09
                     13                     14                     15
                      A                      A                      A
 Frequencies --    598.2672               637.2496               719.1297
 Red. masses --      5.1757                 1.3321                 1.2990
 Frc consts  --      1.0915                 0.3187                 0.3958
 IR Inten    --      7.8374                30.4014                39.8997
  Atom  AN      X      Y      Z        X      Y      Z        X      Y      Z
     1   6    -0.24  -0.01  -0.03    -0.01  -0.15  -0.04     0.03   0.03  -0.14
     2   1    -0.28  -0.36   0.21    -0.12   0.95   0.21    -0.18  -0.24   0.93
     3   6    -0.15   0.15  -0.30    -0.02   0.03   0.01    -0.02  -0.01   0.06
     4   6    -0.04  -0.06   0.09    -0.01  -0.01  -0.01     0.00  -0.00  -0.01
     5   8     0.29  -0.03   0.00     0.01   0.01  -0.00    -0.00   0.00   0.00
     6   8     0.01  -0.06   0.18     0.01   0.00   0.01    -0.00   0.00   0.00
     7   6     0.04  -0.03  -0.00     0.02  -0.01  -0.00     0.01  -0.00  -0.00
     8   6    -0.01  -0.01  -0.01     0.00  -0.00  -0.00     0.00   0.00   0.00
     9   1    -0.13   0.14  -0.07     0.00   0.01  -0.01     0.00  -0.00  -0.00
    10   1     0.20  -0.06  -0.15     0.02  -0.01  -0.02     0.00  -0.00  -0.00
    11   1    -0.01   0.08   0.07     0.00   0.02   0.02     0.00   0.01   0.01
    12   1    -0.05  -0.04  -0.08    -0.01  -0.01  -0.01    -0.00  -0.00  -0.00
    13   1    -0.08   0.02  -0.05    -0.02  -0.00  -0.01    -0.00  -0.00  -0.00
    14   8     0.00   0.04   0.00     0.01   0.03   0.01     0.00   0.01   0.00
    15   1     0.10   0.47   0.18    -0.01   0.07   0.03    -0.02  -0.14  -0.06
                     16                     17                     18
                      A                      A                      A
 Frequencies --    766.5171               799.2966               813.0596
 Red. masses --      9.0693                 1.1951                 1.1797
 Frc consts  --      3.1395                 0.4499                 0.4595
 IR Inten    --     45.4521                14.6528                56.8272
  Atom  AN      X      Y      Z        X      Y      Z        X      Y      Z
     1   6    -0.00  -0.01  -0.01     0.02   0.00   0.01     0.02   0.01  -0.01
     2   1    -0.06   0.22   0.21     0.04   0.01  -0.04     0.02  -0.04   0.05
     3   6     0.00  -0.11  -0.09     0.02   0.01  -0.01     0.00  -0.04   0.07
     4   6     0.06   0.67   0.34    -0.02  -0.01  -0.04    -0.00  -0.02  -0.03
     5   8    -0.01  -0.17  -0.14    -0.00   0.03  -0.04    -0.02   0.01  -0.00
     6   8    -0.01  -0.20  -0.06     0.01  -0.01   0.04     0.00   0.01  -0.01
     7   6    -0.05  -0.01   0.03    -0.03  -0.04   0.06    -0.00  -0.02   0.02
     8   6    -0.02   0.01   0.02    -0.01  -0.03   0.02     0.00  -0.01   0.01
     9   1    -0.06   0.22   0.04    -0.09   0.47   0.07    -0.00   0.19   0.04
    10   1     0.13  -0.04  -0.13     0.11  -0.19  -0.41     0.03  -0.09  -0.17
    11   1    -0.01  -0.11  -0.13     0.01   0.06  -0.16     0.01   0.05  -0.06
    12   1     0.09   0.00  -0.07    -0.05  -0.19  -0.36    -0.03  -0.09  -0.17
    13   1     0.13   0.17   0.10     0.11   0.38   0.10     0.04   0.17   0.05
    14   8     0.00  -0.09  -0.02     0.00   0.01   0.02    -0.01  -0.03  -0.05
    15   1     0.06   0.11   0.06    -0.07  -0.37  -0.14     0.16   0.84   0.31
                     19                     20                     21
                      A                      A                      A
 Frequencies --    895.9058               922.5473              1072.9127
 Red. masses --      3.2948                 2.6882                 4.0933
 Frc consts  --      1.5582                 1.3480                 2.7762
 IR Inten    --     16.5079                 5.9583                24.4202
  Atom  AN      X      Y      Z        X      Y      Z        X      Y      Z
     1   6     0.05   0.01   0.01    -0.11  -0.01  -0.03     0.07   0.01   0.02
     2   1     0.06   0.01  -0.02    -0.12  -0.01  -0.03     0.07   0.01   0.04
     3   6     0.02  -0.03   0.07    -0.07   0.02   0.01     0.04  -0.00  -0.03
     4   6    -0.06   0.03  -0.11     0.15  -0.03   0.03    -0.15   0.00   0.04
     5   8    -0.00   0.09  -0.15    -0.01  -0.06   0.11     0.02   0.00  -0.01
     6   8     0.12  -0.09   0.22     0.15   0.06  -0.09    -0.21   0.04  -0.03
     7   6    -0.08   0.08   0.04    -0.04   0.09   0.05     0.32   0.12   0.16
     8   6    -0.11  -0.03  -0.11    -0.15  -0.08  -0.06    -0.07  -0.14  -0.12
     9   1    -0.25  -0.02  -0.04     0.31   0.17   0.20     0.35   0.24   0.19
    10   1     0.26   0.21   0.23    -0.03   0.10   0.07     0.40   0.18   0.25
    11   1    -0.14  -0.51  -0.22    -0.14  -0.51  -0.52    -0.07  -0.24  -0.19
    12   1     0.18   0.18   0.27     0.16  -0.04  -0.13    -0.04  -0.18  -0.20
    13   1     0.02  -0.34  -0.08     0.22   0.12   0.12    -0.06  -0.24  -0.14
    14   8    -0.00  -0.01  -0.01     0.00   0.02   0.01     0.00  -0.01  -0.00
    15   1     0.03   0.10   0.04     0.00  -0.02  -0.01    -0.02   0.00   0.00
                     22                     23                     24
                      A                      A                      A
 Frequencies --   1128.0814              1202.9779              1276.2931
 Red. masses --      2.0954                 1.7797                 4.4719
 Frc consts  --      1.5711                 1.5175                 4.2918
 IR Inten    --     21.3647                 8.5979               555.8325
  Atom  AN      X      Y      Z        X      Y      Z        X      Y      Z
     1   6    -0.01  -0.00  -0.00    -0.02  -0.00  -0.00    -0.09  -0.01  -0.02
     2   1    -0.02  -0.00  -0.01    -0.02  -0.00  -0.01    -0.10  -0.01  -0.06
     3   6    -0.01   0.00   0.01    -0.00   0.00  -0.00    -0.01   0.01   0.01
     4   6     0.03   0.00  -0.00     0.07  -0.00  -0.01     0.42   0.05  -0.16
     5   8    -0.00  -0.00   0.00    -0.01  -0.02   0.03    -0.06   0.01  -0.01
     6   8     0.06  -0.04  -0.02    -0.01   0.04  -0.06    -0.21  -0.05   0.10
     7   6    -0.11   0.18   0.09    -0.03  -0.10   0.16     0.12   0.04   0.03
     8   6     0.11  -0.14  -0.07     0.03   0.07  -0.12    -0.02  -0.03   0.06
     9   1    -0.09   0.08   0.10    -0.33   0.37   0.07    -0.64  -0.21  -0.30
    10   1    -0.21   0.16   0.08     0.29  -0.21  -0.26    -0.02   0.09   0.18
    11   1     0.10   0.39   0.30    -0.03  -0.14   0.26     0.00   0.00  -0.15
    12   1    -0.41  -0.31  -0.22    -0.01   0.24   0.35     0.01  -0.15  -0.23
    13   1    -0.37  -0.14  -0.29    -0.08  -0.42  -0.20     0.01   0.09   0.07
    14   8    -0.00   0.00   0.00    -0.00   0.00   0.00    -0.00   0.01   0.00
    15   1     0.00  -0.00  -0.00     0.01  -0.00  -0.00     0.04   0.01   0.00
                     25                     26                     27
                      A                      A                      A
 Frequencies --   1344.5167              1401.3248              1430.4209
 Red. masses --      1.2022                 1.2699                 1.3656
 Frc consts  --      1.2805                 1.4693                 1.6462
 IR Inten    --     67.0099                18.9168                13.0112
  Atom  AN      X      Y      Z        X      Y      Z        X      Y      Z
     1   6     0.01   0.00   0.00    -0.01  -0.00  -0.00    -0.01  -0.00  -0.00
     2   1     0.01   0.00   0.01    -0.01  -0.00  -0.01    -0.01  -0.00  -0.01
     3   6     0.00   0.00  -0.00     0.00   0.00   0.00     0.00   0.00   0.00
     4   6    -0.05  -0.01   0.02     0.05   0.00  -0.01     0.05   0.00  -0.01
     5   8     0.01  -0.01   0.02    -0.01   0.01  -0.01    -0.01   0.01  -0.01
     6   8     0.04   0.04  -0.06    -0.04   0.00   0.03    -0.03   0.01   0.02
     7   6    -0.03  -0.01   0.00    -0.05  -0.03  -0.03    -0.08  -0.06  -0.06
     8   6    -0.00  -0.04   0.04    -0.02  -0.09  -0.07     0.08   0.06   0.06
     9   1    -0.54  -0.17  -0.23     0.34   0.22   0.16     0.43   0.23   0.18
    10   1     0.67   0.22   0.25     0.28   0.14   0.23     0.42   0.16   0.27
    11   1     0.01   0.07  -0.03    -0.00   0.40   0.30     0.06  -0.31  -0.18
    12   1    -0.02  -0.10  -0.09     0.17   0.15   0.38    -0.33  -0.13  -0.18
    13   1     0.02   0.17   0.07     0.21   0.37   0.08    -0.30  -0.16  -0.14
    14   8     0.00  -0.00  -0.00    -0.00   0.00   0.00    -0.00   0.00   0.00
    15   1    -0.01  -0.00  -0.00     0.00  -0.00  -0.00     0.01  -0.00  -0.00
                     28                     29                     30
                      A                      A                      A
 Frequencies --   1491.2305              1502.0257              1514.5003
 Red. masses --      1.0405                 1.0534                 1.0921
 Frc consts  --      1.3632                 1.4002                 1.4759
 IR Inten    --     10.8065                 1.3683                19.8817
  Atom  AN      X      Y      Z        X      Y      Z        X      Y      Z
     1   6     0.00  -0.00  -0.00    -0.00  -0.00  -0.00     0.00   0.00   0.00
     2   1     0.00   0.00   0.00    -0.00  -0.00  -0.00     0.01   0.00   0.00
     3   6    -0.00   0.00   0.00     0.00  -0.00  -0.00    -0.00  -0.00  -0.00
     4   6    -0.00   0.00  -0.00     0.01  -0.00   0.00    -0.03   0.00  -0.00
     5   8     0.00  -0.00   0.00    -0.00   0.00  -0.01     0.01  -0.01   0.01
     6   8     0.00   0.00  -0.00    -0.01   0.00   0.00     0.02  -0.00  -0.01
     7   6    -0.01  -0.02   0.01     0.00   0.03   0.03     0.05  -0.04  -0.02
     8   6    -0.02  -0.01   0.04     0.03  -0.03   0.00     0.02  -0.02  -0.00
     9   1    -0.00   0.14   0.03     0.11  -0.39   0.04    -0.29   0.47  -0.12
    10   1    -0.00   0.00   0.07     0.18  -0.11  -0.38    -0.38   0.06   0.41
    11   1     0.08   0.48  -0.44     0.04  -0.05  -0.34     0.02  -0.13  -0.19
    12   1     0.56   0.08  -0.07    -0.13   0.12   0.41    -0.19   0.07   0.31
    13   1    -0.34  -0.28  -0.15    -0.39   0.39  -0.15    -0.24   0.32  -0.09
    14   8     0.00  -0.00  -0.00    -0.00   0.00  -0.00    -0.00  -0.00  -0.00
    15   1    -0.00  -0.00  -0.00     0.00   0.00   0.00    -0.00   0.00   0.00
                     31                     32                     33
                      A                      A                      A
 Frequencies --   1854.8463              2086.5500              3075.9229
 Red. masses --     11.9800                 6.5083                 1.0354
 Frc consts  --     24.2842                16.6945                 5.7720
 IR Inten    --    348.2231                86.6231                 9.0199
  Atom  AN      X      Y      Z        X      Y      Z        X      Y      Z
     1   6    -0.10  -0.01  -0.02    -0.39  -0.05  -0.09    -0.00  -0.00  -0.00
     2   1    -0.15  -0.03  -0.01    -0.68  -0.09  -0.15    -0.00  -0.00  -0.00
     3   6     0.10   0.00   0.01     0.55  -0.02   0.11     0.00   0.00   0.00
     4   6     0.22  -0.38   0.64    -0.12   0.05  -0.05     0.00   0.00  -0.00
     5   8    -0.16   0.25  -0.42     0.01  -0.02   0.03     0.00   0.00   0.00
     6   8     0.01   0.03  -0.06    -0.00  -0.00   0.00    -0.00  -0.00   0.00
     7   6     0.03  -0.01   0.02     0.00   0.00  -0.00    -0.00   0.00   0.00
     8   6    -0.01   0.01   0.00    -0.00  -0.00  -0.00    -0.02  -0.04  -0.03
     9   1    -0.17   0.10  -0.06     0.01  -0.00  -0.00     0.00  -0.00  -0.01
    10   1    -0.13  -0.04   0.08     0.00   0.00  -0.00     0.00  -0.02   0.01
    11   1    -0.00  -0.02  -0.06     0.00   0.00   0.00     0.62  -0.06   0.06
    12   1     0.04   0.01  -0.01     0.00  -0.00  -0.00    -0.13   0.53  -0.23
    13   1    -0.04  -0.05  -0.01     0.00   0.00   0.00    -0.22  -0.05   0.46
    14   8    -0.00   0.01   0.00     0.00   0.03   0.01    -0.00  -0.00  -0.00
    15   1    -0.02   0.02   0.01    -0.01   0.01   0.01    -0.00  -0.00  -0.00
                     34                     35                     36
                      A                      A                      A
 Frequencies --   3107.6466              3151.4218              3155.3324
 Red. masses --      1.0609                 1.1017                 1.1046
 Frc consts  --      6.0364                 6.4467                 6.4798
 IR Inten    --     19.4572                14.0817                 3.1382
  Atom  AN      X      Y      Z        X      Y      Z        X      Y      Z
     1   6    -0.00  -0.00  -0.00    -0.00  -0.00  -0.00    -0.00  -0.00  -0.00
     2   1     0.00  -0.00   0.00     0.00  -0.00  -0.00    -0.00  -0.00  -0.00
     3   6     0.00  -0.00  -0.00     0.00   0.00   0.00     0.00  -0.00  -0.00
     4   6    -0.00  -0.00   0.00    -0.00  -0.00   0.00     0.00  -0.00   0.00
     5   8    -0.00   0.00  -0.00     0.00   0.00  -0.00    -0.00   0.00  -0.00
     6   8     0.00   0.00  -0.00    -0.00   0.00  -0.00    -0.00  -0.00  -0.00
     7   6     0.03  -0.06  -0.02     0.01   0.01  -0.03    -0.01  -0.03   0.04
     8   6    -0.01   0.01  -0.00     0.06  -0.06   0.03     0.06   0.01  -0.05
     9   1    -0.21  -0.05   0.50    -0.14  -0.03   0.32     0.17   0.03  -0.39
    10   1    -0.14   0.75  -0.31     0.01  -0.06   0.02    -0.06   0.33  -0.13
    11   1     0.13  -0.01   0.01    -0.60   0.04  -0.05    -0.45   0.04  -0.05
    12   1     0.01  -0.06   0.03    -0.14   0.64  -0.27     0.03  -0.08   0.03
    13   1     0.01   0.01  -0.02     0.04  -0.00  -0.05    -0.28  -0.06   0.62
    14   8     0.00  -0.00  -0.00     0.00  -0.00  -0.00     0.00  -0.00  -0.00
    15   1    -0.00   0.00   0.00    -0.00  -0.00   0.00    -0.00  -0.00   0.00
                     37                     38                     39
                      A                      A                      A
 Frequencies --   3175.4817              3470.0815              3823.6360
 Red. masses --      1.1071                 1.1453                 1.0675
 Frc consts  --      6.5774                 8.1252                 9.1957
 IR Inten    --     14.3336                73.1820                51.8253
  Atom  AN      X      Y      Z        X      Y      Z        X      Y      Z
     1   6    -0.00  -0.00  -0.00    -0.11  -0.01  -0.02     0.00   0.00   0.00
     2   1     0.00   0.00   0.00     0.97   0.05   0.20    -0.00  -0.00  -0.00
     3   6     0.00  -0.00   0.00     0.03   0.00   0.01    -0.00  -0.00  -0.00
     4   6    -0.00   0.00  -0.00    -0.00   0.00  -0.00    -0.00   0.00  -0.00
     5   8     0.00  -0.00   0.00     0.00  -0.00  -0.00     0.00  -0.00   0.00
     6   8     0.00  -0.00   0.00     0.00   0.00  -0.00     0.00   0.00  -0.00
     7   6     0.02   0.04  -0.06    -0.00  -0.00   0.00    -0.00   0.00   0.00
     8   6     0.02   0.03  -0.05     0.00  -0.00   0.00     0.00  -0.00   0.00
     9   1    -0.24  -0.04   0.58     0.00   0.00  -0.00     0.00  -0.00  -0.00
    10   1     0.07  -0.38   0.15     0.00   0.00   0.00     0.00  -0.00   0.00
    11   1    -0.08   0.01  -0.02     0.00   0.00   0.00     0.00   0.00   0.00
    12   1     0.08  -0.34   0.14    -0.00   0.00  -0.00    -0.00   0.00  -0.00
    13   1    -0.22  -0.04   0.47    -0.00  -0.00  -0.00    -0.00  -0.00  -0.00
    14   8    -0.00   0.00  -0.00     0.00   0.00   0.00    -0.01   0.03  -0.06
    15   1     0.00  -0.00   0.00    -0.00  -0.00   0.00     0.10  -0.40   0.91

 -------------------
 - Thermochemistry -
 -------------------
 Temperature   298.150 Kelvin.  Pressure   1.00000 Atm.
 Atom     1 has atomic number  6 and mass  12.00000
 Atom     2 has atomic number  1 and mass   1.00783
 Atom     3 has atomic number  6 and mass  12.00000
 Atom     4 has atomic number  6 and mass  12.00000
 Atom     5 has atomic number  8 and mass  15.99491
 Atom     6 has atomic number  8 and mass  15.99491
 Atom     7 has atomic number  6 and mass  12.00000
 Atom     8 has atomic number  6 and mass  12.00000
 Atom     9 has atomic number  1 and mass   1.00783
 Atom    10 has atomic number  1 and mass   1.00783
 Atom    11 has atomic number  1 and mass   1.00783
 Atom    12 has atomic number  1 and mass   1.00783
 Atom    13 has atomic number  1 and mass   1.00783
 Atom    14 has atomic number  8 and mass  15.99491
 Atom    15 has atomic number  1 and mass   1.00783
 Molecular mass:   115.03952 amu.
 Principal axes and moments of inertia in atomic units:
                           1         2         3
     Eigenvalues --   493.291211378.591191530.90978
           X            0.99989   0.01239   0.00856
           Y           -0.01258   0.99967   0.02239
           Z           -0.00828  -0.02250   0.99971
 This molecule is an asymmetric top.
 Rotational symmetry number  1.
 Warning -- assumption of classical behavior for rotation
           may cause significant error
 Rotational temperatures (Kelvin)      0.17558     0.06283     0.05658
 Rotational constants (GHZ):           3.65857     1.30912     1.17887
    1 imaginary frequencies ignored.
 Zero-point vibrational energy     292791.3 (Joules/Mol)
                                   69.97881 (Kcal/Mol)
 Warning -- explicit consideration of  12 degrees of freedom as
           vibrations may cause significant error
 Vibrational temperatures:     59.59    98.79   144.41   194.02   258.53
          (Kelvin)            272.92   327.92   374.62   488.13   618.92
                              807.59   860.77   916.86  1034.67  1102.85
                             1150.01  1169.81  1289.01  1327.34  1543.68
                             1623.06  1730.82  1836.30  1934.46  2016.19
                             2058.06  2145.55  2161.08  2179.03  2668.71
                             3002.08  4425.57  4471.21  4534.19  4539.82
                             4568.81  4992.67  5501.36
 
 Zero-point correction=                           0.111518 (Hartree/Particle)
 Thermal correction to Energy=                    0.121273
 Thermal correction to Enthalpy=                  0.122217
 Thermal correction to Gibbs Free Energy=         0.075326
 Sum of electronic and zero-point Energies=           -420.090545
 Sum of electronic and thermal Energies=              -420.080790
 Sum of electronic and thermal Enthalpies=            -420.079845
 Sum of electronic and thermal Free Energies=         -420.126737
 
                     E (Thermal)             CV                S
                      KCal/Mol        Cal/Mol-Kelvin    Cal/Mol-Kelvin
 Total                   76.100             32.412             98.691
 Electronic               0.000              0.000              1.377
 Translational            0.889              2.981             40.136
 Rotational               0.889              2.981             28.434
 Vibrational             74.323             26.450             28.745
 Vibration     1          0.594              1.981              5.190
 Vibration     2          0.598              1.969              4.191
 Vibration     3          0.604              1.949              3.447
 Vibration     4          0.613              1.919              2.876
 Vibration     5          0.629              1.867              2.332
 Vibration     6          0.633              1.854              2.231
 Vibration     7          0.651              1.798              1.895
 Vibration     8          0.668              1.745              1.659
 Vibration     9          0.719              1.597              1.216
 Vibration    10          0.791              1.405              0.858
 Vibration    11          0.917              1.115              0.521
 Vibration    12          0.956              1.035              0.453
                       Q            Log10(Q)             Ln(Q)
 Total Bot       0.225142D-34        -34.647543        -79.778916
 Total V=0       0.443896D+17         16.647282         38.331783
 Vib (Bot)       0.635496D-48        -48.196887       -110.977434
 Vib (Bot)    1  0.499506D+01          0.698540          1.608449
 Vib (Bot)    2  0.300435D+01          0.477750          1.100061
 Vib (Bot)    3  0.204454D+01          0.310595          0.715171
 Vib (Bot)    4  0.150990D+01          0.178949          0.412046
 Vib (Bot)    5  0.111790D+01          0.048403          0.111451
 Vib (Bot)    6  0.105520D+01          0.023334          0.053729
 Vib (Bot)    7  0.864957D+00         -0.063006         -0.145076
 Vib (Bot)    8  0.745827D+00         -0.127362         -0.293262
 Vib (Bot)    9  0.547562D+00         -0.261567         -0.602280
 Vib (Bot)   10  0.404995D+00         -0.392551         -0.903881
 Vib (Bot)   11  0.276543D+00         -0.558237         -1.285389
 Vib (Bot)   12  0.250031D+00         -0.602006         -1.386169
 Vib (V=0)       0.125296D+04          3.097937          7.133264
 Vib (V=0)    1  0.552002D+01          0.741940          1.708381
 Vib (V=0)    2  0.354567D+01          0.549698          1.265728
 Vib (V=0)    3  0.260479D+01          0.415772          0.957351
 Vib (V=0)    4  0.209054D+01          0.320258          0.737421
 Vib (V=0)    5  0.172462D+01          0.236694          0.545008
 Vib (V=0)    6  0.166767D+01          0.222109          0.511425
 Vib (V=0)    7  0.149907D+01          0.175823          0.404848
 Vib (V=0)    8  0.139792D+01          0.145482          0.334984
 Vib (V=0)    9  0.124150D+01          0.093947          0.216321
 Vib (V=0)   10  0.114344D+01          0.058215          0.134045
 Vib (V=0)   11  0.107138D+01          0.029944          0.068948
 Vib (V=0)   12  0.105903D+01          0.024909          0.057354
 Electronic      0.200000D+01          0.301030          0.693147
 Translational   0.484981D+08          7.685724         17.697035
 Rotational      0.365250D+06          5.562590         12.808336
 ***** Axes restored to original set *****
 -------------------------------------------------------------------
 Center     Atomic                   Forces (Hartrees/Bohr)
 Number     Number              X              Y              Z
 -------------------------------------------------------------------
      1        6          -0.000082220   -0.000719786    0.000086149
      2        1          -0.000041219   -0.000104659    0.000018050
      3        6          -0.000505853    0.006702800   -0.001836031
      4        6          -0.000008343    0.000299155   -0.000072509
      5        8           0.000317716   -0.000203610    0.000204061
      6        8          -0.000024381   -0.000150123    0.000060274
      7        6          -0.000048899   -0.000059729    0.000028658
      8        6           0.000031524   -0.000020315    0.000018676
      9        1          -0.000003034   -0.000004878    0.000001333
     10        1          -0.000004635   -0.000005844   -0.000000142
     11        1           0.000003613   -0.000000982    0.000001426
     12        1           0.000005694   -0.000002709    0.000004321
     13        1           0.000004916    0.000001667    0.000003222
     14        8           0.000380445   -0.005557779    0.001554986
     15        1          -0.000025324   -0.000173209   -0.000072474
 -------------------------------------------------------------------
 Cartesian Forces:  Max     0.006702800 RMS     0.001357298

 GradGradGradGradGradGradGradGradGradGradGradGradGradGradGradGradGradGrad
 Berny optimization.
 Search for a local minimum.
 Step number   1 out of a maximum of    2
 All quantities printed in internal units (Hartrees-Bohrs-Radians)
 Second derivative matrix not updated -- analytic derivatives used.
 ITU=  0
     Eigenvalues ---   -0.20617   0.00019   0.00071   0.00134   0.00173
     Eigenvalues ---    0.00374   0.00669   0.01005   0.01428   0.01984
     Eigenvalues ---    0.03099   0.03500   0.03522   0.05166   0.06335
     Eigenvalues ---    0.07422   0.07663   0.08624   0.09513   0.10217
     Eigenvalues ---    0.11512   0.14169   0.16998   0.17674   0.20038
     Eigenvalues ---    0.28362   0.29360   0.43269   0.49431   0.62493
     Eigenvalues ---    0.69974   0.76464   0.79289   0.86245   0.88170
     Eigenvalues ---    0.92059   0.97111   1.75818   2.33944
 Eigenvalue     1 is  -2.06D-01 should be greater than     0.000000 Eigenvector:
                          Y3        Y14       Z3        Z14       Y1
   1                    0.76581  -0.57204  -0.19957   0.17527  -0.07112
                          Y15       Z15       X14       Y4        X3
   1                   -0.05173  -0.04305   0.03556   0.03277  -0.03227
 Angle between quadratic step and forces=  39.42 degrees.
 Linear search not attempted -- first point.
 B after Tr=    -0.000852   -0.000728    0.000494
         Rot=    1.000000   -0.000059    0.000060    0.000022 Ang=  -0.01 deg.
 Variable       Old X    -DE/DX   Delta X   Delta X   Delta X     New X
                                 (Linear)    (Quad)   (Total)
    X1        5.17649  -0.00008   0.00000  -0.00153  -0.00251   5.17398
    Y1       -0.77937  -0.00072   0.00000  -0.00177  -0.00282  -0.78219
    Z1        0.78457   0.00009   0.00000   0.00323   0.00426   0.78882
    X2        7.14601  -0.00004   0.00000  -0.00062  -0.00165   7.14436
    Y2       -0.87213  -0.00010   0.00000   0.00588   0.00469  -0.86744
    Z2        1.19363   0.00002   0.00000   0.00283   0.00407   1.19770
    X3        2.96117  -0.00051   0.00000  -0.00253  -0.00343   2.95774
    Y3       -0.43926   0.00670   0.00000   0.03236   0.03147  -0.40779
    Z3        0.24362  -0.00184   0.00000  -0.00596  -0.00516   0.23846
    X4        0.29990  -0.00001   0.00000  -0.00133  -0.00220   0.29770
    Y4       -1.08246   0.00030   0.00000   0.00188   0.00117  -1.08129
    Z4       -0.26854  -0.00007   0.00000   0.00032   0.00072  -0.26781
    X5       -0.38195   0.00032   0.00000   0.00136   0.00067  -0.38129
    Y5       -2.16912  -0.00020   0.00000   0.00331   0.00285  -2.16627
    Z5       -2.12931   0.00020   0.00000  -0.00119  -0.00100  -2.13031
    X6       -1.17500  -0.00002   0.00000  -0.00195  -0.00300  -1.17801
    Y6       -0.28733  -0.00015   0.00000  -0.00322  -0.00409  -0.29142
    Z6        1.60487   0.00006   0.00000   0.00115   0.00147   1.60633
    X7       -3.85760  -0.00005   0.00000  -0.00183  -0.00285  -3.86045
    Y7       -0.57308  -0.00006   0.00000  -0.00241  -0.00311  -0.57619
    Z7        1.20774   0.00003   0.00000  -0.00081  -0.00085   1.20689
    X8       -4.84493   0.00003   0.00000  -0.00105  -0.00177  -4.84670
    Y8        1.48217  -0.00002   0.00000   0.00005  -0.00040   1.48177
    Z8       -0.52609   0.00002   0.00000   0.00161   0.00170  -0.52439
    X9       -4.66107  -0.00000   0.00000  -0.00265  -0.00389  -4.66496
    Y9       -0.43598  -0.00000   0.00000  -0.00515  -0.00604  -0.44202
    Z9        3.09624   0.00000   0.00000  -0.00107  -0.00118   3.09506
   X10       -4.21706  -0.00000   0.00000  -0.00082  -0.00183  -4.21889
   Y10       -2.45223  -0.00001   0.00000  -0.00125  -0.00184  -2.45407
   Z10        0.44207  -0.00000   0.00000  -0.00391  -0.00421   0.43786
   X11       -6.89079   0.00000   0.00000  -0.00098  -0.00168  -6.89248
   Y11        1.30007  -0.00000   0.00000   0.00019  -0.00014   1.29992
   Z11       -0.72010   0.00000   0.00000   0.00034   0.00016  -0.71994
   X12       -4.41929   0.00001   0.00000  -0.00161  -0.00234  -4.42164
   Y12        3.34386  -0.00000   0.00000  -0.00104  -0.00160   3.34226
   Z12        0.24973   0.00000   0.00000   0.00445   0.00481   0.25453
   X13       -3.99411   0.00000   0.00000  -0.00016  -0.00067  -3.99478
   Y13        1.32560   0.00000   0.00000   0.00271   0.00244   1.32805
   Z13       -2.39588   0.00000   0.00000   0.00179   0.00196  -2.39391
   X14        2.65124   0.00038   0.00000   0.00009  -0.00054   2.65070
   Y14        3.11924  -0.00556   0.00000  -0.02980  -0.03055   3.08869
   Z14       -0.73360   0.00155   0.00000   0.00484   0.00602  -0.72758
   X15        2.82412  -0.00003   0.00000   0.02850   0.02771   2.85183
   Y15        3.84595  -0.00017   0.00000   0.00894   0.00798   3.85393
   Z15        0.93908  -0.00007   0.00000  -0.01405  -0.01276   0.92632
         Item               Value     Threshold  Converged?
 Maximum Force            0.006703     0.000450     NO 
 RMS     Force            0.001357     0.000300     NO 
 Maximum Displacement     0.031470     0.001800     NO 
 RMS     Displacement     0.008508     0.001200     NO 
 Predicted change in Energy=-6.012848D-04
 GradGradGradGradGradGradGradGradGradGradGradGradGradGradGradGradGradGrad


 ----------------------------------------------------------------------

 Electric dipole moment (input orientation):
 (Debye = 10**-18 statcoulomb cm , SI units = C m)
                  (au)            (Debye)         (10**-30 SI)
   Tot        0.124278D+01      0.315884D+01      0.105368D+02
   x         -0.200555D-01     -0.509761D-01     -0.170038D+00
   y          0.925394D-01      0.235212D+00      0.784582D+00
   z          0.123917D+01      0.314966D+01      0.105061D+02

 Dipole polarizability, Alpha (input orientation).
 (esu units = cm**3 , SI units = C**2 m**2 J**-1)
 Alpha(0;0):
               (au)            (10**-24 esu)      (10**-40 SI)
   iso        0.749420D+02      0.111053D+02      0.123563D+02
   aniso      0.325358D+02      0.482131D+01      0.536443D+01
   xx         0.907425D+02      0.134466D+02      0.149614D+02
   yx        -0.787982D+01     -0.116767D+01     -0.129921D+01
   yy         0.752682D+02      0.111536D+02      0.124101D+02
   zx         0.554313D+01      0.821406D+00      0.913938D+00
   zy        -0.226393D+01     -0.335479D+00     -0.373271D+00
   zz         0.588153D+02      0.871553D+01      0.969733D+01

 ----------------------------------------------------------------------

 Dipole orientation:
     6          5.18800415         -0.83250806          0.64071790
     1          7.16381639         -0.95428966          1.00990149
     6          2.96444974         -0.45439470          0.16241982
     6          0.29487561         -1.05927850         -0.35319626
     8         -0.41756870         -2.00477471         -2.27847373
     8         -1.14912438         -0.40674253          1.59776672
     6         -3.83794806         -0.66373609          1.22380503
     6         -4.85189140          1.51431398         -0.33600945
     1         -4.61075867         -0.66812480          3.12999369
     1         -4.21085146         -2.48088010          0.32624656
     1         -6.90073355          1.34592938         -0.50999870
     1         -4.41267638          3.31332714          0.56930681
     1         -4.03145715          1.49792002         -2.22575238
     8          2.64093108          3.16680252         -0.54198850
     1          2.84122222          3.76705048          1.17714749

 Electric dipole moment (dipole orientation):
 (Debye = 10**-18 statcoulomb cm , SI units = C m)
                  (au)            (Debye)         (10**-30 SI)
   Tot        0.124278D+01      0.315884D+01      0.105368D+02
   x          0.000000D+00      0.000000D+00      0.000000D+00
   y          0.000000D+00      0.000000D+00      0.000000D+00
   z          0.124278D+01      0.315884D+01      0.105368D+02

 Dipole polarizability, Alpha (dipole orientation).
 (esu units = cm**3 , SI units = C**2 m**2 J**-1)
 Alpha(0;0):
               (au)            (10**-24 esu)      (10**-40 SI)
   iso        0.749420D+02      0.111053D+02      0.123563D+02
   aniso      0.325358D+02      0.482131D+01      0.536443D+01
   xx         0.909035D+02      0.134705D+02      0.149880D+02
   yx        -0.827681D+01     -0.122650D+01     -0.136466D+01
   yy         0.755033D+02      0.111884D+02      0.124488D+02
   zx         0.441976D+01      0.654941D+00      0.728720D+00
   zy        -0.880689D+00     -0.130505D+00     -0.145206D+00
   zz         0.584192D+02      0.865683D+01      0.963202D+01

 ----------------------------------------------------------------------
 1\1\GINC-AJ\Freq\UM062X\6-311++G(d,p)\C5H7O3(2)\AAYUSH\16-Aug-2025\0\\
 # freq 6-311++g(d,p) m062x\\Title Card Required\\0,2\C,2.739279,-0.412
 423,0.415175\H,3.781506,-0.461512,0.631642\C,1.566983,-0.232444,0.1289
 19\C,0.1587,-0.572813,-0.142103\O,-0.20212,-1.147848,-1.126783\O,-0.62
 1785,-0.15205,0.849258\C,-2.041352,-0.303259,0.639106\C,-2.563824,0.78
 4331,-0.278394\H,-2.466532,-0.230711,1.638459\H,-2.231572,-1.297666,0.
 233936\H,-3.646451,0.687965,-0.381059\H,-2.33859,1.769497,0.13215\H,-2
 .113593,0.701479,-1.267844\O,1.402975,1.650632,-0.388204\H,1.494461,2.
 035191,0.496938\\Version=ES64L-G16RevA.03\State=2-A\HF=-420.2020629\S2
 =0.779651\S2-1=0.\S2A=0.750334\RMSD=2.465e-09\RMSF=1.357e-03\ZeroPoint
 =0.1115183\Thermal=0.1212733\Dipole=-0.0200555,0.0925394,1.2391724\Dip
 oleDeriv=-0.2063184,-0.5163247,0.0904722,-0.0608318,-0.0055919,-0.0343
 484,-0.0596881,-0.1203,-0.1045906,0.2805785,-0.0222589,0.0106197,-0.03
 37693,0.2115295,-0.0039423,0.0320794,0.0033794,0.2289497,-0.4534099,0.
 474401,-0.1569804,0.1226784,-0.8034437,0.1586045,-0.0411597,0.2601257,
 -0.1514201,2.068685,0.324905,-0.152626,-0.0435055,0.8142325,0.5651215,
 -0.4810855,0.6193647,1.4579036,-0.8028849,-0.2226357,-0.181328,-0.0399
 552,-0.5919409,-0.3468047,0.0133886,-0.4030803,-0.8987014,-1.6170934,0
 .1077179,0.3460252,0.1554613,-0.3866933,-0.1822819,0.4889052,-0.195341
 6,-0.8110664,0.9978006,-0.0855849,-0.0562183,-0.0036315,0.2871402,-0.0
 762903,0.0593346,-0.0228956,0.314889,-0.0661866,0.0304501,0.0301236,0.
 0464558,-0.0201085,0.08348,-0.0336937,0.0552088,-0.0424458,-0.0228901,
 0.0070912,0.025779,0.0228415,0.0676396,-0.0021545,0.0645083,0.0232702,
 -0.0882342,-0.0182778,0.0370753,0.0123671,-0.0358624,-0.0678708,0.0000
 475,-0.0583054,-0.0384341,0.0551228,-0.1284308,0.00041,-0.0197776,-0.0
 143036,0.0694242,0.0044785,-0.0192638,0.0164854,0.0926901,0.0813788,-0
 .0539338,-0.0300799,-0.0061764,-0.0697059,-0.0267113,-0.0325032,-0.054
 4556,0.024629,0.0770915,-0.0013058,0.0692584,0.0153767,0.0441398,-0.01
 26524,0.048212,0.0130755,-0.0285117,-0.4704891,-0.1255988,0.031533,-0.
 1242646,0.1099529,-0.092089,0.0644342,-0.2323222,-0.1614292,0.2804466,
 0.0455921,-0.0191678,-0.0005134,0.3412963,-0.0344571,-0.045163,0.07591
 97,0.1122153\Polar=90.7424699,-7.8798172,75.2682267,5.5431257,-2.26392
 71,58.8152794\Quadrupole=8.5417575,-3.3597718,-5.1819858,-1.3978132,2.
 5588155,0.2695144\PG=C01 [X(C5H7O3)]\NImag=1\\1.30438552,-0.11865971,0
 .06275573,0.28668001,-0.02679130,0.11830295,-0.40449046,0.02185174,-0.
 08038018,0.39534033,0.01118057,-0.02035418,0.00108960,-0.01946234,0.01
 350659,-0.07722675,0.00329656,-0.04131353,0.07953938,-0.00316297,0.032
 05557,-0.89636896,0.09558903,-0.20384946,0.00883942,0.00847280,-0.0008
 1251,1.20445361,0.00462184,-0.00083665,-0.00598340,-0.00161695,0.00384
 139,-0.00061335,0.04173015,-0.08487325,-0.18349569,0.01174658,-0.07546
 993,0.00143114,0.00149271,0.00411176,0.21809967,0.06914680,0.14776953,
 0.01431968,-0.00768116,0.00441227,-0.00078468,-0.00039750,-0.00213761,
 -0.24167470,-0.01754833,-0.03498722,0.64980254,0.02557443,-0.00342182,
 0.00671091,0.00046529,0.00354256,0.00018374,-0.04941326,-0.04331624,-0
 .01014067,0.10321995,0.40585860,-0.00848389,-0.00009972,0.00070675,-0.
 00097687,0.00008395,0.00541060,-0.01254406,-0.00416832,-0.06120902,0.1
 0147821,0.32976642,0.79726155,-0.00459411,-0.00014903,-0.00091727,0.00
 031849,0.00051346,0.00152358,-0.01995826,-0.02668616,-0.03969381,-0.17
 923387,-0.11155285,-0.18200395,0.17499177,-0.00305114,0.00091908,-0.00
 072549,-0.00010471,-0.00030121,0.00087676,-0.02145665,0.00139106,-0.02
 385108,-0.10424059,-0.24114378,-0.27456565,0.12077425,0.23777518,0.000
 97328,0.00001705,0.00099132,0.00009321,0.00036164,0.00002961,-0.032433
 03,-0.02132253,-0.01571233,-0.17459987,-0.27432700,-0.54665639,0.19049
 412,0.35012232,0.64261834,-0.00871369,0.00005517,-0.00267800,0.0008815
 4,-0.00042702,-0.00100768,-0.05079422,0.00366697,0.03546474,-0.1882660
 3,0.03552813,0.09098296,0.02772431,0.01181163,0.02568966,0.49366900,-0
 .00006844,0.00046451,-0.00016426,-0.00000056,-0.00029766,-0.00014217,-
 0.00177391,0.00990390,0.00006337,0.02598574,-0.09582225,-0.06114970,0.
 01360956,0.00370124,-0.05484213,-0.02022238,0.14977941,0.00217377,-0.0
 0064236,0.00068089,-0.00009457,0.00015680,-0.00067038,0.00890338,0.000
 78929,0.00397817,0.06958680,-0.06165912,-0.19987367,0.02501236,-0.0547
 2577,-0.08072051,-0.09178411,0.12957080,0.35924774,0.00230905,-0.00008
 407,0.00079212,-0.00036547,0.00004499,-0.00003044,0.00189285,0.0029000
 7,-0.00086980,-0.05316470,0.01170439,0.03444324,-0.00096230,-0.0099356
 9,-0.01768210,-0.17689811,-0.01746338,-0.01406234,0.44902719,-0.001244
 81,0.00016138,-0.00008910,-0.00004696,-0.00010058,0.00000868,0.0014846
 8,0.00227151,-0.00243091,0.01225537,0.00644931,0.00993312,-0.00214837,
 -0.00562444,-0.00056643,-0.02530874,-0.07577544,-0.01669061,0.00962893
 ,0.58103548,0.00152776,0.00002732,0.00057383,-0.00000414,0.00006445,0.
 00026029,0.00405670,-0.00230953,-0.00280914,0.03379243,0.00718948,0.00
 763990,0.00163195,0.00117001,-0.00370492,-0.03531844,-0.01668852,-0.08
 979153,-0.06096999,0.04997383,0.61474422,-0.00006514,-0.00001065,-0.00
 001281,0.00008798,0.00000768,-0.00000887,-0.00050464,-0.00103665,0.000
 92129,0.00169383,-0.00091547,-0.00917952,0.00082134,0.00211820,0.00222
 433,-0.03851293,0.02984876,-0.02385458,-0.08112839,0.02147910,-0.01427
 057,0.57563514,-0.00027974,-0.00002985,-0.00009940,0.00000716,0.000005
 88,0.00001569,0.00031715,-0.00034894,0.00035738,0.00106217,-0.00132267
 ,-0.00294394,0.00082557,0.00051753,0.00158687,-0.00118764,0.00714575,-
 0.00103715,0.03154447,-0.15951172,0.06118935,0.02651130,0.53942979,0.0
 0009247,-0.00000537,-0.00002749,0.00000729,0.00002051,-0.00000333,-0.0
 0043719,-0.00021569,0.00014587,0.00135605,-0.00023608,0.00329414,-0.00
 146371,0.00128189,-0.00122270,-0.00725297,0.00182240,-0.00146657,-0.02
 148037,0.05977936,-0.13491558,-0.02304958,0.04078187,0.55451112,-0.000
 72065,-0.00001973,-0.00027287,0.00004082,-0.00003664,-0.00004166,-0.00
 109156,0.00043432,0.00112588,-0.00383906,-0.00464939,-0.00466362,0.001
 55158,0.00082497,0.00113355,-0.03331102,0.00533773,0.03469523,-0.08119
 673,0.00585536,0.08821223,0.00686425,-0.00154474,-0.01187073,0.1074257
 3,-0.00003741,-0.00000996,-0.00000830,-0.00001117,-0.00000461,-0.00001
 158,-0.00022117,0.00018428,0.00004672,-0.00054425,-0.00142481,-0.00244
 896,0.00192534,0.00085851,0.00038647,-0.00443441,0.00127949,0.00474447
 ,0.00903545,-0.05539956,-0.02264345,-0.00958362,0.00196005,0.02467147,
 -0.00933297,0.05355038,-0.00006648,-0.00000381,-0.00002657,-0.00001293
 ,-0.00000105,-0.00002882,-0.00017061,0.00017588,0.00018147,-0.00232428
 ,-0.00049116,-0.00016380,0.00099778,0.00047051,0.00071333,-0.00446682,
 -0.00000680,0.00815333,0.10151610,-0.02134069,-0.28878722,0.00605257,-
 0.00168265,-0.01680619,-0.10303191,0.01979619,0.30501681,-0.00033678,-
 0.00001089,-0.00003516,0.00002754,-0.00004197,-0.00002238,-0.00008369,
 0.00041404,0.00000283,0.00260870,-0.00505410,-0.00767729,0.00040145,0.
 00190188,0.00356018,-0.02737202,-0.03396026,-0.01297188,-0.05474031,-0
 .03036482,-0.01036422,0.00393034,0.01152699,0.00513829,0.00409799,0.01
 173770,0.00352534,0.07159684,0.00019123,-0.00001981,0.00004385,0.00000
 792,0.00000348,-0.00002059,-0.00020072,-0.00001334,0.00019012,0.000885
 42,-0.00084284,-0.00346591,0.00256576,0.00085886,0.00050662,-0.0065726
 7,0.00143057,-0.00004802,-0.04035761,-0.27705988,-0.09195267,-0.002381
 04,-0.02052609,-0.00847637,0.00104680,0.00053911,-0.00005020,0.0428784
 9,0.29634022,-0.00006592,0.00003290,-0.00001624,0.00002526,-0.00000218
 ,0.00000682,-0.00020289,-0.00042648,0.00001936,0.00239583,0.00058556,0
 .00056107,0.00110593,0.00036169,-0.00122136,-0.00556119,-0.00274887,-0
 .00160050,-0.01672720,-0.09514354,-0.09107181,0.00383744,0.02093887,0.
 00889500,-0.00485647,-0.02617878,-0.00878140,0.02089927,0.10039481,0.0
 9414870,-0.00005187,-0.00002217,-0.00001324,0.00003337,-0.00001041,0.0
 0001225,-0.00008115,-0.00010800,0.00003678,0.00142910,-0.00076679,-0.0
 0127560,-0.00005095,0.00049865,0.00033867,-0.00080042,0.00272195,-0.00
 097965,-0.01072386,-0.00327281,0.00115004,-0.31433366,-0.02401230,-0.0
 2521358,0.00028301,0.00007191,-0.00037193,0.00022688,0.00044198,0.0000
 8211,0.34062046,0.00025839,-0.00002151,0.00008442,-0.00001331,-0.00000
 808,0.00000178,-0.00005501,0.00046504,-0.00039812,-0.00090917,0.000479
 65,0.00224788,-0.00009813,-0.00058513,-0.00066047,0.00558575,-0.003909
 32,0.00315763,0.02250064,0.00412829,-0.00125192,-0.02557615,-0.0496028
 4,-0.00138057,-0.00055756,0.00088043,-0.00004651,-0.00055670,0.0002343
 8,-0.00102336,0.02593016,0.04983141,-0.00013544,0.00000228,-0.00002717
 ,0.00000946,0.00000134,-0.00000304,-0.00003401,-0.00014093,0.00020131,
 0.00055058,-0.00068181,-0.00325105,0.00059558,0.00009877,0.00129409,-0
 .00527975,0.00447946,-0.00126153,-0.01837696,-0.00538764,-0.00114507,-
 0.02373520,-0.00098546,-0.04860574,0.00057449,-0.00082234,0.00007268,0
 .00034779,-0.00006308,0.00069942,0.02824585,0.00040147,0.04907040,-0.0
 0019055,0.00004693,-0.00004724,-0.00002398,0.00001212,-0.00000299,0.00
 023802,-0.00030667,0.00007961,-0.00022016,0.00078204,0.00136091,-0.000
 53378,-0.00014246,-0.00067019,0.00216155,-0.00053165,0.00056196,0.0005
 8049,0.01231921,0.00421909,-0.05896792,-0.05277154,-0.02118934,0.00012
 606,-0.00080125,0.00022123,-0.00028365,0.00202812,-0.00158908,-0.00477
 715,-0.02939477,-0.01222312,0.05905830,0.00022715,-0.00001979,0.000054
 04,0.00000327,-0.00000647,-0.00000309,-0.00010436,0.00023439,-0.000083
 63,-0.00013666,-0.00066601,-0.00064786,0.00030475,0.00025529,0.0004084
 3,-0.00052039,0.00260325,-0.00059124,-0.00587310,-0.02409188,-0.009271
 31,-0.05068153,-0.26735930,-0.09455816,-0.00012928,0.00093338,0.000091
 13,0.00180221,-0.00176774,0.00374465,-0.00013020,-0.00073382,-0.000021
 50,0.05522941,0.29179524,0.00019661,-0.00003402,0.00004074,0.00000373,
 -0.00000673,0.00000175,-0.00015256,0.00038238,-0.00010302,-0.00047643,
 -0.00050026,-0.00027855,0.00053418,-0.00026129,0.00042481,0.00180272,-
 0.00150718,0.00065646,0.00511455,0.02267205,0.00853495,-0.02219807,-0.
 09676015,-0.08976303,0.00064086,-0.00056257,0.00103240,-0.00229052,0.0
 0314977,-0.00246589,0.00005408,-0.00158967,-0.00233748,0.02506189,0.10
 097672,0.09359732,0.00003448,0.00001139,0.00002998,-0.00002835,0.00002
 001,-0.00001303,0.00005736,-0.00006159,-0.00000832,-0.00086651,0.00030
 858,-0.00119429,-0.00064659,0.00078941,0.00053624,0.00136669,-0.001011
 07,0.00097675,0.00450701,-0.00090035,-0.01321952,-0.09549261,0.0080796
 1,0.10539746,-0.00019632,0.00223690,-0.00194450,0.00004467,-0.00052641
 ,0.00068101,-0.01162918,0.00291772,0.02939595,0.00276012,-0.00000914,-
 0.00818036,0.09982155,-0.00027593,0.00004386,-0.00006651,0.00000366,0.
 00000129,0.00001486,0.00028680,-0.00048434,0.00000971,0.00093295,0.001
 49409,0.00225683,-0.00042068,-0.00111398,-0.00142092,-0.00004909,0.000
 79678,-0.00281053,-0.01315005,0.00172869,0.02540068,0.01043897,-0.0503
 3654,-0.02349116,0.00256509,-0.00340499,0.00300421,-0.00060789,0.00094
 615,-0.00042543,-0.00128687,-0.00111004,0.00306705,0.01343780,-0.00109
 615,-0.02585734,-0.01198747,0.05245707,-0.00007388,0.00003517,-0.00000
 098,-0.00002318,0.00000136,-0.00001681,0.00006465,0.00005611,0.0000520
 9,-0.00076128,-0.00027929,-0.00182469,0.00110660,-0.00068589,0.0010778
 5,-0.00033656,-0.00081129,0.00194931,0.00880154,-0.00059222,-0.0197136
 5,0.10319819,-0.02115105,-0.27384948,-0.00162719,0.00305360,-0.0005735
 9,-0.00020359,-0.00030196,0.00079167,-0.00208743,0.00039249,0.00524657
 ,0.00436877,-0.00018976,-0.00943176,-0.11257080,0.02033394,0.29634225,
 -0.00622353,0.00862076,-0.00411017,0.00018699,-0.00034239,0.00020501,-
 0.00248708,-0.00878862,0.00098327,-0.00489721,-0.00319014,0.00278269,0
 .00083923,0.00014518,-0.00045060,-0.00021206,-0.00396673,0.00066036,0.
 00128532,0.00023787,-0.00054004,-0.00011145,0.00019530,0.00008678,-0.0
 0001654,0.00000858,0.00006096,-0.00021623,-0.00008789,-0.00004863,-0.0
 0019600,-0.00014777,0.00002331,0.00028998,-0.00015434,-0.00018934,0.00
 024503,0.00012302,0.00017365,0.01718290,0.07925832,-0.03860669,0.02535
 424,-0.00132798,0.00019500,-0.00051477,-0.07166947,0.11371638,-0.03583
 302,-0.01040910,-0.02685784,0.00622443,-0.00043079,0.00181548,-0.00136
 076,0.00071930,-0.00170907,-0.00036405,0.00050131,0.00146177,-0.000844
 10,-0.00031809,-0.00008695,-0.00001984,0.00011954,0.00006707,0.0000878
 2,0.00013724,-0.00011850,-0.00017121,-0.00009487,0.00001783,0.00001049
 ,0.00008458,-0.00006577,-0.00005763,0.00015159,0.00004156,0.00013875,0
 .02262846,0.04545385,-0.02512182,0.01226908,-0.00572387,0.00028040,-0.
 00008388,0.00023976,0.02227422,-0.04496930,-0.00273390,0.00461612,0.00
 410919,-0.00187475,0.00017749,0.00019493,0.00174931,-0.00127223,0.0025
 4836,0.00162488,-0.00032537,-0.00004717,0.00020319,0.00002754,-0.00023
 508,-0.00016032,-0.00009461,-0.00004588,0.00000908,0.00011162,0.000107
 07,0.00004558,0.00000849,0.00007718,0.00003278,-0.00013234,0.00013209,
 0.00007669,0.00011115,-0.00003232,-0.00002935,0.04764231,0.19759558,0.
 45027134,0.00070702,0.00046238,0.00040201,-0.00006353,0.00046664,0.000
 02369,-0.00243701,0.00238559,0.00090962,0.00309310,-0.00204081,-0.0030
 4892,-0.00066832,0.00006705,0.00079255,-0.00092260,0.00149465,0.001176
 52,-0.00042204,0.00002634,0.00009674,0.00008386,-0.00027376,-0.0001208
 6,-0.00001755,-0.00004965,0.00001547,0.00009828,0.00008061,0.00002454,
 0.00005143,0.00011590,0.00004148,-0.00021734,0.00017219,0.00007865,0.0
 0002265,-0.00001033,-0.00002950,-0.00566935,-0.01935004,-0.04830297,0.
 00636140,0.00230523,-0.00102430,0.00059068,0.00024494,-0.00002339,0.00
 007047,-0.00298604,-0.00213521,-0.01031597,-0.00247485,-0.00300595,-0.
 00102256,0.00096731,0.00067634,0.00111083,0.00135538,0.00040883,0.0001
 4985,-0.00099638,0.00032706,-0.00005363,0.00009918,0.00006589,0.000025
 74,0.00008652,-0.00000877,-0.00000286,0.00019807,-0.00000455,0.0000613
 7,0.00003977,-0.00006630,0.00004189,0.00000812,-0.00001461,-0.00004408
 ,-0.00001918,0.00003656,0.00000004,-0.01528128,-0.09532413,-0.17161984
 ,0.01645321,0.10009253,0.00302597,0.00014963,0.00130931,0.00010199,-0.
 00001554,-0.00008026,-0.00276230,0.00959906,0.00157780,-0.00290159,-0.
 00022989,0.00025792,0.00089918,0.00023827,0.00033957,0.00101765,-0.000
 42346,-0.00090609,-0.00014298,-0.00007874,-0.00001745,0.00004784,0.000
 02486,-0.00002570,0.00007680,0.00002294,-0.00001149,-0.00002028,-0.000
 01345,-0.00001044,0.00001316,-0.00001222,0.00001382,-0.00001916,-0.000
 04051,0.00001461,0.00000227,0.00001693,-0.00001943,-0.04727955,-0.1902
 4594,-0.44373041,0.04794099,0.18100806,0.44128825\\0.00008222,0.000719
 79,-0.00008615,0.00004122,0.00010466,-0.00001805,0.00050585,-0.0067028
 0,0.00183603,0.00000834,-0.00029916,0.00007251,-0.00031772,0.00020361,
 -0.00020406,0.00002438,0.00015012,-0.00006027,0.00004890,0.00005973,-0
 .00002866,-0.00003152,0.00002032,-0.00001868,0.00000303,0.00000488,-0.
 00000133,0.00000463,0.00000584,0.00000014,-0.00000361,0.00000098,-0.00
 000143,-0.00000569,0.00000271,-0.00000432,-0.00000492,-0.00000167,-0.0
 0000322,-0.00038045,0.00555778,-0.00155499,0.00002532,0.00017321,0.000
 07247\\\@


 TIMES HAVE CHANGED. IN THE BIBLE WHEN AN ASS
 SPOKE IT WAS CONSIDERED A MIRACLE.
 Job cpu time:       0 days  0 hours 56 minutes  4.2 seconds.
 Elapsed time:       0 days  0 hours  2 minutes 20.5 seconds.
 File lengths (MBytes):  RWF=    153 Int=      0 D2E=      0 Chk=      6 Scr=      1
 Normal termination of Gaussian 16 at Sat Aug 16 20:36:44 2025.
