 Entering Gaussian System, Link 0=g16
 Initial command:
 /opt/g16/l1.exe "/home/aayush/scratches/g16/Gau-8075.inp" -scrdir="/home/aayush/scratches/g16/"
 Entering Link 1 = /opt/g16/l1.exe PID=      8078.
  
 Copyright (c) 1988,1990,1992,1993,1995,1998,2003,2009,2016,
            Gaussian, Inc.  All Rights Reserved.
  
 This is part of the Gaussian(R) 16 program.  It is based on
 the Gaussian(R) 09 system (copyright 2009, Gaussian, Inc.),
 the Gaussian(R) 03 system (copyright 2003, Gaussian, Inc.),
 the Gaussian(R) 98 system (copyright 1998, Gaussian, Inc.),
 the Gaussian(R) 94 system (copyright 1995, Gaussian, Inc.),
 the Gaussian 92(TM) system (copyright 1992, Gaussian, Inc.),
 the Gaussian 90(TM) system (copyright 1990, Gaussian, Inc.),
 the Gaussian 88(TM) system (copyright 1988, Gaussian, Inc.),
 the Gaussian 86(TM) system (copyright 1986, Carnegie Mellon
 University), and the Gaussian 82(TM) system (copyright 1983,
 Carnegie Mellon University). Gaussian is a federally registered
 trademark of Gaussian, Inc.
  
 This software contains proprietary and confidential information,
 including trade secrets, belonging to Gaussian, Inc.
  
 This software is provided under written license and may be
 used, copied, transmitted, or stored only in accord with that
 written license.
  
 The following legend is applicable only to US Government
 contracts under FAR:
  
                    RESTRICTED RIGHTS LEGEND
  
 Use, reproduction and disclosure by the US Government is
 subject to restrictions as set forth in subparagraphs (a)
 and (c) of the Commercial Computer Software - Restricted
 Rights clause in FAR 52.227-19.
  
 Gaussian, Inc.
 340 Quinnipiac St., Bldg. 40, Wallingford CT 06492
  
  
 ---------------------------------------------------------------
 Warning -- This program may not be used in any manner that
 competes with the business of Gaussian, Inc. or will provide
 assistance to any competitor of Gaussian, Inc.  The licensee
 of this program is prohibited from giving any competitor of
 Gaussian, Inc. access to this program.  By using this program,
 the user acknowledges that Gaussian, Inc. is engaged in the
 business of creating and licensing software in the field of
 computational chemistry and represents and warrants to the
 licensee that it is not a competitor of Gaussian, Inc. and that
 it will not use this program in any manner prohibited above.
 ---------------------------------------------------------------
  

 Cite this work as:
 Gaussian 16, Revision A.03,
 M. J. Frisch, G. W. Trucks, H. B. Schlegel, G. E. Scuseria, 
 M. A. Robb, J. R. Cheeseman, G. Scalmani, V. Barone, 
 G. A. Petersson, H. Nakatsuji, X. Li, M. Caricato, A. V. Marenich, 
 J. Bloino, B. G. Janesko, R. Gomperts, B. Mennucci, H. P. Hratchian, 
 J. V. Ortiz, A. F. Izmaylov, J. L. Sonnenberg, D. Williams-Young, 
 F. Ding, F. Lipparini, F. Egidi, J. Goings, B. Peng, A. Petrone, 
 T. Henderson, D. Ranasinghe, V. G. Zakrzewski, J. Gao, N. Rega, 
 G. Zheng, W. Liang, M. Hada, M. Ehara, K. Toyota, R. Fukuda, 
 J. Hasegawa, M. Ishida, T. Nakajima, Y. Honda, O. Kitao, H. Nakai, 
 T. Vreven, K. Throssell, J. A. Montgomery, Jr., J. E. Peralta, 
 F. Ogliaro, M. J. Bearpark, J. J. Heyd, E. N. Brothers, K. N. Kudin, 
 V. N. Staroverov, T. A. Keith, R. Kobayashi, J. Normand, 
 K. Raghavachari, A. P. Rendell, J. C. Burant, S. S. Iyengar, 
 J. Tomasi, M. Cossi, J. M. Millam, M. Klene, C. Adamo, R. Cammi, 
 J. W. Ochterski, R. L. Martin, K. Morokuma, O. Farkas, 
 J. B. Foresman, and D. J. Fox, Gaussian, Inc., Wallingford CT, 2016.
 
 ******************************************
 Gaussian 16:  ES64L-G16RevA.03 25-Dec-2016
                 3-Aug-2025 
 ******************************************
 %nprocshared=24
 Will use up to   24 processors via shared memory.
 %mem=12GB
 %chk=ethyl_propiolate_ts1.chk
 --------------------------
 # ccsd(t)/6-311++g(d,p) sp
 --------------------------
 1/38=1,172=1/1;
 2/12=2,17=6,18=5,40=1/2;
 3/5=4,6=6,7=1111,11=9,25=1,30=1/1,2,3;
 4//1;
 5/5=2,38=5/2;
 8/6=4,9=120000,10=2/1,4;
 9/5=7,14=2/13;
 6/7=2,8=2,9=2,10=2/1;
 99/5=1,9=1/99;
 -------------------
 Title Card Required
 -------------------
 Symbolic Z-matrix:
 Charge =  0 Multiplicity = 2
 C                    -2.79847  -0.43846  -0.41024 
 H                    -3.84045  -0.48722  -0.62889 
 C                    -1.62625  -0.2157   -0.10923 
 C                    -0.21969  -0.59883   0.14717 
 O                     0.13913  -1.18851   1.12355 
 O                     0.56111  -0.16846  -0.83928 
 C                     1.98082  -0.3216   -0.63016 
 C                     2.50221   0.75507   0.30081 
 H                     2.40645  -0.23675  -1.62831 
 H                     2.17116  -1.3208   -0.23705 
 H                     3.58479   0.65753   0.40291 
 H                     2.27686   1.74505  -0.09782 
 H                     2.05141   0.66035   1.28894 
 O                    -1.46626   1.59378   0.41208 
 H                    -1.55383   2.00444  -0.46064 
 
                          Input orientation:                          
 ---------------------------------------------------------------------
 Center     Atomic      Atomic             Coordinates (Angstroms)
 Number     Number       Type             X           Y           Z
 ---------------------------------------------------------------------
      1          6           0       -2.798467   -0.438456   -0.410243
      2          1           0       -3.840449   -0.487224   -0.628887
      3          6           0       -1.626247   -0.215702   -0.109230
      4          6           0       -0.219688   -0.598830    0.147167
      5          8           0        0.139128   -1.188514    1.123548
      6          8           0        0.561108   -0.168455   -0.839281
      7          6           0        1.980816   -0.321602   -0.630157
      8          6           0        2.502213    0.755072    0.300813
      9          1           0        2.406453   -0.236746   -1.628314
     10          1           0        2.171157   -1.320802   -0.237050
     11          1           0        3.584790    0.657534    0.402911
     12          1           0        2.276858    1.745047   -0.097819
     13          1           0        2.051413    0.660346    1.288939
     14          8           0       -1.466256    1.593784    0.412078
     15          1           0       -1.553827    2.004442   -0.460641
 ---------------------------------------------------------------------
                    Distance matrix (angstroms):
                    1          2          3          4          5
     1  C    0.000000
     2  H    1.065791   0.000000
     3  C    1.230580   2.290515   0.000000
     4  C    2.643204   3.704676   1.480181   0.000000
     5  O    3.397730   4.404528   2.362764   1.195741   0.000000
     6  O    3.397605   4.418097   2.306454   1.329641   2.251951
     7  C    4.785767   5.823621   3.646023   2.350171   2.686788
     8  C    5.479719   6.529702   4.260836   3.043912   3.168373
     9  H    5.349353   6.331301   4.309377   3.190620   3.690443
    10  H    5.050316   6.081759   3.957002   2.526857   2.449055
    11  H    6.527510   7.583485   5.308459   4.014711   3.974896
    12  H    5.533915   6.533492   4.367940   3.433150   3.829805
    13  H    5.255085   6.301509   4.030821   2.836735   2.665046
    14  O    2.565345   3.324304   1.889867   2.536073   3.290080
    15  H    2.742156   3.386052   2.248949   2.987705   3.945975
                    6          7          8          9         10
     6  O    0.000000
     7  C    1.443176   0.000000
     8  C    2.433229   1.515845   0.000000
     9  H    2.008117   1.088432   2.171268   0.000000
    10  H    2.069503   1.090488   2.169827   1.779370   0.000000
    11  H    3.371639   2.144451   1.091747   2.512785   2.514303
    12  H    2.674893   2.154545   1.090753   2.507332   3.070829
    13  H    2.727130   2.156881   1.090223   3.072652   2.503583
    14  O    2.963375   4.078880   4.057655   4.744672   4.706055
    15  H    3.055781   4.234728   4.311867   4.697893   4.998274
                   11         12         13         14         15
    11  H    0.000000
    12  H    1.773161   0.000000
    13  H    1.770960   1.774965   0.000000
    14  O    5.137092   3.780711   3.743553   0.000000
    15  H    5.381939   3.856562   4.226746   0.968477   0.000000
 Stoichiometry    C5H7O3(2)
 Framework group  C1[X(C5H7O3)]
 Deg. of freedom    39
 Full point group                 C1      NOp   1
 Largest Abelian subgroup         C1      NOp   1
 Largest concise Abelian subgroup C1      NOp   1
                         Standard orientation:                         
 ---------------------------------------------------------------------
 Center     Atomic      Atomic             Coordinates (Angstroms)
 Number     Number       Type             X           Y           Z
 ---------------------------------------------------------------------
      1          6           0       -2.798467   -0.438456   -0.410243
      2          1           0       -3.840449   -0.487224   -0.628887
      3          6           0       -1.626247   -0.215702   -0.109230
      4          6           0       -0.219688   -0.598830    0.147167
      5          8           0        0.139128   -1.188514    1.123548
      6          8           0        0.561108   -0.168455   -0.839281
      7          6           0        1.980816   -0.321602   -0.630157
      8          6           0        2.502213    0.755072    0.300813
      9          1           0        2.406453   -0.236746   -1.628314
     10          1           0        2.171157   -1.320802   -0.237050
     11          1           0        3.584790    0.657534    0.402911
     12          1           0        2.276858    1.745047   -0.097819
     13          1           0        2.051413    0.660346    1.288939
     14          8           0       -1.466256    1.593784    0.412078
     15          1           0       -1.553827    2.004442   -0.460641
 ---------------------------------------------------------------------
 Rotational constants (GHZ):           3.7035509           1.3101230           1.1834017
 Standard basis: 6-311++G(d,p) (5D, 7F)
 There are   233 symmetry adapted cartesian basis functions of A   symmetry.
 There are   225 symmetry adapted basis functions of A   symmetry.
   225 basis functions,   351 primitive gaussians,   233 cartesian basis functions
    31 alpha electrons       30 beta electrons
       nuclear repulsion energy       363.3193426390 Hartrees.
 NAtoms=   15 NActive=   15 NUniq=   15 SFac= 1.00D+00 NAtFMM=   60 NAOKFM=F Big=F
 Integral buffers will be    131072 words long.
 Raffenetti 2 integral format.
 Two-electron integral symmetry is turned on.
 One-electron integrals computed using PRISM.
 NBasis=   225 RedAO= T EigKep=  3.71D-06  NBF=   225
 NBsUse=   225 1.00D-06 EigRej= -1.00D+00 NBFU=   225
 ExpMin= 3.60D-02 ExpMax= 8.59D+03 ExpMxC= 1.30D+03 IAcc=3 IRadAn=         5 AccDes= 0.00D+00
 Harris functional with IExCor=  205 and IRadAn=       5 diagonalized for initial guess.
 HarFok:  IExCor=  205 AccDes= 0.00D+00 IRadAn=         5 IDoV= 1 UseB2=F ITyADJ=14
 ICtDFT=  3500011 ScaDFX=  1.000000  1.000000  1.000000  1.000000
 FoFCou: FMM=F IPFlag=           0 FMFlag=      100000 FMFlg1=           0
         NFxFlg=           0 DoJE=T BraDBF=F KetDBF=T FulRan=T
         wScrn=  0.000000 ICntrl=       500 IOpCl=  0 I1Cent=   200000004 NGrid=           0
         NMat0=    1 NMatS0=      1 NMatT0=    0 NMatD0=    1 NMtDS0=    0 NMtDT0=    0
 Petite list used in FoFCou.
 Initial guess <Sx>= 0.0000 <Sy>= 0.0000 <Sz>= 0.5000 <S**2>= 0.7500 S= 0.5000
 Requested convergence on RMS density matrix=1.00D-08 within 128 cycles.
 Requested convergence on MAX density matrix=1.00D-06.
 Requested convergence on             energy=1.00D-06.
 No special actions if energy rises.
 Initial convergence to 1.0D-05 achieved.  Increase integral accuracy.
 SCF Done:  E(UHF) =  -417.976296179     A.U. after   32 cycles
            NFock= 32  Conv=0.60D-08     -V/T= 2.0007
 <Sx>= 0.0000 <Sy>= 0.0000 <Sz>= 0.5000 <S**2>= 1.0847 S= 0.6553
 <L.S>=  0.00000000000    
 Annihilation of the first spin contaminant:
 S**2 before annihilation     1.0847,   after     0.8231
 ExpMin= 3.60D-02 ExpMax= 8.59D+03 ExpMxC= 1.30D+03 IAcc=3 IRadAn=         5 AccDes= 0.00D+00
 HarFok:  IExCor=  205 AccDes= 0.00D+00 IRadAn=         5 IDoV=-2 UseB2=F ITyADJ=14
 ICtDFT= 12500011 ScaDFX=  1.000000  1.000000  1.000000  1.000000
 Range of M.O.s used for correlation:     9   225
 NBasis=   225 NAE=    31 NBE=    30 NFC=     8 NFV=     0
 NROrb=    217 NOA=    23 NOB=    22 NVA=   194 NVB=   195

 **** Warning!!: The largest alpha MO coefficient is  0.15423536D+03


 **** Warning!!: The largest beta MO coefficient is  0.16715349D+03

 Semi-Direct transformation.
 ModeAB=           4 MOrb=            23 LenV=    1609173632
 LASXX=    109339976 LTotXX=   109339976 LenRXX=   221407890
 LTotAB=   112067914 MaxLAS=   130334974 LenRXY=           0
 NonZer=   330747866 LenScr=   498067456 LnRSAI=   130334974
 LnScr1=   196270080 LExtra=           0 Total=   1046080400
 MaxDsk=          -1 SrtSym=           T ITran=            4
 JobTyp=1 Pass  1:  I=   1 to  23.
 (rs|ai) integrals will be sorted in core.
 ModeAB=           4 MOrb=            22 LenV=    1609173632
 LASXX=    104936601 LTotXX=   104936601 LenRXX=   190867446
 LTotAB=    85930845 MaxLAS=   124668236 LenRXY=           0
 NonZer=   295804047 LenScr=   445446144 LnRSAI=   124668236
 LnScr1=   187766784 LExtra=           0 Total=    948748610
 MaxDsk=          -1 SrtSym=           T ITran=            4
 JobTyp=2 Pass  1:  I=   1 to  22.
 (rs|ai) integrals will be sorted in core.
 SymMOI:  orbitals are not symmetric.
 Spin components of T(2) and E(2):
     alpha-alpha T2 =       0.5202915254D-01 E2=     -0.1700050923D+00
     alpha-beta  T2 =       0.2797157050D+00 E2=     -0.9283347386D+00
     beta-beta   T2 =       0.4997183460D-01 E2=     -0.1582722273D+00
 ANorm=    0.1175464458D+01
 E2 =    -0.1256612058D+01 EUMP2 =    -0.41923290823764D+03
 (S**2,0)=  0.10847D+01           (S**2,1)=  0.99249D+00
 E(PUHF)=      -0.41800431833D+03        E(PMP2)=      -0.41925751141D+03
 Keep R2 and R3 ints in memory in canonical form, NReq=652884060.
 CIDS: In Core Option IDoMem=           1.
 Iterations=  50 Convergence= 0.100D-06
 Produce multiple copies of IABC intergrals
 Iteration Nr.   1
 **********************
 DD1Dir will call FoFMem   1 times, MxPair=      1496
 NAB=   506 NAA=   253 NBB=   231.
 E(PMP3)=      -0.41928217001D+03
 MP4(R+Q)=  0.24382251D-01
 E3=       -0.30344060D-01        EUMP3=      -0.41926325230D+03
 E4(DQ)=   -0.61247753D-02        UMP4(DQ)=   -0.41926937707D+03
 E4(SDQ)=  -0.28461381D-01        UMP4(SDQ)=  -0.41929171368D+03
 DE(Corr)=  -1.2623821     E(Corr)=     -419.23867830    
 NORM(A)=   0.11864314D+01
 Iteration Nr.   2
 **********************
 DD1Dir will call FoFMem   1 times, MxPair=      1496
 NAB=   506 NAA=   253 NBB=   231.
 DE(Corr)=  -1.3069787     E(CORR)=     -419.28327484     Delta=-4.46D-02
 NORM(A)=   0.12099781D+01
 Iteration Nr.   3
 **********************
 DD1Dir will call FoFMem   1 times, MxPair=      1496
 NAB=   506 NAA=   253 NBB=   231.
 DE(Corr)=  -1.3112158     E(CORR)=     -419.28751197     Delta=-4.24D-03
 NORM(A)=   0.12256710D+01
 Iteration Nr.   4
 **********************
 DD1Dir will call FoFMem   1 times, MxPair=      1496
 NAB=   506 NAA=   253 NBB=   231.
 DE(Corr)=  -1.3201023     E(CORR)=     -419.29639843     Delta=-8.89D-03
 NORM(A)=   0.12363103D+01
 Iteration Nr.   5
 **********************
 DD1Dir will call FoFMem   1 times, MxPair=      1496
 NAB=   506 NAA=   253 NBB=   231.
 DE(Corr)=  -1.3228922     E(CORR)=     -419.29918836     Delta=-2.79D-03
 NORM(A)=   0.12408045D+01
 Iteration Nr.   6
 **********************
 DD1Dir will call FoFMem   1 times, MxPair=      1496
 NAB=   506 NAA=   253 NBB=   231.
 DE(Corr)=  -1.3236518     E(CORR)=     -419.29994793     Delta=-7.60D-04
 NORM(A)=   0.12414253D+01
 Iteration Nr.   7
 **********************
 DD1Dir will call FoFMem   1 times, MxPair=      1496
 NAB=   506 NAA=   253 NBB=   231.
 DE(Corr)=  -1.3237450     E(CORR)=     -419.30004122     Delta=-9.33D-05
 NORM(A)=   0.12415660D+01
 Iteration Nr.   8
 **********************
 DD1Dir will call FoFMem   1 times, MxPair=      1496
 NAB=   506 NAA=   253 NBB=   231.
 DE(Corr)=  -1.3237177     E(CORR)=     -419.30001391     Delta= 2.73D-05
 NORM(A)=   0.12415847D+01
 Iteration Nr.   9
 **********************
 DD1Dir will call FoFMem   1 times, MxPair=      1496
 NAB=   506 NAA=   253 NBB=   231.
 DE(Corr)=  -1.3237384     E(CORR)=     -419.30003456     Delta=-2.06D-05
 NORM(A)=   0.12415607D+01
 Iteration Nr.  10
 **********************
 DD1Dir will call FoFMem   1 times, MxPair=      1496
 NAB=   506 NAA=   253 NBB=   231.
 DE(Corr)=  -1.3237129     E(CORR)=     -419.30000906     Delta= 2.55D-05
 NORM(A)=   0.12415714D+01
 Iteration Nr.  11
 **********************
 DD1Dir will call FoFMem   1 times, MxPair=      1496
 NAB=   506 NAA=   253 NBB=   231.
 DE(Corr)=  -1.3237393     E(CORR)=     -419.30003548     Delta=-2.64D-05
 NORM(A)=   0.12416432D+01
 Iteration Nr.  12
 **********************
 DD1Dir will call FoFMem   1 times, MxPair=      1496
 NAB=   506 NAA=   253 NBB=   231.
 DE(Corr)=  -1.3237427     E(CORR)=     -419.30003891     Delta=-3.43D-06
 NORM(A)=   0.12417455D+01
 Iteration Nr.  13
 **********************
 DD1Dir will call FoFMem   1 times, MxPair=      1496
 NAB=   506 NAA=   253 NBB=   231.
 DE(Corr)=  -1.3237647     E(CORR)=     -419.30006091     Delta=-2.20D-05
 NORM(A)=   0.12418374D+01
 Iteration Nr.  14
 **********************
 DD1Dir will call FoFMem   1 times, MxPair=      1496
 NAB=   506 NAA=   253 NBB=   231.
 DE(Corr)=  -1.3237823     E(CORR)=     -419.30007848     Delta=-1.76D-05
 NORM(A)=   0.12418992D+01
 Iteration Nr.  15
 **********************
 DD1Dir will call FoFMem   1 times, MxPair=      1496
 NAB=   506 NAA=   253 NBB=   231.
 DE(Corr)=  -1.3237910     E(CORR)=     -419.30008719     Delta=-8.72D-06
 NORM(A)=   0.12419300D+01
 Iteration Nr.  16
 **********************
 DD1Dir will call FoFMem   1 times, MxPair=      1496
 NAB=   506 NAA=   253 NBB=   231.
 DE(Corr)=  -1.3237984     E(CORR)=     -419.30009457     Delta=-7.37D-06
 NORM(A)=   0.12419386D+01
 Iteration Nr.  17
 **********************
 DD1Dir will call FoFMem   1 times, MxPair=      1496
 NAB=   506 NAA=   253 NBB=   231.
 DE(Corr)=  -1.3237984     E(CORR)=     -419.30009457     Delta=-5.10D-09
 NORM(A)=   0.12419378D+01
 Iteration Nr.  18
 **********************
 DD1Dir will call FoFMem   1 times, MxPair=      1496
 NAB=   506 NAA=   253 NBB=   231.
 DE(Corr)=  -1.3237982     E(CORR)=     -419.30009437     Delta= 2.05D-07
 NORM(A)=   0.12419342D+01
 Iteration Nr.  19
 **********************
 DD1Dir will call FoFMem   1 times, MxPair=      1496
 NAB=   506 NAA=   253 NBB=   231.
 DE(Corr)=  -1.3237971     E(CORR)=     -419.30009326     Delta= 1.11D-06
 NORM(A)=   0.12419315D+01
 Iteration Nr.  20
 **********************
 DD1Dir will call FoFMem   1 times, MxPair=      1496
 NAB=   506 NAA=   253 NBB=   231.
 DE(Corr)=  -1.3237962     E(CORR)=     -419.30009237     Delta= 8.89D-07
 NORM(A)=   0.12419295D+01
 Iteration Nr.  21
 **********************
 DD1Dir will call FoFMem   1 times, MxPair=      1496
 NAB=   506 NAA=   253 NBB=   231.
 DE(Corr)=  -1.3237957     E(CORR)=     -419.30009184     Delta= 5.28D-07
 NORM(A)=   0.12419305D+01
 Iteration Nr.  22
 **********************
 DD1Dir will call FoFMem   1 times, MxPair=      1496
 NAB=   506 NAA=   253 NBB=   231.
 DE(Corr)=  -1.3237956     E(CORR)=     -419.30009182     Delta= 1.62D-08
 NORM(A)=   0.12419330D+01
 Wavefunction amplitudes converged. E(Corr)=     -419.30009182    
 Largest amplitude= 5.53D-02
 Time for triples=    36582.15 seconds.
 T4(CCSD)= -0.59290207D-01
 T5(CCSD)=  0.43447192D-02
 CCSD(T)= -0.41935503731D+03

 S**2, projected HF & approx projected MPn energies after annihilation of
 unwanted spin states (see manual for definitions):

 spins       (S**2,0) (S**2,1)    PUHF        PMP2        PMP3        PMP4
 annihilated
 s+1         0.70692  0.73314 -418.004318 -419.257511 -419.282170
 s+1,s+2     0.75086  0.74985 -418.001474 -419.254798 -419.279631
 s+1 to s+3  0.74999  0.75001 -418.001544 -419.254849 -419.279653
 s+1 to s+4  0.75000  0.75000 -418.001544 -419.254849 -419.279653
 s+1 to s+5  0.75000  0.75000 -418.001544
 s+1 to s+6  0.75000  0.75000 -418.001544

 Discarding MO integrals.

 **********************************************************************

            Population analysis using the SCF density.

 **********************************************************************

 Orbital symmetries:
 Alpha Orbitals:
       Occupied  (A) (A) (A) (A) (A) (A) (A) (A) (A) (A) (A) (A)
                 (A) (A) (A) (A) (A) (A) (A) (A) (A) (A) (A) (A)
                 (A) (A) (A) (A) (A) (A) (A)
       Virtual   (A) (A) (A) (A) (A) (A) (A) (A) (A) (A) (A) (A)
                 (A) (A) (A) (A) (A) (A) (A) (A) (A) (A) (A) (A)
                 (A) (A) (A) (A) (A) (A) (A) (A) (A) (A) (A) (A)
                 (A) (A) (A) (A) (A) (A) (A) (A) (A) (A) (A) (A)
                 (A) (A) (A) (A) (A) (A) (A) (A) (A) (A) (A) (A)
                 (A) (A) (A) (A) (A) (A) (A) (A) (A) (A) (A) (A)
                 (A) (A) (A) (A) (A) (A) (A) (A) (A) (A) (A) (A)
                 (A) (A) (A) (A) (A) (A) (A) (A) (A) (A) (A) (A)
                 (A) (A) (A) (A) (A) (A) (A) (A) (A) (A) (A) (A)
                 (A) (A) (A) (A) (A) (A) (A) (A) (A) (A) (A) (A)
                 (A) (A) (A) (A) (A) (A) (A) (A) (A) (A) (A) (A)
                 (A) (A) (A) (A) (A) (A) (A) (A) (A) (A) (A) (A)
                 (A) (A) (A) (A) (A) (A) (A) (A) (A) (A) (A) (A)
                 (A) (A) (A) (A) (A) (A) (A) (A) (A) (A) (A) (A)
                 (A) (A) (A) (A) (A) (A) (A) (A) (A) (A) (A) (A)
                 (A) (A) (A) (A) (A) (A) (A) (A) (A) (A) (A) (A)
                 (A) (A)
 Beta  Orbitals:
       Occupied  (A) (A) (A) (A) (A) (A) (A) (A) (A) (A) (A) (A)
                 (A) (A) (A) (A) (A) (A) (A) (A) (A) (A) (A) (A)
                 (A) (A) (A) (A) (A) (A)
       Virtual   (A) (A) (A) (A) (A) (A) (A) (A) (A) (A) (A) (A)
                 (A) (A) (A) (A) (A) (A) (A) (A) (A) (A) (A) (A)
                 (A) (A) (A) (A) (A) (A) (A) (A) (A) (A) (A) (A)
                 (A) (A) (A) (A) (A) (A) (A) (A) (A) (A) (A) (A)
                 (A) (A) (A) (A) (A) (A) (A) (A) (A) (A) (A) (A)
                 (A) (A) (A) (A) (A) (A) (A) (A) (A) (A) (A) (A)
                 (A) (A) (A) (A) (A) (A) (A) (A) (A) (A) (A) (A)
                 (A) (A) (A) (A) (A) (A) (A) (A) (A) (A) (A) (A)
                 (A) (A) (A) (A) (A) (A) (A) (A) (A) (A) (A) (A)
                 (A) (A) (A) (A) (A) (A) (A) (A) (A) (A) (A) (A)
                 (A) (A) (A) (A) (A) (A) (A) (A) (A) (A) (A) (A)
                 (A) (A) (A) (A) (A) (A) (A) (A) (A) (A) (A) (A)
                 (A) (A) (A) (A) (A) (A) (A) (A) (A) (A) (A) (A)
                 (A) (A) (A) (A) (A) (A) (A) (A) (A) (A) (A) (A)
                 (A) (A) (A) (A) (A) (A) (A) (A) (A) (A) (A) (A)
                 (A) (A) (A) (A) (A) (A) (A) (A) (A) (A) (A) (A)
                 (A) (A) (A)
 The electronic state is 2-A.
 Alpha  occ. eigenvalues --  -20.61423 -20.61220 -20.55711 -11.41320 -11.29694
 Alpha  occ. eigenvalues --  -11.27690 -11.27366 -11.22442  -1.48174  -1.37850
 Alpha  occ. eigenvalues --   -1.37208  -1.08224  -1.04487  -0.92731  -0.83781
 Alpha  occ. eigenvalues --   -0.76601  -0.73197  -0.69543  -0.68384  -0.65888
 Alpha  occ. eigenvalues --   -0.63291  -0.62824  -0.57938  -0.55126  -0.53999
 Alpha  occ. eigenvalues --   -0.53206  -0.50437  -0.47584  -0.45968  -0.43655
 Alpha  occ. eigenvalues --   -0.42090
 Alpha virt. eigenvalues --    0.03679   0.04411   0.05636   0.06284   0.07331
 Alpha virt. eigenvalues --    0.08804   0.09557   0.10600   0.11158   0.11904
 Alpha virt. eigenvalues --    0.13461   0.13659   0.14213   0.15985   0.16502
 Alpha virt. eigenvalues --    0.16945   0.17946   0.18198   0.18590   0.19031
 Alpha virt. eigenvalues --    0.19998   0.20803   0.21491   0.21818   0.23696
 Alpha virt. eigenvalues --    0.24209   0.24744   0.26316   0.27624   0.29095
 Alpha virt. eigenvalues --    0.30078   0.30664   0.32372   0.32667   0.33885
 Alpha virt. eigenvalues --    0.34966   0.37018   0.37771   0.38864   0.39482
 Alpha virt. eigenvalues --    0.40663   0.41691   0.42507   0.43404   0.43708
 Alpha virt. eigenvalues --    0.45724   0.46267   0.47109   0.48720   0.50323
 Alpha virt. eigenvalues --    0.52004   0.53791   0.57949   0.60102   0.61064
 Alpha virt. eigenvalues --    0.62458   0.65411   0.67939   0.69353   0.71116
 Alpha virt. eigenvalues --    0.71888   0.75700   0.79657   0.81161   0.82755
 Alpha virt. eigenvalues --    0.83498   0.86407   0.86881   0.87767   0.89693
 Alpha virt. eigenvalues --    0.90353   0.91440   0.93060   0.95563   0.96716
 Alpha virt. eigenvalues --    1.00030   1.03772   1.08152   1.10932   1.14738
 Alpha virt. eigenvalues --    1.19033   1.20985   1.24573   1.27484   1.30670
 Alpha virt. eigenvalues --    1.35254   1.37696   1.39088   1.40389   1.43653
 Alpha virt. eigenvalues --    1.44885   1.46904   1.50879   1.52098   1.53042
 Alpha virt. eigenvalues --    1.55950   1.56549   1.58420   1.62403   1.66459
 Alpha virt. eigenvalues --    1.69141   1.72082   1.73424   1.74392   1.78387
 Alpha virt. eigenvalues --    1.80965   1.81725   1.83896   1.86065   1.87961
 Alpha virt. eigenvalues --    1.89988   1.91262   1.94815   1.95814   1.99093
 Alpha virt. eigenvalues --    1.99702   2.05851   2.09163   2.12457   2.14088
 Alpha virt. eigenvalues --    2.17337   2.20630   2.24786   2.30896   2.34130
 Alpha virt. eigenvalues --    2.36444   2.38305   2.42292   2.48550   2.60250
 Alpha virt. eigenvalues --    2.61340   2.64069   2.73116   2.81767   2.82925
 Alpha virt. eigenvalues --    2.84786   2.86073   2.88557   2.92243   2.94174
 Alpha virt. eigenvalues --    2.96265   2.96914   3.01873   3.04571   3.05768
 Alpha virt. eigenvalues --    3.10852   3.13069   3.15526   3.18497   3.23362
 Alpha virt. eigenvalues --    3.27561   3.28320   3.31556   3.35938   3.37728
 Alpha virt. eigenvalues --    3.43900   3.46778   3.49086   3.50182   3.55780
 Alpha virt. eigenvalues --    3.60849   3.64884   3.69069   3.71934   3.75529
 Alpha virt. eigenvalues --    3.81000   3.84424   4.00779   4.12338   4.21998
 Alpha virt. eigenvalues --    4.22346   4.24759   4.27760   4.40002   4.48547
 Alpha virt. eigenvalues --    4.57391   4.67189   5.55512   5.59069   5.62802
 Alpha virt. eigenvalues --    5.66357   5.77032   5.93544   6.04368   6.21378
 Alpha virt. eigenvalues --    6.43208  24.67572  24.99834  25.02045  25.14551
 Alpha virt. eigenvalues --   26.03054  51.55183  51.60860  51.71660
  Beta  occ. eigenvalues --  -20.61226 -20.58005 -20.56114 -11.40942 -11.29695
  Beta  occ. eigenvalues --  -11.29648 -11.24982 -11.22445  -1.48332  -1.38495
  Beta  occ. eigenvalues --   -1.25659  -1.07709  -1.03486  -0.91524  -0.82892
  Beta  occ. eigenvalues --   -0.76332  -0.71877  -0.69767  -0.67473  -0.63859
  Beta  occ. eigenvalues --   -0.62692  -0.58238  -0.55560  -0.54114  -0.50902
  Beta  occ. eigenvalues --   -0.50454  -0.48145  -0.47118  -0.44845  -0.42700
  Beta virt. eigenvalues --    0.03731   0.04334   0.04635   0.06272   0.06860
  Beta virt. eigenvalues --    0.07847   0.09184   0.09562   0.10525   0.12083
  Beta virt. eigenvalues --    0.12304   0.13650   0.13940   0.15706   0.16203
  Beta virt. eigenvalues --    0.16897   0.17214   0.18115   0.18551   0.18774
  Beta virt. eigenvalues --    0.19489   0.20458   0.20952   0.21509   0.22369
  Beta virt. eigenvalues --    0.24045   0.24325   0.24941   0.26035   0.27808
  Beta virt. eigenvalues --    0.29694   0.30145   0.30597   0.32231   0.33385
  Beta virt. eigenvalues --    0.35220   0.35949   0.37159   0.37923   0.39121
  Beta virt. eigenvalues --    0.39695   0.40680   0.41643   0.42795   0.43457
  Beta virt. eigenvalues --    0.44182   0.45658   0.46172   0.47528   0.48721
  Beta virt. eigenvalues --    0.50313   0.52538   0.53971   0.57952   0.60174
  Beta virt. eigenvalues --    0.61270   0.63011   0.65589   0.68492   0.70243
  Beta virt. eigenvalues --    0.71905   0.73900   0.78223   0.79884   0.81690
  Beta virt. eigenvalues --    0.81915   0.85797   0.86110   0.87435   0.88097
  Beta virt. eigenvalues --    0.89144   0.90039   0.91313   0.93309   0.95011
  Beta virt. eigenvalues --    0.96513   1.00053   1.03772   1.08175   1.11661
  Beta virt. eigenvalues --    1.14723   1.18990   1.21032   1.24724   1.27917
  Beta virt. eigenvalues --    1.33210   1.36829   1.38242   1.39598   1.42083
  Beta virt. eigenvalues --    1.44831   1.45253   1.48434   1.51610   1.54125
  Beta virt. eigenvalues --    1.55483   1.56249   1.58088   1.58742   1.63700
  Beta virt. eigenvalues --    1.68404   1.69998   1.72165   1.73874   1.76744
  Beta virt. eigenvalues --    1.79232   1.81241   1.81856   1.83834   1.85316
  Beta virt. eigenvalues --    1.87797   1.89837   1.91220   1.94772   1.95600
  Beta virt. eigenvalues --    1.99017   1.99785   2.05870   2.09228   2.12494
  Beta virt. eigenvalues --    2.14374   2.17331   2.21489   2.24822   2.31077
  Beta virt. eigenvalues --    2.34659   2.37493   2.38481   2.42313   2.48612
  Beta virt. eigenvalues --    2.60266   2.61032   2.64083   2.73171   2.82090
  Beta virt. eigenvalues --    2.82939   2.84809   2.86081   2.88907   2.92350
  Beta virt. eigenvalues --    2.94502   2.96346   2.97058   3.02423   3.04754
  Beta virt. eigenvalues --    3.06170   3.11686   3.14840   3.17562   3.23084
  Beta virt. eigenvalues --    3.24221   3.27576   3.27977   3.31353   3.36125
  Beta virt. eigenvalues --    3.42891   3.44461   3.49098   3.51073   3.54835
  Beta virt. eigenvalues --    3.56812   3.60981   3.64766   3.70111   3.71693
  Beta virt. eigenvalues --    3.76947   3.80555   3.85741   4.00634   4.12090
  Beta virt. eigenvalues --    4.22024   4.22394   4.26508   4.28605   4.39968
  Beta virt. eigenvalues --    4.48333   4.57310   4.67184   5.58773   5.62055
  Beta virt. eigenvalues --    5.66231   5.68186   5.76835   5.93513   6.06528
  Beta virt. eigenvalues --    6.21302   6.43119  24.67439  25.00058  25.02104
  Beta virt. eigenvalues --   25.14550  26.03403  51.56924  51.61038  51.71445
          Condensed to atoms (all electrons):
               1          2          3          4          5          6
     1  C   16.061151   0.598219  -4.964720  -5.173471  -0.026331  -0.038402
     2  H    0.598219   0.408151  -0.172190  -0.050716  -0.001775  -0.001707
     3  C   -4.964720  -0.172190  12.371836  -1.764867   0.168987  -0.231499
     4  C   -5.173471  -0.050716  -1.764867  13.196938   0.299284   0.167603
     5  O   -0.026331  -0.001775   0.168987   0.299284   8.002612  -0.127060
     6  O   -0.038402  -0.001707  -0.231499   0.167603  -0.127060   8.302057
     7  C   -0.067440  -0.000395  -0.252112   0.183415   0.032484   0.167703
     8  C    0.078723  -0.000069   0.152215  -0.296246  -0.058377  -0.079470
     9  H    0.003462   0.000037   0.003689  -0.009477   0.005722  -0.081534
    10  H   -0.025270  -0.000178  -0.072678   0.092099  -0.024280  -0.019833
    11  H    0.002242   0.000017   0.010566  -0.009126  -0.001918   0.015816
    12  H   -0.010485   0.000018  -0.031951   0.041395   0.001474  -0.003714
    13  H    0.011597  -0.000147   0.022890  -0.055528   0.001329  -0.013531
    14  O   -0.141318  -0.003606   0.301239  -0.325291  -0.001081   0.028124
    15  H   -0.102076  -0.003508   0.097828   0.030385   0.000070  -0.003290
               7          8          9         10         11         12
     1  C   -0.067440   0.078723   0.003462  -0.025270   0.002242  -0.010485
     2  H   -0.000395  -0.000069   0.000037  -0.000178   0.000017   0.000018
     3  C   -0.252112   0.152215   0.003689  -0.072678   0.010566  -0.031951
     4  C    0.183415  -0.296246  -0.009477   0.092099  -0.009126   0.041395
     5  O    0.032484  -0.058377   0.005722  -0.024280  -0.001918   0.001474
     6  O    0.167703  -0.079470  -0.081534  -0.019833   0.015816  -0.003714
     7  C    5.402687  -0.064063   0.443932   0.447901  -0.055035  -0.022351
     8  C   -0.064063   5.505550  -0.055217  -0.047778   0.410830   0.405352
     9  H    0.443932  -0.055217   0.561642  -0.037124   0.001369  -0.007059
    10  H    0.447901  -0.047778  -0.037124   0.519760  -0.004868   0.002298
    11  H   -0.055035   0.410830   0.001369  -0.004868   0.561154  -0.034879
    12  H   -0.022351   0.405352  -0.007059   0.002298  -0.034879   0.569770
    13  H   -0.033721   0.412332   0.008449  -0.004405  -0.035647  -0.045845
    14  O   -0.016653   0.027738   0.000294  -0.002253   0.001910  -0.003572
    15  H    0.001427   0.000591   0.000375  -0.000434   0.000042  -0.000855
              13         14         15
     1  C    0.011597  -0.141318  -0.102076
     2  H   -0.000147  -0.003606  -0.003508
     3  C    0.022890   0.301239   0.097828
     4  C   -0.055528  -0.325291   0.030385
     5  O    0.001329  -0.001081   0.000070
     6  O   -0.013531   0.028124  -0.003290
     7  C   -0.033721  -0.016653   0.001427
     8  C    0.412332   0.027738   0.000591
     9  H    0.008449   0.000294   0.000375
    10  H   -0.004405  -0.002253  -0.000434
    11  H   -0.035647   0.001910   0.000042
    12  H   -0.045845  -0.003572  -0.000855
    13  H    0.546768  -0.000877   0.000653
    14  O   -0.000877   8.049854   0.266542
    15  H    0.000653   0.266542   0.477334
          Atomic-Atomic Spin Densities.
               1          2          3          4          5          6
     1  C    0.918757  -0.008749   0.186833   0.611839  -0.003050  -0.028396
     2  H   -0.008749  -0.082027   0.001749  -0.001136   0.000115  -0.001083
     3  C    0.186833   0.001749  -1.434735  -0.047756  -0.006483   0.062832
     4  C    0.611839  -0.001136  -0.047756  -0.494185   0.032800  -0.052654
     5  O   -0.003050   0.000115  -0.006483   0.032800  -0.109551   0.000632
     6  O   -0.028396  -0.001083   0.062832  -0.052654   0.000632   0.013024
     7  C    0.008423  -0.000210   0.004138  -0.020222   0.002567  -0.002736
     8  C    0.002427  -0.000006   0.006341  -0.005033  -0.000015   0.001422
     9  H    0.001241  -0.000023  -0.000515  -0.001535   0.000138   0.000513
    10  H    0.001118  -0.000003   0.003858  -0.004062   0.000140   0.000677
    11  H    0.000134  -0.000002   0.000610  -0.000691   0.000028   0.000137
    12  H   -0.000768   0.000004  -0.000158   0.000652   0.000034  -0.000120
    13  H   -0.003230  -0.000043  -0.005905   0.005898  -0.000303   0.000274
    14  O   -0.366431  -0.004327   0.113450   0.181174  -0.000243   0.008988
    15  H    0.038752   0.000308  -0.010805  -0.026507   0.000061  -0.000863
               7          8          9         10         11         12
     1  C    0.008423   0.002427   0.001241   0.001118   0.000134  -0.000768
     2  H   -0.000210  -0.000006  -0.000023  -0.000003  -0.000002   0.000004
     3  C    0.004138   0.006341  -0.000515   0.003858   0.000610  -0.000158
     4  C   -0.020222  -0.005033  -0.001535  -0.004062  -0.000691   0.000652
     5  O    0.002567  -0.000015   0.000138   0.000140   0.000028   0.000034
     6  O   -0.002736   0.001422   0.000513   0.000677   0.000137  -0.000120
     7  C    0.011094  -0.006681  -0.000226  -0.001900  -0.001602   0.000652
     8  C   -0.006681   0.004676   0.000180   0.000178   0.001984  -0.000841
     9  H   -0.000226   0.000180   0.000057  -0.000186  -0.000040  -0.000054
    10  H   -0.001900   0.000178  -0.000186  -0.000027  -0.000010   0.000044
    11  H   -0.001602   0.001984  -0.000040  -0.000010  -0.000151  -0.000141
    12  H    0.000652  -0.000841  -0.000054   0.000044  -0.000141   0.000150
    13  H    0.002892  -0.001706   0.000224   0.000001  -0.000411   0.000123
    14  O    0.007360  -0.002273   0.000355   0.000134   0.000005   0.000419
    15  H   -0.001348   0.000790  -0.000175   0.000016   0.000025  -0.000132
              13         14         15
     1  C   -0.003230  -0.366431   0.038752
     2  H   -0.000043  -0.004327   0.000308
     3  C   -0.005905   0.113450  -0.010805
     4  C    0.005898   0.181174  -0.026507
     5  O   -0.000303  -0.000243   0.000061
     6  O    0.000274   0.008988  -0.000863
     7  C    0.002892   0.007360  -0.001348
     8  C   -0.001706  -0.002273   0.000790
     9  H    0.000224   0.000355  -0.000175
    10  H    0.000001   0.000134   0.000016
    11  H   -0.000411   0.000005   0.000025
    12  H    0.000123   0.000419  -0.000132
    13  H    0.001073   0.000450  -0.000359
    14  O    0.000450   0.835816   0.013945
    15  H   -0.000359   0.013945  -0.039841
 Mulliken charges and spin densities:
               1          2
     1  C   -0.205881   1.358899
     2  H    0.227848  -0.095433
     3  C    0.360766  -1.126547
     4  C   -0.326398   0.178582
     5  O   -0.271142  -0.083131
     6  O   -0.081263   0.002647
     7  C   -0.167778   0.002202
     8  C   -0.392112   0.001442
     9  H    0.161439  -0.000045
    10  H    0.177044  -0.000024
    11  H    0.137526  -0.000125
    12  H    0.140404  -0.000135
    13  H    0.185683  -0.001021
    14  O   -0.181051   0.788824
    15  H    0.234915  -0.026134
 Sum of Mulliken charges =  -0.00000   1.00000
 Mulliken charges and spin densities with hydrogens summed into heavy atoms:
               1          2
     1  C    0.021966   1.263466
     3  C    0.360766  -1.126547
     4  C   -0.326398   0.178582
     5  O   -0.271142  -0.083131
     6  O   -0.081263   0.002647
     7  C    0.170705   0.002133
     8  C    0.071501   0.000160
    14  O    0.053864   0.762690
 Electronic spatial extent (au):  <R**2>=           1062.5357
 Charge=             -0.0000 electrons
 Dipole moment (field-independent basis, Debye):
    X=             -0.0262    Y=              0.9542    Z=             -3.1939  Tot=              3.3335
 Quadrupole moment (field-independent basis, Debye-Ang):
   XX=            -33.4881   YY=            -47.8823   ZZ=            -51.5827
   XY=              0.7001   XZ=              3.1530   YZ=              0.0614
 Traceless Quadrupole moment (field-independent basis, Debye-Ang):
   XX=             10.8296   YY=             -3.5646   ZZ=             -7.2650
   XY=              0.7001   XZ=              3.1530   YZ=              0.0614
 Octapole moment (field-independent basis, Debye-Ang**2):
  XXX=            -25.6687  YYY=             12.4403  ZZZ=             -1.0732  XYY=             -0.2799
  XXY=             -5.8455  XXZ=            -14.8595  XZZ=              3.3628  YZZ=              5.3826
  YYZ=            -10.0497  XYZ=              4.9753
 Hexadecapole moment (field-independent basis, Debye-Ang**3):
 XXXX=           -771.5892 YYYY=           -241.1604 ZZZZ=           -165.2118 XXXY=              8.7368
 XXXZ=             33.2454 YYYX=            -25.0733 YYYZ=             -9.9935 ZZZX=             -8.0766
 ZZZY=              0.7993 XXYY=           -207.5955 XXZZ=           -188.9055 YYZZ=            -75.1924
 XXYZ=             -4.9001 YYXZ=              7.8774 ZZXY=             -4.2503
 N-N= 3.633193426390D+02 E-N=-1.709745678986D+03  KE= 4.176971964199D+02
 1\1\GINC-AJ\SP\UCCSD(T)-FC\6-311++G(d,p)\C5H7O3(2)\AAYUSH\03-Aug-2025\
 0\\# ccsd(t)/6-311++g(d,p) sp\\Title Card Required\\0,2\C,0,-2.798467,
 -0.438456,-0.410243\H,0,-3.840449,-0.487224,-0.628887\C,0,-1.626247,-0
 .215702,-0.10923\C,0,-0.219688,-0.59883,0.147167\O,0,0.139128,-1.18851
 4,1.123548\O,0,0.561108,-0.168455,-0.839281\C,0,1.980816,-0.321602,-0.
 630157\C,0,2.502213,0.755072,0.300813\H,0,2.406453,-0.236746,-1.628314
 \H,0,2.171157,-1.320802,-0.23705\H,0,3.58479,0.657534,0.402911\H,0,2.2
 76858,1.745047,-0.097819\H,0,2.051413,0.660346,1.288939\O,0,-1.466256,
 1.593784,0.412078\H,0,-1.553827,2.004442,-0.460641\\Version=ES64L-G16R
 evA.03\State=2-A\HF=-417.9762962\MP2=-419.2329082\MP3=-419.2632523\MP4
 D=-419.2937593\MP4DQ=-419.2693771\PUHF=-418.0043183\PMP2-0=-419.257511
 4\PMP3-0=-419.28217\MP4SDQ=-419.2917137\CCSD=-419.3000918\CCSD(T)=-419
 .3550373\S2=1.084663\S2-1=0.992486\S2A=0.823064\RMSD=6.031e-09\PG=C01 
 [X(C5H7O3)]\\@


 I take a simple view of life: keep your eyes open and get on with it.
 -- Laurence Olivier
 Job cpu time:       0 days 18 hours 21 minutes 35.4 seconds.
 Elapsed time:       0 days  0 hours 46 minutes 11.5 seconds.
 File lengths (MBytes):  RWF=  44733 Int=      0 D2E=      0 Chk=      6 Scr=      1
 Normal termination of Gaussian 16 at Sun Aug  3 08:52:52 2025.
