 Entering Gaussian System, Link 0=g16
 Initial command:
 /opt/g16/l1.exe "/home/chem-lab/scratches/g16/Gau-89966.inp" -scrdir="/home/chem-lab/scratches/g16/"
 Entering Link 1 = /opt/g16/l1.exe PID=     89969.
  
 Copyright (c) 1988,1990,1992,1993,1995,1998,2003,2009,2016,
            Gaussian, Inc.  All Rights Reserved.
  
 This is part of the Gaussian(R) 16 program.  It is based on
 the Gaussian(R) 09 system (copyright 2009, Gaussian, Inc.),
 the Gaussian(R) 03 system (copyright 2003, Gaussian, Inc.),
 the Gaussian(R) 98 system (copyright 1998, Gaussian, Inc.),
 the Gaussian(R) 94 system (copyright 1995, Gaussian, Inc.),
 the Gaussian 92(TM) system (copyright 1992, Gaussian, Inc.),
 the Gaussian 90(TM) system (copyright 1990, Gaussian, Inc.),
 the Gaussian 88(TM) system (copyright 1988, Gaussian, Inc.),
 the Gaussian 86(TM) system (copyright 1986, Carnegie Mellon
 University), and the Gaussian 82(TM) system (copyright 1983,
 Carnegie Mellon University). Gaussian is a federally registered
 trademark of Gaussian, Inc.
  
 This software contains proprietary and confidential information,
 including trade secrets, belonging to Gaussian, Inc.
  
 This software is provided under written license and may be
 used, copied, transmitted, or stored only in accord with that
 written license.
  
 The following legend is applicable only to US Government
 contracts under FAR:
  
                    RESTRICTED RIGHTS LEGEND
  
 Use, reproduction and disclosure by the US Government is
 subject to restrictions as set forth in subparagraphs (a)
 and (c) of the Commercial Computer Software - Restricted
 Rights clause in FAR 52.227-19.
  
 Gaussian, Inc.
 340 Quinnipiac St., Bldg. 40, Wallingford CT 06492
  
  
 ---------------------------------------------------------------
 Warning -- This program may not be used in any manner that
 competes with the business of Gaussian, Inc. or will provide
 assistance to any competitor of Gaussian, Inc.  The licensee
 of this program is prohibited from giving any competitor of
 Gaussian, Inc. access to this program.  By using this program,
 the user acknowledges that Gaussian, Inc. is engaged in the
 business of creating and licensing software in the field of
 computational chemistry and represents and warrants to the
 licensee that it is not a competitor of Gaussian, Inc. and that
 it will not use this program in any manner prohibited above.
 ---------------------------------------------------------------
  

 Cite this work as:
 Gaussian 16, Revision A.03,
 M. J. Frisch, G. W. Trucks, H. B. Schlegel, G. E. Scuseria, 
 M. A. Robb, J. R. Cheeseman, G. Scalmani, V. Barone, 
 G. A. Petersson, H. Nakatsuji, X. Li, M. Caricato, A. V. Marenich, 
 J. Bloino, B. G. Janesko, R. Gomperts, B. Mennucci, H. P. Hratchian, 
 J. V. Ortiz, A. F. Izmaylov, J. L. Sonnenberg, D. Williams-Young, 
 F. Ding, F. Lipparini, F. Egidi, J. Goings, B. Peng, A. Petrone, 
 T. Henderson, D. Ranasinghe, V. G. Zakrzewski, J. Gao, N. Rega, 
 G. Zheng, W. Liang, M. Hada, M. Ehara, K. Toyota, R. Fukuda, 
 J. Hasegawa, M. Ishida, T. Nakajima, Y. Honda, O. Kitao, H. Nakai, 
 T. Vreven, K. Throssell, J. A. Montgomery, Jr., J. E. Peralta, 
 F. Ogliaro, M. J. Bearpark, J. J. Heyd, E. N. Brothers, K. N. Kudin, 
 V. N. Staroverov, T. A. Keith, R. Kobayashi, J. Normand, 
 K. Raghavachari, A. P. Rendell, J. C. Burant, S. S. Iyengar, 
 J. Tomasi, M. Cossi, J. M. Millam, M. Klene, C. Adamo, R. Cammi, 
 J. W. Ochterski, R. L. Martin, K. Morokuma, O. Farkas, 
 J. B. Foresman, and D. J. Fox, Gaussian, Inc., Wallingford CT, 2016.
 
 ******************************************
 Gaussian 16:  ES64L-G16RevA.03 25-Dec-2016
                20-Aug-2025 
 ******************************************
 %chk=ethyl_propiolate_non_planar.chk
 %mem=60GB
 %nprocshared=24
 Will use up to   24 processors via shared memory.
 --------------------------
 # ccsd(t)/6-311++g(d,p) sp
 --------------------------
 1/38=1,172=1/1;
 2/12=2,17=6,18=5,40=1/2;
 3/5=4,6=6,7=1111,11=9,25=1,30=1/1,2,3;
 4//1;
 5/5=2,38=5/2;
 8/6=4,9=120000,10=2/1,4;
 9/5=7,14=2/13;
 6/7=2,8=2,9=2,10=2/1;
 99/5=1,9=1/99;
 -------------------
 Title Card Required
 -------------------
 Symbolic Z-matrix:
 Charge =  0 Multiplicity = 2
 C                     2.7548   -0.40765   0.42108 
 H                     3.80213  -0.37243   0.61153 
 C                     1.57644  -0.43983   0.19103 
 C                     0.16228  -0.61185  -0.1316 
 O                    -0.21736  -1.14024  -1.13682 
 O                    -0.61732  -0.15115   0.84676 
 C                    -2.0377   -0.29677   0.63722 
 C                    -2.56495   0.78785  -0.28018 
 H                    -2.46169  -0.22384   1.63724 
 H                    -2.2291   -1.2913    0.23257 
 H                    -3.64777   0.68905  -0.37906 
 H                    -2.34209   1.77442   0.12867 
 H                    -2.11717   0.70408  -1.27042 
 O                     1.39092   1.80699  -0.43053 
 H                     1.46729   2.06624   0.50313 
 
                          Input orientation:                          
 ---------------------------------------------------------------------
 Center     Atomic      Atomic             Coordinates (Angstroms)
 Number     Number       Type             X           Y           Z
 ---------------------------------------------------------------------
      1          6           0        2.754797   -0.407649    0.421079
      2          1           0        3.802130   -0.372428    0.611526
      3          6           0        1.576435   -0.439826    0.191031
      4          6           0        0.162281   -0.611850   -0.131597
      5          8           0       -0.217361   -1.140239   -1.136818
      6          8           0       -0.617323   -0.151149    0.846761
      7          6           0       -2.037696   -0.296770    0.637221
      8          6           0       -2.564948    0.787845   -0.280176
      9          1           0       -2.461688   -0.223843    1.637244
     10          1           0       -2.229099   -1.291302    0.232565
     11          1           0       -3.647770    0.689049   -0.379055
     12          1           0       -2.342091    1.774421    0.128670
     13          1           0       -2.117166    0.704083   -1.270423
     14          8           0        1.390917    1.806990   -0.430534
     15          1           0        1.467290    2.066241    0.503127
 ---------------------------------------------------------------------
                    Distance matrix (angstroms):
                    1          2          3          4          5
     1  C    0.000000
     2  H    1.065090   0.000000
     3  C    1.201039   2.266071   0.000000
     4  C    2.658625   3.722641   1.460655   0.000000
     5  O    3.434742   4.450005   2.339116   1.197411   0.000000
     6  O    3.408547   4.431237   2.307789   1.333121   2.252300
     7  C    4.798646   5.840373   3.644378   2.351649   2.678110
     8  C    5.497331   6.533073   4.345143   3.069039   3.156344
     9  H    5.359530   6.348983   4.294720   3.188191   3.684047
    10  H    5.065136   6.112582   3.899849   2.512562   2.438262
    11  H    6.544908   7.590059   5.375098   4.033617   3.960834
    12  H    5.552045   6.526374   4.501291   3.468992   3.822457
    13  H    5.275713   6.303862   4.133650   2.867836   2.651157
    14  O    2.736794   3.413166   2.338577   2.729413   3.430970
    15  H    2.790078   3.377919   2.527783   3.045996   3.976051
                    6          7          8          9         10
     6  O    0.000000
     7  C    1.443112   0.000000
     8  C    2.438225   1.515256   0.000000
     9  H    2.007942   1.088638   2.170409   0.000000
    10  H    2.067609   1.090631   2.167614   1.779519   0.000000
    11  H    3.375228   2.144060   1.091806   2.511100   2.511672
    12  H    2.682965   2.154324   1.090941   2.506623   3.069563
    13  H    2.731926   2.155720   1.090006   3.071526   2.500613
    14  O    3.082015   4.161886   4.087803   4.821053   4.810783
    15  H    3.062762   4.229271   4.301953   4.686958   5.000959
                   11         12         13         14         15
    11  H    0.000000
    12  H    1.772178   0.000000
    13  H    1.771302   1.775859   0.000000
    14  O    5.161474   3.774800   3.772064   0.000000
    15  H    5.370171   3.838849   4.224841   0.971991   0.000000
 Stoichiometry    C5H7O3(2)
 Framework group  C1[X(C5H7O3)]
 Deg. of freedom    39
 Full point group                 C1      NOp   1
 Largest Abelian subgroup         C1      NOp   1
 Largest concise Abelian subgroup C1      NOp   1
                         Standard orientation:                         
 ---------------------------------------------------------------------
 Center     Atomic      Atomic             Coordinates (Angstroms)
 Number     Number       Type             X           Y           Z
 ---------------------------------------------------------------------
      1          6           0       -2.817728   -0.447694   -0.382631
      2          1           0       -3.865575   -0.418994   -0.571335
      3          6           0       -1.638731   -0.471887   -0.154867
      4          6           0       -0.223842   -0.632283    0.170516
      5          8           0        0.158121   -1.119017    1.195692
      6          8           0        0.553432   -0.213627   -0.828376
      7          6           0        1.974238   -0.352343   -0.617097
      8          6           0        2.505530    0.768693    0.252966
      9          1           0        2.395361   -0.321546   -1.620511
     10          1           0        2.165616   -1.329485   -0.172076
     11          1           0        3.588517    0.672625    0.352716
     12          1           0        2.282676    1.737754   -0.195820
     13          1           0        2.060574    0.726697    1.247131
     14          8           0       -1.448620    1.798533    0.372382
     15          1           0       -1.527434    2.018922   -0.571007
 ---------------------------------------------------------------------
 Rotational constants (GHZ):           3.3723236           1.3027444           1.1481627
 Standard basis: 6-311++G(d,p) (5D, 7F)
 There are   233 symmetry adapted cartesian basis functions of A   symmetry.
 There are   225 symmetry adapted basis functions of A   symmetry.
   225 basis functions,   351 primitive gaussians,   233 cartesian basis functions
    31 alpha electrons       30 beta electrons
       nuclear repulsion energy       358.3486483442 Hartrees.
 NAtoms=   15 NActive=   15 NUniq=   15 SFac= 1.00D+00 NAtFMM=   60 NAOKFM=F Big=F
 Integral buffers will be    131072 words long.
 Raffenetti 2 integral format.
 Two-electron integral symmetry is turned on.
 One-electron integrals computed using PRISM.
 NBasis=   225 RedAO= T EigKep=  7.86D-06  NBF=   225
 NBsUse=   224 1.00D-06 EigRej=  7.87D-07 NBFU=   224
 ExpMin= 3.60D-02 ExpMax= 8.59D+03 ExpMxC= 1.30D+03 IAcc=3 IRadAn=         5 AccDes= 0.00D+00
 Harris functional with IExCor=  205 and IRadAn=       5 diagonalized for initial guess.
 HarFok:  IExCor=  205 AccDes= 0.00D+00 IRadAn=         5 IDoV= 1 UseB2=F ITyADJ=14
 ICtDFT=  3500011 ScaDFX=  1.000000  1.000000  1.000000  1.000000
 FoFCou: FMM=F IPFlag=           0 FMFlag=      100000 FMFlg1=           0
         NFxFlg=           0 DoJE=T BraDBF=F KetDBF=T FulRan=T
         wScrn=  0.000000 ICntrl=       500 IOpCl=  0 I1Cent=   200000004 NGrid=           0
         NMat0=    1 NMatS0=      1 NMatT0=    0 NMatD0=    1 NMtDS0=    0 NMtDT0=    0
 Petite list used in FoFCou.
 Initial guess <Sx>= 0.0000 <Sy>= 0.0000 <Sz>= 0.5000 <S**2>= 0.7500 S= 0.5000
 Requested convergence on RMS density matrix=1.00D-08 within 128 cycles.
 Requested convergence on MAX density matrix=1.00D-06.
 Requested convergence on             energy=1.00D-06.
 No special actions if energy rises.
 Initial convergence to 1.0D-05 achieved.  Increase integral accuracy.
 Restarting incremental Fock formation.
 SCF Done:  E(UHF) =  -417.991766932     A.U. after   38 cycles
            NFock= 38  Conv=0.72D-08     -V/T= 2.0007
 <Sx>= 0.0000 <Sy>= 0.0000 <Sz>= 0.5000 <S**2>= 0.8155 S= 0.5322
 <L.S>=  0.00000000000    
 Annihilation of the first spin contaminant:
 S**2 before annihilation     0.8155,   after     0.7527
 ExpMin= 3.60D-02 ExpMax= 8.59D+03 ExpMxC= 1.30D+03 IAcc=3 IRadAn=         5 AccDes= 0.00D+00
 HarFok:  IExCor=  205 AccDes= 0.00D+00 IRadAn=         5 IDoV=-2 UseB2=F ITyADJ=14
 ICtDFT= 12500011 ScaDFX=  1.000000  1.000000  1.000000  1.000000
 Range of M.O.s used for correlation:     9   224
 NBasis=   225 NAE=    31 NBE=    30 NFC=     8 NFV=     0
 NROrb=    216 NOA=    23 NOB=    22 NVA=   193 NVB=   194

 **** Warning!!: The largest alpha MO coefficient is  0.98172389D+02


 **** Warning!!: The largest beta MO coefficient is  0.10832594D+03

 Semi-Direct transformation.
 ModeAB=           4 MOrb=            23 LenV=    8051635069
 LASXX=    107793295 LTotXX=   107793295 LenRXX=   218294035
 LTotAB=   110500740 MaxLAS=   129113352 LenRXY=           0
 NonZer=   326087330 LenScr=   491049984 LnRSAI=   129113352
 LnScr1=   194439168 LExtra=           0 Total=   1032896539
 MaxDsk=          -1 SrtSym=           T ITran=            4
 JobTyp=1 Pass  1:  I=   1 to  23.
 (rs|ai) integrals will be sorted in core.
 ModeAB=           4 MOrb=            22 LenV=    8051635069
 LASXX=    103454307 LTotXX=   103454307 LenRXX=   188091948
 LTotAB=    84637641 MaxLAS=   123499728 LenRXY=           0
 NonZer=   291546255 LenScr=   439034880 LnRSAI=   123499728
 LnScr1=   186020352 LExtra=           0 Total=    936646908
 MaxDsk=          -1 SrtSym=           T ITran=            4
 JobTyp=2 Pass  1:  I=   1 to  22.
 (rs|ai) integrals will be sorted in core.
 SymMOI:  orbitals are not symmetric.
 Spin components of T(2) and E(2):
     alpha-alpha T2 =       0.5259318403D-01 E2=     -0.1698909996D+00
     alpha-beta  T2 =       0.2869588670D+00 E2=     -0.9365377568D+00
     beta-beta   T2 =       0.4956232207D-01 E2=     -0.1552792757D+00
 ANorm=    0.1178606963D+01
 E2 =    -0.1261708032D+01 EUMP2 =    -0.41925347496441D+03
 (S**2,0)=  0.81548D+00           (S**2,1)=  0.79515D+00
 E(PUHF)=      -0.41799846543D+03        E(PMP2)=      -0.41925915828D+03
 Keep R2 and R3 ints in memory in canonical form, NReq=652883968.
 CIDS: In Core Option IDoMem=           1.
 Iterations=  50 Convergence= 0.100D-06
 Produce multiple copies of IABC intergrals
 Iteration Nr.   1
 **********************
 DD1Dir will call FoFMem   1 times, MxPair=      1496
 NAB=   506 NAA=   253 NBB=   231.
 E(PMP3)=      -0.41928484703D+03
 MP4(R+Q)=  0.25148847D-01
 E3=       -0.27348925D-01        EUMP3=      -0.41928082389D+03
 E4(DQ)=   -0.56733917D-02        UMP4(DQ)=   -0.41928649728D+03
 E4(SDQ)=  -0.24234472D-01        UMP4(SDQ)=  -0.41930505836D+03
 DE(Corr)=  -1.2632836     E(Corr)=     -419.25505049    
 NORM(A)=   0.11849130D+01
 Iteration Nr.   2
 **********************
 DD1Dir will call FoFMem   1 times, MxPair=      1496
 NAB=   506 NAA=   253 NBB=   231.
 DE(Corr)=  -1.3051372     E(CORR)=     -419.29690413     Delta=-4.19D-02
 NORM(A)=   0.12028416D+01
 Iteration Nr.   3
 **********************
 DD1Dir will call FoFMem   1 times, MxPair=      1496
 NAB=   506 NAA=   253 NBB=   231.
 DE(Corr)=  -1.3067653     E(CORR)=     -419.29853228     Delta=-1.63D-03
 NORM(A)=   0.12096407D+01
 Iteration Nr.   4
 **********************
 DD1Dir will call FoFMem   1 times, MxPair=      1496
 NAB=   506 NAA=   253 NBB=   231.
 DE(Corr)=  -1.3118567     E(CORR)=     -419.30362363     Delta=-5.09D-03
 NORM(A)=   0.12129126D+01
 Iteration Nr.   5
 **********************
 DD1Dir will call FoFMem   1 times, MxPair=      1496
 NAB=   506 NAA=   253 NBB=   231.
 DE(Corr)=  -1.3128482     E(CORR)=     -419.30461511     Delta=-9.91D-04
 NORM(A)=   0.12147524D+01
 Iteration Nr.   6
 **********************
 DD1Dir will call FoFMem   1 times, MxPair=      1496
 NAB=   506 NAA=   253 NBB=   231.
 DE(Corr)=  -1.3131445     E(CORR)=     -419.30491143     Delta=-2.96D-04
 NORM(A)=   0.12151545D+01
 Iteration Nr.   7
 **********************
 DD1Dir will call FoFMem   1 times, MxPair=      1496
 NAB=   506 NAA=   253 NBB=   231.
 DE(Corr)=  -1.3132027     E(CORR)=     -419.30496959     Delta=-5.82D-05
 NORM(A)=   0.12152342D+01
 Iteration Nr.   8
 **********************
 DD1Dir will call FoFMem   1 times, MxPair=      1496
 NAB=   506 NAA=   253 NBB=   231.
 DE(Corr)=  -1.3131907     E(CORR)=     -419.30495763     Delta= 1.20D-05
 NORM(A)=   0.12152716D+01
 Iteration Nr.   9
 **********************
 DD1Dir will call FoFMem   1 times, MxPair=      1496
 NAB=   506 NAA=   253 NBB=   231.
 DE(Corr)=  -1.3132001     E(CORR)=     -419.30496707     Delta=-9.43D-06
 NORM(A)=   0.12152745D+01
 Iteration Nr.  10
 **********************
 DD1Dir will call FoFMem   1 times, MxPair=      1496
 NAB=   506 NAA=   253 NBB=   231.
 DE(Corr)=  -1.3132014     E(CORR)=     -419.30496835     Delta=-1.28D-06
 NORM(A)=   0.12152806D+01
 Iteration Nr.  11
 **********************
 DD1Dir will call FoFMem   1 times, MxPair=      1496
 NAB=   506 NAA=   253 NBB=   231.
 DE(Corr)=  -1.3132081     E(CORR)=     -419.30497500     Delta=-6.66D-06
 NORM(A)=   0.12152869D+01
 Iteration Nr.  12
 **********************
 DD1Dir will call FoFMem   1 times, MxPair=      1496
 NAB=   506 NAA=   253 NBB=   231.
 DE(Corr)=  -1.3132094     E(CORR)=     -419.30497631     Delta=-1.30D-06
 NORM(A)=   0.12152926D+01
 Iteration Nr.  13
 **********************
 DD1Dir will call FoFMem   1 times, MxPair=      1496
 NAB=   506 NAA=   253 NBB=   231.
 DE(Corr)=  -1.3132117     E(CORR)=     -419.30497859     Delta=-2.28D-06
 NORM(A)=   0.12152980D+01
 Iteration Nr.  14
 **********************
 DD1Dir will call FoFMem   1 times, MxPair=      1496
 NAB=   506 NAA=   253 NBB=   231.
 DE(Corr)=  -1.3132127     E(CORR)=     -419.30497968     Delta=-1.09D-06
 NORM(A)=   0.12153027D+01
 Iteration Nr.  15
 **********************
 DD1Dir will call FoFMem   1 times, MxPair=      1496
 NAB=   506 NAA=   253 NBB=   231.
 DE(Corr)=  -1.3132133     E(CORR)=     -419.30498021     Delta=-5.30D-07
 NORM(A)=   0.12153078D+01
 Iteration Nr.  16
 **********************
 DD1Dir will call FoFMem   1 times, MxPair=      1496
 NAB=   506 NAA=   253 NBB=   231.
 DE(Corr)=  -1.3132146     E(CORR)=     -419.30498153     Delta=-1.33D-06
 NORM(A)=   0.12153115D+01
 Iteration Nr.  17
 **********************
 DD1Dir will call FoFMem   1 times, MxPair=      1496
 NAB=   506 NAA=   253 NBB=   231.
 DE(Corr)=  -1.3132147     E(CORR)=     -419.30498163     Delta=-9.48D-08
 NORM(A)=   0.12153124D+01
 Wavefunction amplitudes converged. E(Corr)=     -419.30498163    
 Largest amplitude= 5.10D-02
 Time for triples=    78092.38 seconds.
 T4(CCSD)= -0.55870047D-01
 T5(CCSD)=  0.34089866D-02
 CCSD(T)= -0.41935744269D+03

 S**2, projected HF & approx projected MPn energies after annihilation of
 unwanted spin states (see manual for definitions):

 spins       (S**2,0) (S**2,1)    PUHF        PMP2        PMP3        PMP4
 annihilated
 s+1         0.74842  0.74957 -417.998465 -419.259158 -419.284847
 s+1,s+2     0.75001  0.75000 -417.998306 -419.259011 -419.284715
 s+1 to s+3  0.75000  0.75000 -417.998307 -419.259012 -419.284715
 s+1 to s+4  0.75000  0.75000 -417.998307 -419.259012 -419.284715
 s+1 to s+5  0.75000  0.75000 -417.998307
 s+1 to s+6  0.75000  0.75000 -417.998307

 Discarding MO integrals.

 **********************************************************************

            Population analysis using the SCF density.

 **********************************************************************

 Orbital symmetries:
 Alpha Orbitals:
       Occupied  (A) (A) (A) (A) (A) (A) (A) (A) (A) (A) (A) (A)
                 (A) (A) (A) (A) (A) (A) (A) (A) (A) (A) (A) (A)
                 (A) (A) (A) (A) (A) (A) (A)
       Virtual   (A) (A) (A) (A) (A) (A) (A) (A) (A) (A) (A) (A)
                 (A) (A) (A) (A) (A) (A) (A) (A) (A) (A) (A) (A)
                 (A) (A) (A) (A) (A) (A) (A) (A) (A) (A) (A) (A)
                 (A) (A) (A) (A) (A) (A) (A) (A) (A) (A) (A) (A)
                 (A) (A) (A) (A) (A) (A) (A) (A) (A) (A) (A) (A)
                 (A) (A) (A) (A) (A) (A) (A) (A) (A) (A) (A) (A)
                 (A) (A) (A) (A) (A) (A) (A) (A) (A) (A) (A) (A)
                 (A) (A) (A) (A) (A) (A) (A) (A) (A) (A) (A) (A)
                 (A) (A) (A) (A) (A) (A) (A) (A) (A) (A) (A) (A)
                 (A) (A) (A) (A) (A) (A) (A) (A) (A) (A) (A) (A)
                 (A) (A) (A) (A) (A) (A) (A) (A) (A) (A) (A) (A)
                 (A) (A) (A) (A) (A) (A) (A) (A) (A) (A) (A) (A)
                 (A) (A) (A) (A) (A) (A) (A) (A) (A) (A) (A) (A)
                 (A) (A) (A) (A) (A) (A) (A) (A) (A) (A) (A) (A)
                 (A) (A) (A) (A) (A) (A) (A) (A) (A) (A) (A) (A)
                 (A) (A) (A) (A) (A) (A) (A) (A) (A) (A) (A) (A)
                 (A)
 Beta  Orbitals:
       Occupied  (A) (A) (A) (A) (A) (A) (A) (A) (A) (A) (A) (A)
                 (A) (A) (A) (A) (A) (A) (A) (A) (A) (A) (A) (A)
                 (A) (A) (A) (A) (A) (A)
       Virtual   (A) (A) (A) (A) (A) (A) (A) (A) (A) (A) (A) (A)
                 (A) (A) (A) (A) (A) (A) (A) (A) (A) (A) (A) (A)
                 (A) (A) (A) (A) (A) (A) (A) (A) (A) (A) (A) (A)
                 (A) (A) (A) (A) (A) (A) (A) (A) (A) (A) (A) (A)
                 (A) (A) (A) (A) (A) (A) (A) (A) (A) (A) (A) (A)
                 (A) (A) (A) (A) (A) (A) (A) (A) (A) (A) (A) (A)
                 (A) (A) (A) (A) (A) (A) (A) (A) (A) (A) (A) (A)
                 (A) (A) (A) (A) (A) (A) (A) (A) (A) (A) (A) (A)
                 (A) (A) (A) (A) (A) (A) (A) (A) (A) (A) (A) (A)
                 (A) (A) (A) (A) (A) (A) (A) (A) (A) (A) (A) (A)
                 (A) (A) (A) (A) (A) (A) (A) (A) (A) (A) (A) (A)
                 (A) (A) (A) (A) (A) (A) (A) (A) (A) (A) (A) (A)
                 (A) (A) (A) (A) (A) (A) (A) (A) (A) (A) (A) (A)
                 (A) (A) (A) (A) (A) (A) (A) (A) (A) (A) (A) (A)
                 (A) (A) (A) (A) (A) (A) (A) (A) (A) (A) (A) (A)
                 (A) (A) (A) (A) (A) (A) (A) (A) (A) (A) (A) (A)
                 (A) (A)
 The electronic state is 2-A.
 Alpha  occ. eigenvalues --  -20.63054 -20.61379 -20.55822 -11.41568 -11.29759
 Alpha  occ. eigenvalues --  -11.26800 -11.25834 -11.22472  -1.48191  -1.38589
 Alpha  occ. eigenvalues --   -1.37946  -1.07815  -1.04181  -0.92600  -0.83835
 Alpha  occ. eigenvalues --   -0.76494  -0.73066  -0.69527  -0.67971  -0.67133
 Alpha  occ. eigenvalues --   -0.65059  -0.63245  -0.58363  -0.55935  -0.54096
 Alpha  occ. eigenvalues --   -0.54023  -0.50552  -0.47911  -0.46376  -0.42791
 Alpha  occ. eigenvalues --   -0.42173
 Alpha virt. eigenvalues --    0.03653   0.04406   0.05642   0.06297   0.07292
 Alpha virt. eigenvalues --    0.08926   0.09334   0.09763   0.10991   0.11664
 Alpha virt. eigenvalues --    0.13572   0.13728   0.14425   0.16152   0.16461
 Alpha virt. eigenvalues --    0.17361   0.18005   0.18641   0.18787   0.19662
 Alpha virt. eigenvalues --    0.20518   0.20966   0.22231   0.22726   0.23928
 Alpha virt. eigenvalues --    0.24678   0.25286   0.27452   0.27845   0.29422
 Alpha virt. eigenvalues --    0.29882   0.31751   0.32255   0.33065   0.34819
 Alpha virt. eigenvalues --    0.35765   0.37255   0.38035   0.38556   0.39069
 Alpha virt. eigenvalues --    0.40506   0.41629   0.42203   0.43475   0.45527
 Alpha virt. eigenvalues --    0.45984   0.46439   0.48201   0.50279   0.51415
 Alpha virt. eigenvalues --    0.53586   0.58014   0.59971   0.60713   0.62868
 Alpha virt. eigenvalues --    0.64557   0.68346   0.70541   0.72087   0.75347
 Alpha virt. eigenvalues --    0.75978   0.79542   0.81474   0.82845   0.85920
 Alpha virt. eigenvalues --    0.86539   0.87378   0.88353   0.89646   0.90306
 Alpha virt. eigenvalues --    0.91047   0.92312   0.94499   0.97331   1.01292
 Alpha virt. eigenvalues --    1.06180   1.08446   1.12897   1.19256   1.20188
 Alpha virt. eigenvalues --    1.22829   1.25565   1.26885   1.30591   1.31849
 Alpha virt. eigenvalues --    1.35695   1.37957   1.40031   1.40324   1.43833
 Alpha virt. eigenvalues --    1.44332   1.49159   1.51736   1.53672   1.54438
 Alpha virt. eigenvalues --    1.56334   1.57170   1.57939   1.62602   1.65704
 Alpha virt. eigenvalues --    1.69356   1.71816   1.73167   1.75399   1.80607
 Alpha virt. eigenvalues --    1.81823   1.83699   1.84758   1.87925   1.89695
 Alpha virt. eigenvalues --    1.90724   1.94488   1.95336   1.98611   1.99565
 Alpha virt. eigenvalues --    2.05958   2.08907   2.11815   2.12989   2.17860
 Alpha virt. eigenvalues --    2.23643   2.26453   2.29888   2.32750   2.33885
 Alpha virt. eigenvalues --    2.37698   2.42276   2.49383   2.60520   2.64251
 Alpha virt. eigenvalues --    2.71489   2.78231   2.80993   2.82923   2.84742
 Alpha virt. eigenvalues --    2.85999   2.91842   2.92905   2.94006   2.95157
 Alpha virt. eigenvalues --    2.96969   3.00886   3.03793   3.06787   3.11469
 Alpha virt. eigenvalues --    3.12843   3.15463   3.17389   3.24070   3.24269
 Alpha virt. eigenvalues --    3.27961   3.31719   3.34910   3.36652   3.40473
 Alpha virt. eigenvalues --    3.43435   3.46843   3.48154   3.50198   3.58945
 Alpha virt. eigenvalues --    3.59886   3.66124   3.70558   3.73237   3.79647
 Alpha virt. eigenvalues --    3.93626   4.02197   4.12844   4.21486   4.22247
 Alpha virt. eigenvalues --    4.22795   4.27878   4.41056   4.51526   4.57923
 Alpha virt. eigenvalues --    4.67268   5.50955   5.55134   5.60950   5.65361
 Alpha virt. eigenvalues --    5.77734   5.93086   5.99247   6.21405   6.43116
 Alpha virt. eigenvalues --   24.70271  25.01193  25.01935  25.14848  26.27745
 Alpha virt. eigenvalues --   51.51134  51.60410  51.72412
  Beta  occ. eigenvalues --  -20.61383 -20.58948 -20.56085 -11.41380 -11.29760
  Beta  occ. eigenvalues --  -11.26697 -11.25753 -11.22473  -1.48300  -1.38362
  Beta  occ. eigenvalues --   -1.23153  -1.07837  -1.03786  -0.92165  -0.83679
  Beta  occ. eigenvalues --   -0.76434  -0.72585  -0.69691  -0.66661  -0.63528
  Beta  occ. eigenvalues --   -0.63095  -0.58563  -0.55309  -0.54114  -0.50710
  Beta  occ. eigenvalues --   -0.50487  -0.48243  -0.47053  -0.42831  -0.42432
  Beta virt. eigenvalues --    0.03678   0.04358   0.05103   0.06294   0.07108
  Beta virt. eigenvalues --    0.08611   0.09346   0.09505   0.10449   0.10854
  Beta virt. eigenvalues --    0.12435   0.13740   0.13888   0.14907   0.16323
  Beta virt. eigenvalues --    0.16586   0.17532   0.18265   0.18756   0.19119
  Beta virt. eigenvalues --    0.19793   0.20934   0.21050   0.22318   0.22829
  Beta virt. eigenvalues --    0.24114   0.24748   0.25536   0.27734   0.28289
  Beta virt. eigenvalues --    0.29893   0.30350   0.31638   0.32812   0.33537
  Beta virt. eigenvalues --    0.34814   0.36112   0.37626   0.38113   0.39080
  Beta virt. eigenvalues --    0.40354   0.40768   0.41657   0.42625   0.43435
  Beta virt. eigenvalues --    0.45409   0.45940   0.46484   0.48261   0.50400
  Beta virt. eigenvalues --    0.52066   0.53666   0.58016   0.60170   0.60845
  Beta virt. eigenvalues --    0.62911   0.64665   0.68504   0.70867   0.72773
  Beta virt. eigenvalues --    0.76569   0.77491   0.79847   0.81825   0.83258
  Beta virt. eigenvalues --    0.86235   0.86272   0.87287   0.88350   0.89623
  Beta virt. eigenvalues --    0.89998   0.91110   0.92269   0.94582   0.97297
  Beta virt. eigenvalues --    1.01833   1.06242   1.09050   1.13001   1.19400
  Beta virt. eigenvalues --    1.22185   1.23473   1.25881   1.31001   1.31711
  Beta virt. eigenvalues --    1.33430   1.35592   1.38341   1.40370   1.40998
  Beta virt. eigenvalues --    1.44098   1.44536   1.49278   1.52755   1.54538
  Beta virt. eigenvalues --    1.55749   1.57570   1.58021   1.58414   1.64032
  Beta virt. eigenvalues --    1.66198   1.70343   1.72363   1.73850   1.76506
  Beta virt. eigenvalues --    1.80599   1.81825   1.83764   1.84782   1.87902
  Beta virt. eigenvalues --    1.89633   1.90657   1.94448   1.95558   1.98810
  Beta virt. eigenvalues --    1.99760   2.05993   2.09016   2.11809   2.13295
  Beta virt. eigenvalues --    2.17830   2.23838   2.26746   2.30030   2.33116
  Beta virt. eigenvalues --    2.35373   2.37791   2.42285   2.49398   2.60533
  Beta virt. eigenvalues --    2.64257   2.71769   2.78248   2.80882   2.82923
  Beta virt. eigenvalues --    2.84750   2.86059   2.91916   2.93354   2.94062
  Beta virt. eigenvalues --    2.95250   2.97015   3.01325   3.04313   3.07304
  Beta virt. eigenvalues --    3.11699   3.15403   3.17919   3.23116   3.26703
  Beta virt. eigenvalues --    3.28470   3.29399   3.31707   3.35869   3.38800
  Beta virt. eigenvalues --    3.40329   3.46331   3.48626   3.49889   3.54565
  Beta virt. eigenvalues --    3.59399   3.60592   3.66138   3.70785   3.73155
  Beta virt. eigenvalues --    3.79259   3.94011   4.02105   4.12825   4.21859
  Beta virt. eigenvalues --    4.22602   4.25423   4.28049   4.41062   4.51461
  Beta virt. eigenvalues --    4.57915   4.67266   5.56136   5.60122   5.64689
  Beta virt. eigenvalues --    5.66194   5.77603   5.93094   6.01823   6.21349
  Beta virt. eigenvalues --    6.43058  24.70264  25.01323  25.01951  25.14849
  Beta virt. eigenvalues --   26.27860  51.53453  51.60435  51.72274
          Condensed to atoms (all electrons):
               1          2          3          4          5          6
     1  C    5.709338   0.441688  -0.619819   1.139030  -0.097192  -0.068998
     2  H    0.441688   0.404544  -0.094552   0.031105  -0.003751  -0.004695
     3  C   -0.619819  -0.094552   9.404337  -3.348544   0.193474  -0.223699
     4  C    1.139030   0.031105  -3.348544   8.468039   0.333312   0.158035
     5  O   -0.097192  -0.003751   0.193474   0.333312   8.008134  -0.113914
     6  O   -0.068998  -0.004695  -0.223699   0.158035  -0.113914   8.295790
     7  C    0.041090   0.000604  -0.258039   0.017576   0.035002   0.190309
     8  C   -0.012358  -0.000824  -0.022440  -0.038512  -0.063862  -0.074001
     9  H    0.002933   0.000181  -0.009144   0.003856   0.003801  -0.080318
    10  H    0.000397  -0.000233  -0.018307   0.003744  -0.022407  -0.016271
    11  H   -0.001161  -0.000008   0.004918  -0.005533  -0.002528   0.017402
    12  H    0.000293   0.000011  -0.000277  -0.002152   0.003469  -0.005555
    13  H    0.000172  -0.000039  -0.012009  -0.011259  -0.001725  -0.011368
    14  O   -0.006858   0.001840  -0.051187  -0.026129  -0.007661   0.020998
    15  H    0.003159  -0.001422   0.029253  -0.017571   0.000211  -0.000378
               7          8          9         10         11         12
     1  C    0.041090  -0.012358   0.002933   0.000397  -0.001161   0.000293
     2  H    0.000604  -0.000824   0.000181  -0.000233  -0.000008   0.000011
     3  C   -0.258039  -0.022440  -0.009144  -0.018307   0.004918  -0.000277
     4  C    0.017576  -0.038512   0.003856   0.003744  -0.005533  -0.002152
     5  O    0.035002  -0.063862   0.003801  -0.022407  -0.002528   0.003469
     6  O    0.190309  -0.074001  -0.080318  -0.016271   0.017402  -0.005555
     7  C    5.400134  -0.060046   0.445129   0.442340  -0.050873  -0.023029
     8  C   -0.060046   5.500627  -0.055561  -0.034153   0.411215   0.407711
     9  H    0.445129  -0.055561   0.558349  -0.036650   0.000882  -0.006944
    10  H    0.442340  -0.034153  -0.036650   0.511089  -0.004323   0.000374
    11  H   -0.050873   0.411215   0.000882  -0.004323   0.560635  -0.033246
    12  H   -0.023029   0.407711  -0.006944   0.000374  -0.033246   0.568827
    13  H   -0.029201   0.410000   0.008199  -0.002884  -0.036077  -0.043877
    14  O   -0.012314   0.017701   0.000249  -0.000539   0.001360  -0.000379
    15  H    0.001155   0.001290   0.000397  -0.000368   0.000022  -0.001162
              13         14         15
     1  C    0.000172  -0.006858   0.003159
     2  H   -0.000039   0.001840  -0.001422
     3  C   -0.012009  -0.051187   0.029253
     4  C   -0.011259  -0.026129  -0.017571
     5  O   -0.001725  -0.007661   0.000211
     6  O   -0.011368   0.020998  -0.000378
     7  C   -0.029201  -0.012314   0.001155
     8  C    0.410000   0.017701   0.001290
     9  H    0.008199   0.000249   0.000397
    10  H   -0.002884  -0.000539  -0.000368
    11  H   -0.036077   0.001360   0.000022
    12  H   -0.043877  -0.000379  -0.001162
    13  H    0.543527  -0.002022   0.000371
    14  O   -0.002022   7.936428   0.288947
    15  H    0.000371   0.288947   0.480495
          Atomic-Atomic Spin Densities.
               1          2          3          4          5          6
     1  C    0.495905  -0.008063   0.040162  -0.019033   0.005089  -0.003524
     2  H   -0.008063  -0.029093   0.005622  -0.001263   0.000265  -0.000123
     3  C    0.040162   0.005622  -0.536439   0.063912  -0.010092   0.023278
     4  C   -0.019033  -0.001263   0.063912   0.054130   0.019787  -0.029385
     5  O    0.005089   0.000265  -0.010092   0.019787  -0.072815  -0.000293
     6  O   -0.003524  -0.000123   0.023278  -0.029385  -0.000293   0.008992
     7  C    0.006591   0.000472  -0.028225   0.014126   0.001562  -0.000547
     8  C   -0.004199  -0.000223   0.019750  -0.015119   0.000643   0.000373
     9  H   -0.000125  -0.000001   0.001305  -0.001464   0.000262   0.000372
    10  H   -0.000794  -0.000049   0.004389  -0.002443   0.000149   0.000148
    11  H   -0.000070  -0.000002   0.000406  -0.000145   0.000031   0.000033
    12  H    0.000258   0.000014  -0.001183   0.001229  -0.000141  -0.000059
    13  H    0.001104   0.000064  -0.005334   0.004049  -0.000182  -0.000176
    14  O   -0.037554  -0.001382   0.016646  -0.029087   0.001803  -0.000504
    15  H    0.001129  -0.000088   0.002889  -0.001794  -0.000117  -0.000032
               7          8          9         10         11         12
     1  C    0.006591  -0.004199  -0.000125  -0.000794  -0.000070   0.000258
     2  H    0.000472  -0.000223  -0.000001  -0.000049  -0.000002   0.000014
     3  C   -0.028225   0.019750   0.001305   0.004389   0.000406  -0.001183
     4  C    0.014126  -0.015119  -0.001464  -0.002443  -0.000145   0.001229
     5  O    0.001562   0.000643   0.000262   0.000149   0.000031  -0.000141
     6  O   -0.000547   0.000373   0.000372   0.000148   0.000033  -0.000059
     7  C    0.008926   0.000322   0.001092  -0.001816  -0.001642  -0.000278
     8  C    0.000322  -0.006043  -0.000827   0.000326   0.001574   0.000924
     9  H    0.001092  -0.000827  -0.000700  -0.000347   0.000063   0.000097
    10  H   -0.001816   0.000326  -0.000347   0.000207   0.000039   0.000024
    11  H   -0.001642   0.001574   0.000063   0.000039   0.000103  -0.000139
    12  H   -0.000278   0.000924   0.000097   0.000024  -0.000139  -0.000270
    13  H   -0.000667   0.002245   0.000125   0.000046  -0.000282  -0.000344
    14  O    0.001339   0.000492   0.000055  -0.000169   0.000086  -0.000333
    15  H   -0.000432   0.000097  -0.000050   0.000042   0.000003   0.000048
              13         14         15
     1  C    0.001104  -0.037554   0.001129
     2  H    0.000064  -0.001382  -0.000088
     3  C   -0.005334   0.016646   0.002889
     4  C    0.004049  -0.029087  -0.001794
     5  O   -0.000182   0.001803  -0.000117
     6  O   -0.000176  -0.000504  -0.000032
     7  C   -0.000667   0.001339  -0.000432
     8  C    0.002245   0.000492   0.000097
     9  H    0.000125   0.000055  -0.000050
    10  H    0.000046  -0.000169   0.000042
    11  H   -0.000282   0.000086   0.000003
    12  H   -0.000344  -0.000333   0.000048
    13  H   -0.000708   0.000218  -0.000257
    14  O    0.000218   1.041620   0.005970
    15  H   -0.000257   0.005970  -0.049298
 Mulliken charges and spin densities:
               1          2
     1  C   -0.531713   0.476876
     2  H    0.225551  -0.033851
     3  C    1.026035  -0.402915
     4  C   -0.704997   0.057499
     5  O   -0.264362  -0.054048
     6  O   -0.083338  -0.001447
     7  C   -0.139836   0.000822
     8  C   -0.386788   0.000335
     9  H    0.164643  -0.000144
    10  H    0.178192  -0.000248
    11  H    0.137314   0.000059
    12  H    0.135935  -0.000152
    13  H    0.188194  -0.000098
    14  O   -0.160433   0.999201
    15  H    0.215603  -0.041890
 Sum of Mulliken charges =  -0.00000   1.00000
 Mulliken charges and spin densities with hydrogens summed into heavy atoms:
               1          2
     1  C   -0.306161   0.443025
     3  C    1.026035  -0.402915
     4  C   -0.704997   0.057499
     5  O   -0.264362  -0.054048
     6  O   -0.083338  -0.001447
     7  C    0.202999   0.000430
     8  C    0.074654   0.000144
    14  O    0.055170   0.957311
 Electronic spatial extent (au):  <R**2>=           1088.5623
 Charge=             -0.0000 electrons
 Dipole moment (field-independent basis, Debye):
    X=              0.0944    Y=              1.2079    Z=             -3.2065  Tot=              3.4278
 Quadrupole moment (field-independent basis, Debye-Ang):
   XX=            -33.6088   YY=            -47.7010   ZZ=            -51.7923
   XY=             -0.1216   XZ=              2.8325   YZ=             -0.3979
 Traceless Quadrupole moment (field-independent basis, Debye-Ang):
   XX=             10.7586   YY=             -3.3336   ZZ=             -7.4250
   XY=             -0.1216   XZ=              2.8325   YZ=             -0.3979
 Octapole moment (field-independent basis, Debye-Ang**2):
  XXX=            -27.3444  YYY=             13.2172  ZZZ=             -1.6411  XYY=              1.8744
  XXY=             -3.7793  XXZ=            -14.0945  XZZ=              3.2545  YZZ=              7.0911
  YYZ=             -9.9718  XYZ=              5.8279
 Hexadecapole moment (field-independent basis, Debye-Ang**3):
 XXXX=           -762.1247 YYYY=           -268.0555 ZZZZ=           -168.3289 XXXY=              0.7117
 XXXZ=             31.8713 YYYX=            -25.7066 YYYZ=            -12.7261 ZZZX=             -8.1391
 ZZZY=              1.1180 XXYY=           -218.5262 XXZZ=           -190.6191 YYZZ=            -78.7397
 XXYZ=             -6.4502 YYXZ=              8.7536 ZZXY=             -6.5984
 N-N= 3.583486483442D+02 E-N=-1.699811661553D+03  KE= 4.176914171402D+02
 1\1\GINC-CHEM-LAB-HP-Z2-TOWER-G9-WORKSTATION-DESKTOP-PC\SP\UCCSD(T)-FC
 \6-311++G(d,p)\C5H7O3(2)\CHEM-LAB\20-Aug-2025\0\\# ccsd(t)/6-311++g(d,
 p) sp\\Title Card Required\\0,2\C,0,2.754797,-0.407649,0.421079\H,0,3.
 80213,-0.372428,0.611526\C,0,1.576435,-0.439826,0.191031\C,0,0.162281,
 -0.61185,-0.131597\O,0,-0.217361,-1.140239,-1.136818\O,0,-0.617323,-0.
 151149,0.846761\C,0,-2.037696,-0.29677,0.637221\C,0,-2.564948,0.787845
 ,-0.280176\H,0,-2.461688,-0.223843,1.637244\H,0,-2.229099,-1.291302,0.
 232565\H,0,-3.64777,0.689049,-0.379055\H,0,-2.342091,1.774421,0.12867\
 H,0,-2.117166,0.704083,-1.270423\O,0,1.390917,1.80699,-0.430534\H,0,1.
 46729,2.066241,0.503127\\Version=ES64L-G16RevA.03\State=2-A\HF=-417.99
 17669\MP2=-419.253475\MP3=-419.2808239\MP4D=-419.3116461\MP4DQ=-419.28
 64973\PUHF=-417.9984654\PMP2-0=-419.2591583\PMP3-0=-419.284847\MP4SDQ=
 -419.3050584\CCSD=-419.3049816\CCSD(T)=-419.3574427\S2=0.815476\S2-1=0
 .795151\S2A=0.752663\RMSD=7.180e-09\PG=C01 [X(C5H7O3)]\\@


 YOU CAN WIPE THE SLATE CLEAN, BUT YOU'LL STILL
 HAVE TO EAT A LITTLE CHALK DUST.
 Job cpu time:       1 days  4 hours  3 minutes 20.4 seconds.
 Elapsed time:       0 days  1 hours 13 minutes 55.4 seconds.
 File lengths (MBytes):  RWF=  44258 Int=      0 D2E=      0 Chk=      6 Scr=      1
 Normal termination of Gaussian 16 at Wed Aug 20 17:41:28 2025.
