 Entering Gaussian System, Link 0=g16
 Initial command:
 /opt/g16/l1.exe "/home/aayush/scratches/g16/Gau-56730.inp" -scrdir="/home/aayush/scratches/g16/"
 Entering Link 1 = /opt/g16/l1.exe PID=     56733.
  
 Copyright (c) 1988,1990,1992,1993,1995,1998,2003,2009,2016,
            Gaussian, Inc.  All Rights Reserved.
  
 This is part of the Gaussian(R) 16 program.  It is based on
 the Gaussian(R) 09 system (copyright 2009, Gaussian, Inc.),
 the Gaussian(R) 03 system (copyright 2003, Gaussian, Inc.),
 the Gaussian(R) 98 system (copyright 1998, Gaussian, Inc.),
 the Gaussian(R) 94 system (copyright 1995, Gaussian, Inc.),
 the Gaussian 92(TM) system (copyright 1992, Gaussian, Inc.),
 the Gaussian 90(TM) system (copyright 1990, Gaussian, Inc.),
 the Gaussian 88(TM) system (copyright 1988, Gaussian, Inc.),
 the Gaussian 86(TM) system (copyright 1986, Carnegie Mellon
 University), and the Gaussian 82(TM) system (copyright 1983,
 Carnegie Mellon University). Gaussian is a federally registered
 trademark of Gaussian, Inc.
  
 This software contains proprietary and confidential information,
 including trade secrets, belonging to Gaussian, Inc.
  
 This software is provided under written license and may be
 used, copied, transmitted, or stored only in accord with that
 written license.
  
 The following legend is applicable only to US Government
 contracts under FAR:
  
                    RESTRICTED RIGHTS LEGEND
  
 Use, reproduction and disclosure by the US Government is
 subject to restrictions as set forth in subparagraphs (a)
 and (c) of the Commercial Computer Software - Restricted
 Rights clause in FAR 52.227-19.
  
 Gaussian, Inc.
 340 Quinnipiac St., Bldg. 40, Wallingford CT 06492
  
  
 ---------------------------------------------------------------
 Warning -- This program may not be used in any manner that
 competes with the business of Gaussian, Inc. or will provide
 assistance to any competitor of Gaussian, Inc.  The licensee
 of this program is prohibited from giving any competitor of
 Gaussian, Inc. access to this program.  By using this program,
 the user acknowledges that Gaussian, Inc. is engaged in the
 business of creating and licensing software in the field of
 computational chemistry and represents and warrants to the
 licensee that it is not a competitor of Gaussian, Inc. and that
 it will not use this program in any manner prohibited above.
 ---------------------------------------------------------------
  

 Cite this work as:
 Gaussian 16, Revision A.03,
 M. J. Frisch, G. W. Trucks, H. B. Schlegel, G. E. Scuseria, 
 M. A. Robb, J. R. Cheeseman, G. Scalmani, V. Barone, 
 G. A. Petersson, H. Nakatsuji, X. Li, M. Caricato, A. V. Marenich, 
 J. Bloino, B. G. Janesko, R. Gomperts, B. Mennucci, H. P. Hratchian, 
 J. V. Ortiz, A. F. Izmaylov, J. L. Sonnenberg, D. Williams-Young, 
 F. Ding, F. Lipparini, F. Egidi, J. Goings, B. Peng, A. Petrone, 
 T. Henderson, D. Ranasinghe, V. G. Zakrzewski, J. Gao, N. Rega, 
 G. Zheng, W. Liang, M. Hada, M. Ehara, K. Toyota, R. Fukuda, 
 J. Hasegawa, M. Ishida, T. Nakajima, Y. Honda, O. Kitao, H. Nakai, 
 T. Vreven, K. Throssell, J. A. Montgomery, Jr., J. E. Peralta, 
 F. Ogliaro, M. J. Bearpark, J. J. Heyd, E. N. Brothers, K. N. Kudin, 
 V. N. Staroverov, T. A. Keith, R. Kobayashi, J. Normand, 
 K. Raghavachari, A. P. Rendell, J. C. Burant, S. S. Iyengar, 
 J. Tomasi, M. Cossi, J. M. Millam, M. Klene, C. Adamo, R. Cammi, 
 J. W. Ochterski, R. L. Martin, K. Morokuma, O. Farkas, 
 J. B. Foresman, and D. J. Fox, Gaussian, Inc., Wallingford CT, 2016.
 
 ******************************************
 Gaussian 16:  ES64L-G16RevA.03 25-Dec-2016
                23-Jun-2025 
 ******************************************
 %nprocshared=24
 Will use up to   24 processors via shared memory.
 %mem=12GB
 %chk=ethyl_propiolate_ts1.chk
 --------------------------
 # freq 6-311++g(d,p) m062x
 --------------------------
 1/10=4,30=1,38=1/1,3;
 2/12=2,17=6,18=5,40=1/2;
 3/5=4,6=6,7=1111,11=2,25=1,30=1,71=2,74=-55,140=1/1,2,3;
 4//1;
 5/5=2,38=5,98=1/2;
 8/6=4,10=90,11=11/1;
 11/6=1,8=1,9=11,15=111,16=1/1,2,10;
 10/6=1/2;
 6/7=2,8=2,9=2,10=2,28=1/1;
 7/8=1,10=1,25=1/1,2,3,16;
 1/10=4,30=1/3;
 99//99;
 -------------------
 Title Card Required
 -------------------
 Symbolic Z-matrix:
 Charge =  0 Multiplicity = 2
 C                    -2.80764  -0.43837  -0.39439 
 H                    -3.85219  -0.46383  -0.60112 
 C                    -1.63235  -0.36076  -0.13787 
 C                    -0.22125  -0.60735   0.16139 
 O                     0.14714  -1.1523    1.16127 
 O                     0.55935  -0.19043  -0.83376 
 C                     1.97862  -0.3391   -0.62284 
 C                     2.504     0.76229   0.27599 
 H                     2.403    -0.28368  -1.62373 
 H                     2.16823  -1.32683  -0.20124 
 H                     3.58674   0.66715   0.37868 
 H                     2.27944   1.74094  -0.1505 
 H                     2.05501   0.6955    1.26716 
 O                    -1.45807   1.69899   0.39199 
 H                    -1.5559    2.02042  -0.51898 
 

 GradGradGradGradGradGradGradGradGradGradGradGradGradGradGradGradGradGrad
 Berny optimization.
 Initialization pass.
 Trust Radius=3.00D-01 FncErr=1.00D-07 GrdErr=1.00D-07 EigMax=2.50D+02 EigMin=1.00D-04
 Number of steps in this run=      2 maximum allowed number of steps=      2.
 GradGradGradGradGradGradGradGradGradGradGradGradGradGradGradGradGradGrad

                          Input orientation:                          
 ---------------------------------------------------------------------
 Center     Atomic      Atomic             Coordinates (Angstroms)
 Number     Number       Type             X           Y           Z
 ---------------------------------------------------------------------
      1          6           0       -2.807636   -0.438372   -0.394392
      2          1           0       -3.852188   -0.463825   -0.601118
      3          6           0       -1.632350   -0.360756   -0.137866
      4          6           0       -0.221248   -0.607353    0.161389
      5          8           0        0.147135   -1.152302    1.161272
      6          8           0        0.559348   -0.190432   -0.833761
      7          6           0        1.978621   -0.339095   -0.622837
      8          6           0        2.504002    0.762290    0.275993
      9          1           0        2.402995   -0.283679   -1.623727
     10          1           0        2.168231   -1.326833   -0.201244
     11          1           0        3.586735    0.667153    0.378675
     12          1           0        2.279445    1.740935   -0.150499
     13          1           0        2.055009    0.695497    1.267158
     14          8           0       -1.458066    1.698990    0.391991
     15          1           0       -1.555896    2.020423   -0.518981
 ---------------------------------------------------------------------
                    Distance matrix (angstroms):
                    1          2          3          4          5
     1  C    0.000000
     2  H    1.065116   0.000000
     3  C    1.205457   2.270001   0.000000
     4  C    2.650821   3.712916   1.463411   0.000000
     5  O    3.414741   4.424320   2.341126   1.196846   0.000000
     6  O    3.404571   4.426118   2.305823   1.331719   2.252836
     7  C    4.792734   5.832183   3.643457   2.350829   2.683038
     8  C    5.486757   6.532521   4.306033   3.052219   3.162942
     9  H    5.355919   6.340780   4.300899   3.190306   3.687768
    10  H    5.058253   6.095090   3.921956   2.521659   2.443714
    11  H    6.535120   7.587930   5.344367   4.021481   3.969096
    12  H    5.539608   6.531535   4.440654   3.444589   3.826004
    13  H    5.262293   6.303131   4.084896   2.846311   2.658111
    14  O    2.647273   3.375775   2.133935   2.627187   3.361299
    15  H    2.761892   3.383961   2.412697   3.024797   3.973632
                    6          7          8          9         10
     6  O    0.000000
     7  C    1.442541   0.000000
     8  C    2.433292   1.515576   0.000000
     9  H    2.007928   1.088552   2.170988   0.000000
    10  H    2.068814   1.090559   2.169086   1.779534   0.000000
    11  H    3.372021   2.145132   1.091744   2.512954   2.514844
    12  H    2.675025   2.154094   1.090902   2.506936   3.070203
    13  H    2.726854   2.155991   1.090167   3.071986   2.501768
    14  O    3.023631   4.122437   4.072941   4.785592   4.759996
    15  H    3.075910   4.250991   4.324078   4.711918   5.017390
                   11         12         13         14         15
    11  H    0.000000
    12  H    1.772580   0.000000
    13  H    1.770986   1.775687   0.000000
    14  O    5.149260   3.776909   3.756942   0.000000
    15  H    5.392938   3.863125   4.240797   0.970958   0.000000
 Stoichiometry    C5H7O3(2)
 Framework group  C1[X(C5H7O3)]
 Deg. of freedom    39
 Full point group                 C1      NOp   1
 Largest Abelian subgroup         C1      NOp   1
 Largest concise Abelian subgroup C1      NOp   1
                         Standard orientation:                         
 ---------------------------------------------------------------------
 Center     Atomic      Atomic             Coordinates (Angstroms)
 Number     Number       Type             X           Y           Z
 ---------------------------------------------------------------------
      1          6           0       -2.807636   -0.438372   -0.394392
      2          1           0       -3.852188   -0.463825   -0.601118
      3          6           0       -1.632350   -0.360756   -0.137866
      4          6           0       -0.221248   -0.607353    0.161389
      5          8           0        0.147135   -1.152302    1.161272
      6          8           0        0.559348   -0.190432   -0.833761
      7          6           0        1.978621   -0.339095   -0.622837
      8          6           0        2.504002    0.762290    0.275993
      9          1           0        2.402995   -0.283679   -1.623727
     10          1           0        2.168231   -1.326833   -0.201244
     11          1           0        3.586735    0.667153    0.378675
     12          1           0        2.279445    1.740935   -0.150499
     13          1           0        2.055009    0.695497    1.267158
     14          8           0       -1.458066    1.698990    0.391991
     15          1           0       -1.555896    2.020423   -0.518981
 ---------------------------------------------------------------------
 Rotational constants (GHZ):           3.5365485           1.3060234           1.1658714
 Standard basis: 6-311++G(d,p) (5D, 7F)
 There are   233 symmetry adapted cartesian basis functions of A   symmetry.
 There are   225 symmetry adapted basis functions of A   symmetry.
   225 basis functions,   351 primitive gaussians,   233 cartesian basis functions
    31 alpha electrons       30 beta electrons
       nuclear repulsion energy       360.7985787155 Hartrees.
 NAtoms=   15 NActive=   15 NUniq=   15 SFac= 1.00D+00 NAtFMM=   60 NAOKFM=F Big=F
 Integral buffers will be    131072 words long.
 Raffenetti 2 integral format.
 Two-electron integral symmetry is turned on.
 One-electron integrals computed using PRISM.
 NBasis=   225 RedAO= T EigKep=  1.33D-06  NBF=   225
 NBsUse=   225 1.00D-06 EigRej= -1.00D+00 NBFU=   225
 ExpMin= 3.60D-02 ExpMax= 8.59D+03 ExpMxC= 1.30D+03 IAcc=3 IRadAn=         5 AccDes= 0.00D+00
 Harris functional with IExCor= 1009 and IRadAn=       5 diagonalized for initial guess.
 HarFok:  IExCor= 1009 AccDes= 0.00D+00 IRadAn=         5 IDoV= 1 UseB2=F ITyADJ=14
 ICtDFT=  3500011 ScaDFX=  1.000000  1.000000  1.000000  1.000000
 FoFCou: FMM=F IPFlag=           0 FMFlag=      100000 FMFlg1=           0
         NFxFlg=           0 DoJE=T BraDBF=F KetDBF=T FulRan=T
         wScrn=  0.000000 ICntrl=       500 IOpCl=  0 I1Cent=   200000004 NGrid=           0
         NMat0=    1 NMatS0=      1 NMatT0=    0 NMatD0=    1 NMtDS0=    0 NMtDT0=    0
 Petite list used in FoFCou.
 Initial guess <Sx>= 0.0000 <Sy>= 0.0000 <Sz>= 0.5000 <S**2>= 0.7500 S= 0.5000
 Requested convergence on RMS density matrix=1.00D-08 within 128 cycles.
 Requested convergence on MAX density matrix=1.00D-06.
 Requested convergence on             energy=1.00D-06.
 No special actions if energy rises.
 Restarting incremental Fock formation.
 SCF Done:  E(UM062X) =  -420.203864349     A.U. after   24 cycles
            NFock= 24  Conv=0.59D-08     -V/T= 2.0032
 <Sx>= 0.0000 <Sy>= 0.0000 <Sz>= 0.5000 <S**2>= 0.7630 S= 0.5065
 <L.S>=  0.00000000000    
 Annihilation of the first spin contaminant:
 S**2 before annihilation     0.7630,   after     0.7501
 DoSCS=F DFT=T ScalE2(SS,OS)=  1.000000  1.000000
 Range of M.O.s used for correlation:     1   225
 NBasis=   225 NAE=    31 NBE=    30 NFC=     0 NFV=     0
 NROrb=    225 NOA=    31 NOB=    30 NVA=   194 NVB=   195

 **** Warning!!: The largest alpha MO coefficient is  0.21559731D+03


 **** Warning!!: The largest beta MO coefficient is  0.25211463D+03

 Symmetrizing basis deriv contribution to polar:
 IMax=3 JMax=2 DiffMx= 0.00D+00
 G2DrvN: will do    16 centers at a time, making    1 passes.
 Calling FoFCou, ICntrl=  3107 FMM=F I1Cent=   0 AccDes= 0.00D+00.
 End of G2Drv F.D. properties file   721 does not exist.
 End of G2Drv F.D. properties file   722 does not exist.
 End of G2Drv F.D. properties file   788 does not exist.
          IDoAtm=111111111111111
          Differentiating once with respect to electric field.
                with respect to dipole field.
          Differentiating once with respect to nuclear coordinates.
 Keep R1 and R2 ints in memory in canonical form, NReq=671901991.
          There are    48 degrees of freedom in the 1st order CPHF.  IDoFFX=6 NUNeed=     3.
     45 vectors produced by pass  0 Test12= 2.47D-14 2.08D-09 XBig12= 9.43D+01 3.42D+00.
 AX will form    45 AO Fock derivatives at one time.
     45 vectors produced by pass  1 Test12= 2.47D-14 2.08D-09 XBig12= 2.02D+01 6.81D-01.
     45 vectors produced by pass  2 Test12= 2.47D-14 2.08D-09 XBig12= 6.96D-01 1.61D-01.
     45 vectors produced by pass  3 Test12= 2.47D-14 2.08D-09 XBig12= 9.89D-03 1.69D-02.
     45 vectors produced by pass  4 Test12= 2.47D-14 2.08D-09 XBig12= 9.15D-05 1.59D-03.
     45 vectors produced by pass  5 Test12= 2.47D-14 2.08D-09 XBig12= 8.50D-07 9.46D-05.
     39 vectors produced by pass  6 Test12= 2.47D-14 2.08D-09 XBig12= 9.45D-09 1.21D-05.
     22 vectors produced by pass  7 Test12= 2.47D-14 2.08D-09 XBig12= 6.08D-11 7.07D-07.
      4 vectors produced by pass  8 Test12= 2.47D-14 2.08D-09 XBig12= 4.72D-13 5.77D-08.
      3 vectors produced by pass  9 Test12= 2.47D-14 2.08D-09 XBig12= 6.46D-15 8.37D-09.
      1 vectors produced by pass 10 Test12= 2.47D-14 2.08D-09 XBig12= 6.07D-16 3.04D-09.
 InvSVY:  IOpt=1 It=  1 EMax= 8.88D-15
 Solved reduced A of dimension   339 with    48 vectors.
 Isotropic polarizability for W=    0.000000       73.14 Bohr**3.
 End of Minotr F.D. properties file   721 does not exist.
 End of Minotr F.D. properties file   722 does not exist.
 End of Minotr F.D. properties file   788 does not exist.

 **********************************************************************

            Population analysis using the SCF density.

 **********************************************************************

 Orbital symmetries:
 Alpha Orbitals:
       Occupied  (A) (A) (A) (A) (A) (A) (A) (A) (A) (A) (A) (A)
                 (A) (A) (A) (A) (A) (A) (A) (A) (A) (A) (A) (A)
                 (A) (A) (A) (A) (A) (A) (A)
       Virtual   (A) (A) (A) (A) (A) (A) (A) (A) (A) (A) (A) (A)
                 (A) (A) (A) (A) (A) (A) (A) (A) (A) (A) (A) (A)
                 (A) (A) (A) (A) (A) (A) (A) (A) (A) (A) (A) (A)
                 (A) (A) (A) (A) (A) (A) (A) (A) (A) (A) (A) (A)
                 (A) (A) (A) (A) (A) (A) (A) (A) (A) (A) (A) (A)
                 (A) (A) (A) (A) (A) (A) (A) (A) (A) (A) (A) (A)
                 (A) (A) (A) (A) (A) (A) (A) (A) (A) (A) (A) (A)
                 (A) (A) (A) (A) (A) (A) (A) (A) (A) (A) (A) (A)
                 (A) (A) (A) (A) (A) (A) (A) (A) (A) (A) (A) (A)
                 (A) (A) (A) (A) (A) (A) (A) (A) (A) (A) (A) (A)
                 (A) (A) (A) (A) (A) (A) (A) (A) (A) (A) (A) (A)
                 (A) (A) (A) (A) (A) (A) (A) (A) (A) (A) (A) (A)
                 (A) (A) (A) (A) (A) (A) (A) (A) (A) (A) (A) (A)
                 (A) (A) (A) (A) (A) (A) (A) (A) (A) (A) (A) (A)
                 (A) (A) (A) (A) (A) (A) (A) (A) (A) (A) (A) (A)
                 (A) (A) (A) (A) (A) (A) (A) (A) (A) (A) (A) (A)
                 (A) (A)
 Beta  Orbitals:
       Occupied  (A) (A) (A) (A) (A) (A) (A) (A) (A) (A) (A) (A)
                 (A) (A) (A) (A) (A) (A) (A) (A) (A) (A) (A) (A)
                 (A) (A) (A) (A) (A) (A)
       Virtual   (A) (A) (A) (A) (A) (A) (A) (A) (A) (A) (A) (A)
                 (A) (A) (A) (A) (A) (A) (A) (A) (A) (A) (A) (A)
                 (A) (A) (A) (A) (A) (A) (A) (A) (A) (A) (A) (A)
                 (A) (A) (A) (A) (A) (A) (A) (A) (A) (A) (A) (A)
                 (A) (A) (A) (A) (A) (A) (A) (A) (A) (A) (A) (A)
                 (A) (A) (A) (A) (A) (A) (A) (A) (A) (A) (A) (A)
                 (A) (A) (A) (A) (A) (A) (A) (A) (A) (A) (A) (A)
                 (A) (A) (A) (A) (A) (A) (A) (A) (A) (A) (A) (A)
                 (A) (A) (A) (A) (A) (A) (A) (A) (A) (A) (A) (A)
                 (A) (A) (A) (A) (A) (A) (A) (A) (A) (A) (A) (A)
                 (A) (A) (A) (A) (A) (A) (A) (A) (A) (A) (A) (A)
                 (A) (A) (A) (A) (A) (A) (A) (A) (A) (A) (A) (A)
                 (A) (A) (A) (A) (A) (A) (A) (A) (A) (A) (A) (A)
                 (A) (A) (A) (A) (A) (A) (A) (A) (A) (A) (A) (A)
                 (A) (A) (A) (A) (A) (A) (A) (A) (A) (A) (A) (A)
                 (A) (A) (A) (A) (A) (A) (A) (A) (A) (A) (A) (A)
                 (A) (A) (A)
 The electronic state is 2-A.
 Alpha  occ. eigenvalues --  -19.68248 -19.66707 -19.63100 -10.70622 -10.60562
 Alpha  occ. eigenvalues --  -10.58320 -10.57931 -10.53612  -1.25666  -1.16418
 Alpha  occ. eigenvalues --   -1.12673  -0.90842  -0.87410  -0.78155  -0.70684
 Alpha  occ. eigenvalues --   -0.64547  -0.61859  -0.58613  -0.56858  -0.54682
 Alpha  occ. eigenvalues --   -0.53404  -0.50330  -0.48804  -0.46267  -0.45239
 Alpha  occ. eigenvalues --   -0.42172  -0.41979  -0.39236  -0.38478  -0.36677
 Alpha  occ. eigenvalues --   -0.35047
 Alpha virt. eigenvalues --   -0.00882  -0.00498   0.00497   0.01340   0.02195
 Alpha virt. eigenvalues --    0.02828   0.03594   0.04552   0.05436   0.06078
 Alpha virt. eigenvalues --    0.07149   0.07894   0.07945   0.10136   0.10577
 Alpha virt. eigenvalues --    0.10705   0.11548   0.12730   0.13184   0.13486
 Alpha virt. eigenvalues --    0.13990   0.14704   0.15145   0.15703   0.15959
 Alpha virt. eigenvalues --    0.16890   0.17340   0.18185   0.19533   0.20591
 Alpha virt. eigenvalues --    0.20791   0.22391   0.22487   0.23633   0.24523
 Alpha virt. eigenvalues --    0.25087   0.26797   0.29066   0.29527   0.30048
 Alpha virt. eigenvalues --    0.30812   0.32380   0.32492   0.32933   0.34113
 Alpha virt. eigenvalues --    0.34771   0.36391   0.36638   0.37262   0.40383
 Alpha virt. eigenvalues --    0.42060   0.42658   0.44932   0.46912   0.49851
 Alpha virt. eigenvalues --    0.50633   0.52805   0.54858   0.57116   0.58235
 Alpha virt. eigenvalues --    0.60589   0.60960   0.63471   0.65669   0.67245
 Alpha virt. eigenvalues --    0.70078   0.70330   0.70594   0.72626   0.72855
 Alpha virt. eigenvalues --    0.74068   0.75560   0.77202   0.77870   0.80090
 Alpha virt. eigenvalues --    0.84867   0.87550   0.90826   0.95195   0.98461
 Alpha virt. eigenvalues --    1.01676   1.02741   1.06367   1.08991   1.10173
 Alpha virt. eigenvalues --    1.15258   1.17653   1.19297   1.20142   1.23471
 Alpha virt. eigenvalues --    1.24548   1.26444   1.29936   1.32541   1.33983
 Alpha virt. eigenvalues --    1.35805   1.36864   1.37660   1.39165   1.44398
 Alpha virt. eigenvalues --    1.47011   1.50098   1.51154   1.51322   1.55470
 Alpha virt. eigenvalues --    1.58534   1.59791   1.60993   1.62291   1.64717
 Alpha virt. eigenvalues --    1.66513   1.66852   1.70527   1.72625   1.75324
 Alpha virt. eigenvalues --    1.76451   1.81656   1.84037   1.86985   1.88343
 Alpha virt. eigenvalues --    1.91523   1.96290   1.99175   2.03159   2.05353
 Alpha virt. eigenvalues --    2.09506   2.10466   2.14034   2.21231   2.31561
 Alpha virt. eigenvalues --    2.35614   2.39579   2.47015   2.51689   2.53200
 Alpha virt. eigenvalues --    2.54383   2.56465   2.61832   2.62373   2.63561
 Alpha virt. eigenvalues --    2.65347   2.66206   2.71925   2.73249   2.75676
 Alpha virt. eigenvalues --    2.80839   2.82677   2.84858   2.90382   2.93302
 Alpha virt. eigenvalues --    2.94486   2.96516   2.99005   3.03111   3.06359
 Alpha virt. eigenvalues --    3.07930   3.11287   3.15611   3.17342   3.19971
 Alpha virt. eigenvalues --    3.25467   3.26433   3.31785   3.36483   3.38398
 Alpha virt. eigenvalues --    3.44911   3.51899   3.66075   3.75689   3.85500
 Alpha virt. eigenvalues --    3.86051   3.87912   3.91412   4.03234   4.13276
 Alpha virt. eigenvalues --    4.19424   4.28305   5.11329   5.12468   5.17749
 Alpha virt. eigenvalues --    5.19949   5.32704   5.47704   5.56727   5.73459
 Alpha virt. eigenvalues --    5.94707  23.62151  23.93304  23.94388  24.05985
 Alpha virt. eigenvalues --   25.09701  49.95908  50.00737  50.11662
  Beta  occ. eigenvalues --  -19.68253 -19.65191 -19.63116 -10.70605 -10.60562
  Beta  occ. eigenvalues --  -10.58325 -10.57782 -10.53612  -1.25673  -1.16454
  Beta  occ. eigenvalues --   -1.05882  -0.90443  -0.87054  -0.77993  -0.70524
  Beta  occ. eigenvalues --   -0.64485  -0.61489  -0.58547  -0.56582  -0.53484
  Beta  occ. eigenvalues --   -0.51895  -0.49188  -0.46667  -0.45274  -0.41978
  Beta  occ. eigenvalues --   -0.40512  -0.38769  -0.38094  -0.37626  -0.36360
  Beta virt. eigenvalues --   -0.09080  -0.00432  -0.00058   0.00591   0.01662
  Beta virt. eigenvalues --    0.02263   0.02935   0.03568   0.04673   0.05533
  Beta virt. eigenvalues --    0.06086   0.07231   0.07783   0.08017   0.10276
  Beta virt. eigenvalues --    0.10680   0.10870   0.11792   0.12714   0.13227
  Beta virt. eigenvalues --    0.13647   0.14060   0.14847   0.15212   0.15768
  Beta virt. eigenvalues --    0.16141   0.16813   0.17563   0.18261   0.19921
  Beta virt. eigenvalues --    0.20535   0.20831   0.22571   0.22813   0.23719
  Beta virt. eigenvalues --    0.24105   0.25150   0.26814   0.29126   0.29441
  Beta virt. eigenvalues --    0.30107   0.30842   0.32407   0.32539   0.32973
  Beta virt. eigenvalues --    0.34105   0.34793   0.36418   0.36671   0.37236
  Beta virt. eigenvalues --    0.40372   0.42190   0.42614   0.44941   0.46929
  Beta virt. eigenvalues --    0.49859   0.50737   0.52898   0.54924   0.57242
  Beta virt. eigenvalues --    0.58710   0.61029   0.61186   0.63582   0.65666
  Beta virt. eigenvalues --    0.67300   0.70072   0.70348   0.70702   0.72630
  Beta virt. eigenvalues --    0.72825   0.74112   0.75556   0.77298   0.77892
  Beta virt. eigenvalues --    0.80112   0.84966   0.87540   0.90993   0.95475
  Beta virt. eigenvalues --    0.98531   1.01874   1.03540   1.06640   1.09117
  Beta virt. eigenvalues --    1.12254   1.15727   1.17939   1.19683   1.20417
  Beta virt. eigenvalues --    1.23538   1.24795   1.26886   1.30126   1.33185
  Beta virt. eigenvalues --    1.34905   1.36113   1.37043   1.37954   1.39701
  Beta virt. eigenvalues --    1.44901   1.47383   1.50293   1.51285   1.52271
  Beta virt. eigenvalues --    1.56048   1.58559   1.59810   1.61055   1.62306
  Beta virt. eigenvalues --    1.64720   1.66558   1.66878   1.70536   1.72869
  Beta virt. eigenvalues --    1.75327   1.76907   1.81752   1.84291   1.87067
  Beta virt. eigenvalues --    1.88679   1.91596   1.96858   1.99196   2.03254
  Beta virt. eigenvalues --    2.05437   2.09789   2.11574   2.14047   2.21247
  Beta virt. eigenvalues --    2.31575   2.35624   2.39878   2.47083   2.51695
  Beta virt. eigenvalues --    2.53182   2.54396   2.56489   2.62067   2.62614
  Beta virt. eigenvalues --    2.64050   2.65496   2.66284   2.72156   2.73354
  Beta virt. eigenvalues --    2.76000   2.81463   2.82755   2.87199   2.90740
  Beta virt. eigenvalues --    2.94558   2.96706   2.97780   2.99437   3.04557
  Beta virt. eigenvalues --    3.07096   3.10225   3.12160   3.16018   3.19208
  Beta virt. eigenvalues --    3.21658   3.26453   3.27144   3.31832   3.36919
  Beta virt. eigenvalues --    3.38353   3.44871   3.52399   3.66060   3.75822
  Beta virt. eigenvalues --    3.85522   3.86129   3.89983   3.92489   4.03253
  Beta virt. eigenvalues --    4.13260   4.19388   4.28303   5.12903   5.16186
  Beta virt. eigenvalues --    5.20021   5.22536   5.32703   5.47698   5.59089
  Beta virt. eigenvalues --    5.73454   5.94697  23.62202  23.93308  23.94394
  Beta virt. eigenvalues --   24.05985  25.09981  49.95446  50.00715  50.11682
          Condensed to atoms (all electrons):
               1          2          3          4          5          6
     1  C   31.838368   0.784086 -10.565377 -14.758154   0.070377   0.162338
     2  H    0.784086   0.437174  -0.275367  -0.124795  -0.002139  -0.001949
     3  C  -10.565377  -0.275367  17.671137  -2.213970   0.338194  -0.234125
     4  C  -14.758154  -0.124795  -2.213970  23.532748  -0.005955  -0.104748
     5  O    0.070377  -0.002139   0.338194  -0.005955   7.975918  -0.141640
     6  O    0.162338  -0.001949  -0.234125  -0.104748  -0.141640   8.279357
     7  C   -0.218605  -0.000921  -0.439654   0.513648   0.036615   0.151316
     8  C    0.168438   0.000205   0.177004  -0.444930  -0.064674  -0.034866
     9  H    0.000561   0.000108   0.000802   0.009206   0.004603  -0.090305
    10  H   -0.043017  -0.000293  -0.084555   0.115364  -0.021182  -0.011862
    11  H    0.006865   0.000042   0.013900  -0.017499  -0.001547   0.016421
    12  H   -0.000748   0.000065  -0.010719   0.012743   0.000984  -0.001110
    13  H    0.009599  -0.000160   0.009898  -0.047855   0.006434  -0.018190
    14  O   -0.262386  -0.004874   0.420581  -0.254749  -0.006891   0.029917
    15  H   -0.147720  -0.002970   0.113576   0.049441   0.000206  -0.001914
               7          8          9         10         11         12
     1  C   -0.218605   0.168438   0.000561  -0.043017   0.006865  -0.000748
     2  H   -0.000921   0.000205   0.000108  -0.000293   0.000042   0.000065
     3  C   -0.439654   0.177004   0.000802  -0.084555   0.013900  -0.010719
     4  C    0.513648  -0.444930   0.009206   0.115364  -0.017499   0.012743
     5  O    0.036615  -0.064674   0.004603  -0.021182  -0.001547   0.000984
     6  O    0.151316  -0.034866  -0.090305  -0.011862   0.016421  -0.001110
     7  C    5.466194   0.000885   0.445088   0.414909  -0.050393  -0.035428
     8  C    0.000885   5.489882  -0.062490  -0.030589   0.400438   0.415823
     9  H    0.445088  -0.062490   0.536457  -0.037177   0.000753  -0.011988
    10  H    0.414909  -0.030589  -0.037177   0.518341  -0.005760   0.005842
    11  H   -0.050393   0.400438   0.000753  -0.005760   0.530875  -0.033278
    12  H   -0.035428   0.415823  -0.011988   0.005842  -0.033278   0.546834
    13  H    0.003057   0.382131   0.011254  -0.011467  -0.032456  -0.046546
    14  O   -0.019645   0.027980  -0.000100  -0.001949   0.002275  -0.001592
    15  H    0.003687  -0.000369   0.000432  -0.000438   0.000048  -0.001088
              13         14         15
     1  C    0.009599  -0.262386  -0.147720
     2  H   -0.000160  -0.004874  -0.002970
     3  C    0.009898   0.420581   0.113576
     4  C   -0.047855  -0.254749   0.049441
     5  O    0.006434  -0.006891   0.000206
     6  O   -0.018190   0.029917  -0.001914
     7  C    0.003057  -0.019645   0.003687
     8  C    0.382131   0.027980  -0.000369
     9  H    0.011254  -0.000100   0.000432
    10  H   -0.011467  -0.001949  -0.000438
    11  H   -0.032456   0.002275   0.000048
    12  H   -0.046546  -0.001592  -0.001088
    13  H    0.539168  -0.000906   0.000608
    14  O   -0.000906   8.030991   0.256296
    15  H    0.000608   0.256296   0.508619
          Atomic-Atomic Spin Densities.
               1          2          3          4          5          6
     1  C    2.422606   0.051968  -0.771896  -1.024321  -0.003775  -0.058573
     2  H    0.051968  -0.006681  -0.034457  -0.018023   0.000020  -0.000470
     3  C   -0.771896  -0.034457   0.652169   0.080957  -0.003677  -0.006750
     4  C   -1.024321  -0.018023   0.080957   0.682054   0.010448   0.053258
     5  O   -0.003775   0.000020  -0.003677   0.010448  -0.011202  -0.000433
     6  O   -0.058573  -0.000470  -0.006750   0.053258  -0.000433   0.003788
     7  C   -0.057896  -0.000333  -0.052497   0.076457  -0.000550   0.006863
     8  C    0.024055   0.000119   0.030197  -0.034075   0.000405  -0.004516
     9  H   -0.003242  -0.000024  -0.003717   0.004817   0.000007   0.000222
    10  H    0.003243   0.000002   0.004577  -0.006578   0.000123  -0.000089
    11  H    0.000536   0.000004   0.000710  -0.000522   0.000011  -0.000142
    12  H   -0.002264  -0.000013  -0.002110   0.003933  -0.000104   0.000245
    13  H   -0.007988  -0.000016  -0.014502   0.019015  -0.000354   0.000233
    14  O   -0.342456  -0.003794   0.023448   0.198928   0.001818   0.003720
    15  H    0.022809   0.000225  -0.004526  -0.016170  -0.000075   0.000166
               7          8          9         10         11         12
     1  C   -0.057896   0.024055  -0.003242   0.003243   0.000536  -0.002264
     2  H   -0.000333   0.000119  -0.000024   0.000002   0.000004  -0.000013
     3  C   -0.052497   0.030197  -0.003717   0.004577   0.000710  -0.002110
     4  C    0.076457  -0.034075   0.004817  -0.006578  -0.000522   0.003933
     5  O   -0.000550   0.000405   0.000007   0.000123   0.000011  -0.000104
     6  O    0.006863  -0.004516   0.000222  -0.000089  -0.000142   0.000245
     7  C    0.029149  -0.014814   0.002553  -0.002289  -0.000694   0.000690
     8  C   -0.014814   0.006584  -0.001503   0.001301   0.000681  -0.000507
     9  H    0.002553  -0.001503   0.000418  -0.000116  -0.000053   0.000040
    10  H   -0.002289   0.001301  -0.000116  -0.000288   0.000129  -0.000023
    11  H   -0.000694   0.000681  -0.000053   0.000129  -0.000029  -0.000127
    12  H    0.000690  -0.000507   0.000040  -0.000023  -0.000127   0.000180
    13  H    0.005004  -0.002856   0.000438  -0.000087  -0.000312  -0.000153
    14  O    0.008565  -0.004640   0.000364   0.000025  -0.000208  -0.000036
    15  H   -0.001265   0.000970  -0.000093   0.000011   0.000050  -0.000069
              13         14         15
     1  C   -0.007988  -0.342456   0.022809
     2  H   -0.000016  -0.003794   0.000225
     3  C   -0.014502   0.023448  -0.004526
     4  C    0.019015   0.198928  -0.016170
     5  O   -0.000354   0.001818  -0.000075
     6  O    0.000233   0.003720   0.000166
     7  C    0.005004   0.008565  -0.001265
     8  C   -0.002856  -0.004640   0.000970
     9  H    0.000438   0.000364  -0.000093
    10  H   -0.000087   0.000025   0.000011
    11  H   -0.000312  -0.000208   0.000050
    12  H   -0.000153  -0.000036  -0.000069
    13  H    0.000248   0.000271  -0.000246
    14  O    0.000271   0.966109   0.010273
    15  H   -0.000246   0.010273  -0.032864
 Mulliken charges and spin densities:
               1          2
     1  C   -1.044623   0.252805
     2  H    0.191788  -0.011475
     3  C    1.078675  -0.102075
     4  C   -0.260496   0.030178
     5  O   -0.189304  -0.007340
     6  O    0.001359  -0.002479
     7  C   -0.270754  -0.001056
     8  C   -0.424870   0.001397
     9  H    0.192796   0.000112
    10  H    0.193835  -0.000060
    11  H    0.169315   0.000033
    12  H    0.160208  -0.000320
    13  H    0.195431  -0.001306
    14  O   -0.214948   0.862387
    15  H    0.221588  -0.020801
 Sum of Mulliken charges =  -0.00000   1.00000
 Mulliken charges and spin densities with hydrogens summed into heavy atoms:
               1          2
     1  C   -0.852835   0.241330
     3  C    1.078675  -0.102075
     4  C   -0.260496   0.030178
     5  O   -0.189304  -0.007340
     6  O    0.001359  -0.002479
     7  C    0.115877  -0.001004
     8  C    0.100084  -0.000196
    14  O    0.006640   0.841585
 APT charges:
               1
     1  C   -0.172738
     2  H    0.234689
     3  C   -0.419899
     4  C    1.464083
     5  O   -0.769716
     6  O   -0.943178
     7  C    0.533780
     8  C   -0.041725
     9  H   -0.014835
    10  H   -0.010426
    11  H    0.009877
    12  H    0.009880
    13  H    0.031644
    14  O   -0.167969
    15  H    0.256533
 Sum of APT charges =   0.00000
 APT charges with hydrogens summed into heavy atoms:
               1
     1  C    0.061951
     3  C   -0.419899
     4  C    1.464083
     5  O   -0.769716
     6  O   -0.943178
     7  C    0.508519
     8  C    0.009676
    14  O    0.088565
 Electronic spatial extent (au):  <R**2>=           1075.1082
 Charge=             -0.0000 electrons
 Dipole moment (field-independent basis, Debye):
    X=              0.1291    Y=              0.6725    Z=             -3.0599  Tot=              3.1356
 Quadrupole moment (field-independent basis, Debye-Ang):
   XX=            -33.2275   YY=            -48.1097   ZZ=            -51.2164
   XY=              1.0284   XZ=              3.1551   YZ=             -0.3827
 Traceless Quadrupole moment (field-independent basis, Debye-Ang):
   XX=             10.9570   YY=             -3.9252   ZZ=             -7.0318
   XY=              1.0284   XZ=              3.1551   YZ=             -0.3827
 Octapole moment (field-independent basis, Debye-Ang**2):
  XXX=            -27.3892  YYY=             10.1803  ZZZ=             -1.2535  XYY=              1.5093
  XXY=             -6.0465  XXZ=            -14.7399  XZZ=              3.2087  YZZ=              5.2921
  YYZ=             -9.5898  XYZ=              5.3511
 Hexadecapole moment (field-independent basis, Debye-Ang**3):
 XXXX=           -761.7764 YYYY=           -260.4306 ZZZZ=           -167.1243 XXXY=             11.7239
 XXXZ=             34.7150 YYYX=            -20.8108 YYYZ=            -12.3000 ZZZX=             -7.5912
 ZZZY=              0.7023 XXYY=           -214.1373 XXZZ=           -189.7091 YYZZ=            -77.6833
 XXYZ=             -5.3332 YYXZ=              8.7229 ZZXY=             -4.5105
 N-N= 3.607985787155D+02 E-N=-1.706422807590D+03  KE= 4.188740600509D+02
  Exact polarizability:  91.419   5.944  69.513   5.161   0.435  58.476
 Approx polarizability:  98.387   4.621  74.805   8.950  -3.780  75.199
                          Isotropic Fermi Contact Couplings
        Atom                 a.u.       MegaHertz       Gauss      10(-4) cm-1
     1  C(13)              0.03663      41.17871      14.69359      13.73574
     2  H(1)              -0.00392     -17.54281      -6.25971      -5.85165
     3  C(13)              0.01712      19.24737       6.86794       6.42023
     4  C(13)              0.01034      11.61867       4.14583       3.87557
     5  O(17)             -0.00277       1.67886       0.59906       0.56001
     6  O(17)             -0.00077       0.46429       0.16567       0.15487
     7  C(13)              0.00001       0.00664       0.00237       0.00221
     8  C(13)             -0.00043      -0.48032      -0.17139      -0.16022
     9  H(1)               0.00001       0.06465       0.02307       0.02156
    10  H(1)              -0.00005      -0.22523      -0.08037      -0.07513
    11  H(1)              -0.00001      -0.02772      -0.00989      -0.00925
    12  H(1)               0.00001       0.02408       0.00859       0.00803
    13  H(1)               0.00001       0.02476       0.00883       0.00826
    14  O(17)              0.13245     -80.29176     -28.65010     -26.78245
    15  H(1)              -0.01445     -64.60358     -23.05216     -21.54943
 --------------------------------------------------------
       Center         ----  Spin Dipole Couplings  ----
                      3XX-RR        3YY-RR        3ZZ-RR
 --------------------------------------------------------
     1   Atom       -0.151682      0.244285     -0.092604
     2   Atom        0.021379     -0.004322     -0.017057
     3   Atom        0.036597      0.002142     -0.038739
     4   Atom        0.003253      0.011356     -0.014609
     5   Atom        0.017220     -0.019786      0.002566
     6   Atom        0.007324     -0.011689      0.004365
     7   Atom        0.002418     -0.000687     -0.001731
     8   Atom        0.003372     -0.001576     -0.001796
     9   Atom        0.001225     -0.000618     -0.000607
    10   Atom        0.001076      0.000147     -0.001224
    11   Atom        0.001737     -0.000802     -0.000935
    12   Atom        0.004495     -0.002296     -0.002199
    13   Atom        0.003735     -0.001720     -0.002015
    14   Atom       -1.013972      2.346163     -1.332191
    15   Atom       -0.105910     -0.023406      0.129316
 --------------------------------------------------------
                        XY            XZ            YZ
 --------------------------------------------------------
     1   Atom        0.010512     -0.005891      0.080847
     2   Atom        0.005028      0.009131      0.004498
     3   Atom       -0.008262      0.015382      0.009541
     4   Atom       -0.017018     -0.000538      0.003143
     5   Atom       -0.031422     -0.013378     -0.023008
     6   Atom       -0.007565     -0.007133      0.000858
     7   Atom       -0.002385     -0.001039      0.000608
     8   Atom       -0.001426     -0.000180      0.000045
     9   Atom       -0.001060     -0.001126      0.000563
    10   Atom       -0.001591     -0.000236      0.000246
    11   Atom       -0.000529      0.000017      0.000019
    12   Atom       -0.000038     -0.001009      0.000079
    13   Atom       -0.001794      0.001563     -0.000397
    14   Atom        1.646771      0.507826      1.241467
    15   Atom        0.017056      0.030673     -0.073601
 --------------------------------------------------------


 ---------------------------------------------------------------------------------
              Anisotropic Spin Dipole Couplings in Principal Axis System
 ---------------------------------------------------------------------------------

       Atom             a.u.   MegaHertz   Gauss  10(-4) cm-1        Axes

              Baa    -0.1534   -20.586    -7.346    -6.867  0.9821 -0.0621  0.1777
     1 C(13)  Bbb    -0.1095   -14.689    -5.241    -4.900 -0.1870 -0.2136  0.9589
              Bcc     0.2629    35.275    12.587    11.767  0.0216  0.9749  0.2214
 
              Baa    -0.0198   -10.590    -3.779    -3.532 -0.1857 -0.2175  0.9582
     2 H(1)   Bbb    -0.0048    -2.561    -0.914    -0.854 -0.2427  0.9551  0.1697
              Bcc     0.0246    13.151     4.693     4.387  0.9522  0.2010  0.2302
 
              Baa    -0.0444    -5.953    -2.124    -1.986 -0.2043 -0.2314  0.9512
     3 C(13)  Bbb     0.0037     0.495     0.177     0.165  0.1196  0.9585  0.2589
              Bcc     0.0407     5.458     1.948     1.821  0.9716 -0.1667  0.1682
 
              Baa    -0.0153    -2.048    -0.731    -0.683 -0.1841 -0.2305  0.9555
     4 C(13)  Bbb    -0.0097    -1.306    -0.466    -0.436  0.7660  0.5755  0.2864
              Bcc     0.0250     3.354     1.197     1.119 -0.6159  0.7847  0.0706
 
              Baa    -0.0510     3.689     1.316     1.230  0.4453  0.7769  0.4451
     5 O(17)  Bbb     0.0158    -1.143    -0.408    -0.381 -0.2130 -0.3909  0.8954
              Bcc     0.0352    -2.546    -0.908    -0.849  0.8697 -0.4936 -0.0085
 
              Baa    -0.0145     1.047     0.374     0.349  0.3530  0.9311  0.0913
     6 O(17)  Bbb    -0.0003     0.020     0.007     0.007  0.5017 -0.2708  0.8215
              Bcc     0.0147    -1.067    -0.381    -0.356  0.7897 -0.2442 -0.5628
 
              Baa    -0.0020    -0.271    -0.097    -0.090 -0.1934 -0.6717  0.7151
     7 C(13)  Bbb    -0.0019    -0.261    -0.093    -0.087  0.4732  0.5746  0.6677
              Bcc     0.0040     0.532     0.190     0.177  0.8595 -0.4675 -0.2067
 
              Baa    -0.0020    -0.263    -0.094    -0.088  0.2590  0.9657  0.0198
     8 C(13)  Bbb    -0.0018    -0.242    -0.086    -0.081  0.0272 -0.0278  0.9992
              Bcc     0.0038     0.505     0.180     0.168  0.9655 -0.2583 -0.0334
 
              Baa    -0.0012    -0.630    -0.225    -0.210  0.1296 -0.5687  0.8123
     9 H(1)   Bbb    -0.0011    -0.576    -0.206    -0.192  0.5410  0.7271  0.4228
              Bcc     0.0023     1.206     0.430     0.402  0.8310 -0.3846 -0.4019
 
              Baa    -0.0013    -0.677    -0.242    -0.226 -0.0708 -0.2475  0.9663
    10 H(1)   Bbb    -0.0010    -0.550    -0.196    -0.184  0.6018  0.7620  0.2392
              Bcc     0.0023     1.228     0.438     0.410  0.7955 -0.5984 -0.0950
 
              Baa    -0.0009    -0.506    -0.180    -0.169 -0.0982 -0.4714  0.8764
    11 H(1)   Bbb    -0.0009    -0.478    -0.170    -0.159  0.1696  0.8599  0.4815
              Bcc     0.0018     0.983     0.351     0.328  0.9806 -0.1960  0.0045
 
              Baa    -0.0024    -1.280    -0.457    -0.427  0.1153 -0.5755  0.8097
    12 H(1)   Bbb    -0.0022    -1.198    -0.427    -0.400  0.0898  0.8178  0.5685
              Bcc     0.0046     2.478     0.884     0.827  0.9893 -0.0071 -0.1460
 
              Baa    -0.0024    -1.296    -0.462    -0.432 -0.3116 -0.2792  0.9083
    13 H(1)   Bbb    -0.0022    -1.191    -0.425    -0.397  0.1857  0.9195  0.3464
              Bcc     0.0047     2.487     0.887     0.830  0.9319 -0.2766  0.2347
 
              Baa    -1.7125   123.915    44.216    41.333 -0.1302 -0.2413  0.9617
    14 O(17)  Bbb    -1.6864   122.029    43.543    40.704  0.9224 -0.3853  0.0282
              Bcc     3.3989  -245.943   -87.759   -82.038  0.3638  0.8907  0.2728
 
              Baa    -0.1190   -63.477   -22.650   -21.174  0.9214 -0.3267 -0.2107
    15 H(1)   Bbb    -0.0419   -22.351    -7.975    -7.455  0.3796  0.8727  0.3071
              Bcc     0.1609    85.828    30.625    28.629  0.0835 -0.3630  0.9281
 

 ---------------------------------------------------------------------------------

 Calling FoFJK, ICntrl=    100127 FMM=F ISym2X=0 I1Cent= 0 IOpClX= 1 NMat=1 NMatS=1 NMatT=0.
 Full mass-weighted force constant matrix:
 Low frequencies --- -185.9262  -67.5828  -38.0142  -10.8375    0.0006    0.0006
 Low frequencies ---    0.0006   28.4701   52.3042
 ******    2 imaginary frequencies (negative Signs) ****** 
 Diagonal vibrational polarizability:
      154.8265023      68.3408461      20.7659093
 Harmonic frequencies (cm**-1), IR intensities (KM/Mole), Raman scattering
 activities (A**4/AMU), depolarization ratios for plane and unpolarized
 incident light, reduced masses (AMU), force constants (mDyne/A),
 and normal coordinates:
                      1                      2                      3
                      A                      A                      A
 Frequencies --   -185.9238               -36.2094                47.5312
 Red. masses --     10.9946                 4.3786                 4.9011
 Frc consts  --      0.2239                 0.0034                 0.0065
 IR Inten    --     20.8231                 3.6810                 2.0886
  Atom  AN      X      Y      Z        X      Y      Z        X      Y      Z
     1   6     0.06  -0.00   0.03     0.02  -0.00  -0.19    -0.04   0.09   0.05
     2   1     0.08  -0.31  -0.05     0.03  -0.02  -0.25    -0.04   0.16   0.08
     3   6     0.03   0.65   0.18     0.00   0.00  -0.12    -0.02   0.02   0.01
     4   6     0.02   0.15   0.03    -0.01   0.04  -0.02    -0.03  -0.09  -0.02
     5   8    -0.06  -0.01  -0.03    -0.06   0.20   0.09    -0.04  -0.10  -0.03
     6   8     0.02   0.02  -0.00     0.03  -0.13  -0.05    -0.02  -0.11  -0.03
     7   6     0.02  -0.04  -0.00     0.02  -0.10   0.04    -0.02   0.07   0.06
     8   6     0.02  -0.03  -0.01    -0.01   0.06  -0.14    -0.24   0.22   0.00
     9   1     0.02  -0.05  -0.00     0.07  -0.28   0.05     0.04   0.04   0.08
    10   1    -0.01  -0.04   0.00     0.00  -0.02   0.22     0.08   0.13   0.16
    11   1     0.02  -0.04   0.00    -0.02   0.07  -0.07    -0.23   0.38   0.11
    12   1     0.03  -0.04  -0.02     0.02  -0.01  -0.33    -0.33   0.16  -0.11
    13   1     0.01  -0.02  -0.01    -0.06   0.25  -0.15    -0.32   0.26  -0.03
    14   8    -0.07  -0.53  -0.13     0.02  -0.08   0.29     0.35  -0.09  -0.03
    15   1    -0.29  -0.06   0.06    -0.37   0.18   0.42     0.30  -0.05  -0.01
                      4                      5                      6
                      A                      A                      A
 Frequencies --    108.4380               134.8691               155.6217
 Red. masses --      3.1517                 3.3490                 2.6991
 Frc consts  --      0.0218                 0.0359                 0.0385
 IR Inten    --     12.3666                 7.3441                16.3979
  Atom  AN      X      Y      Z        X      Y      Z        X      Y      Z
     1   6    -0.03  -0.10   0.08    -0.01  -0.12  -0.19     0.08   0.16  -0.11
     2   1    -0.04  -0.19   0.17     0.03  -0.17  -0.37     0.10   0.30  -0.25
     3   6    -0.01  -0.01  -0.03    -0.06  -0.06   0.04     0.05   0.01   0.08
     4   6     0.01   0.07  -0.06    -0.06   0.05   0.09     0.04  -0.04   0.06
     5   8     0.04   0.21   0.01    -0.00   0.06   0.08     0.11   0.03   0.07
     6   8    -0.01  -0.04  -0.12    -0.11   0.14   0.09    -0.03  -0.12  -0.03
     7   6    -0.01   0.02  -0.07    -0.10   0.06  -0.07    -0.01   0.01  -0.09
     8   6    -0.10  -0.14   0.18     0.08  -0.05  -0.04    -0.12  -0.02   0.02
     9   1     0.03   0.25  -0.04    -0.20   0.11  -0.11    -0.05   0.18  -0.09
    10   1     0.03  -0.05  -0.26    -0.10   0.02  -0.16     0.12  -0.01  -0.21
    11   1    -0.09  -0.06   0.14     0.09  -0.12  -0.20    -0.09   0.18  -0.12
    12   1    -0.20  -0.06   0.41     0.08   0.00   0.08    -0.37  -0.00   0.20
    13   1    -0.07  -0.41   0.18     0.21  -0.11   0.02     0.01  -0.26   0.07
    14   8     0.12  -0.01  -0.01     0.17  -0.08   0.00    -0.12  -0.01   0.02
    15   1    -0.41   0.09   0.08     0.62  -0.16  -0.07     0.52  -0.13  -0.09
                      7                      8                      9
                      A                      A                      A
 Frequencies --    190.7495               224.3124               247.9431
 Red. masses --      1.4674                 1.6481                 2.1737
 Frc consts  --      0.0315                 0.0489                 0.0787
 IR Inten    --     37.7387                 2.8381                19.0541
  Atom  AN      X      Y      Z        X      Y      Z        X      Y      Z
     1   6    -0.04   0.02   0.08    -0.06   0.07   0.06    -0.03   0.19  -0.02
     2   1    -0.06   0.08   0.19    -0.09   0.18   0.19    -0.03   0.42  -0.01
     3   6    -0.01  -0.04  -0.05    -0.02  -0.06  -0.09    -0.01  -0.14  -0.00
     4   6    -0.00   0.02  -0.05    -0.02  -0.01  -0.03     0.01  -0.04   0.02
     5   8     0.00   0.08  -0.02    -0.08   0.03   0.02     0.06   0.03   0.04
     6   8     0.02   0.02  -0.05     0.04   0.00   0.02    -0.03   0.04   0.03
     7   6     0.01  -0.01   0.02     0.04   0.02   0.02    -0.02   0.06  -0.03
     8   6     0.01  -0.01   0.03     0.09   0.02  -0.01     0.04  -0.01   0.01
     9   1     0.06  -0.06   0.04     0.02   0.02   0.01    -0.06   0.10  -0.04
    10   1    -0.04  -0.00   0.06     0.05   0.02   0.02    -0.00   0.04  -0.08
    11   1    -0.03  -0.19   0.26     0.16   0.31  -0.47     0.00  -0.27   0.23
    12   1     0.26  -0.01  -0.11    -0.36   0.02   0.22     0.37   0.03  -0.08
    13   1    -0.21   0.15  -0.06     0.50  -0.24   0.16    -0.16   0.14  -0.07
    14   8    -0.04  -0.07   0.03    -0.01  -0.08  -0.01     0.01  -0.13  -0.06
    15   1     0.78  -0.18  -0.10     0.06  -0.06  -0.01    -0.61  -0.04   0.04
                     10                     11                     12
                      A                      A                      A
 Frequencies --    339.2633               425.9846               555.5867
 Red. masses --      2.9063                 3.8824                 3.7199
 Frc consts  --      0.1971                 0.4151                 0.6765
 IR Inten    --     12.2494                 1.0666                 7.9680
  Atom  AN      X      Y      Z        X      Y      Z        X      Y      Z
     1   6    -0.00   0.04  -0.03     0.10   0.01   0.05    -0.16   0.01  -0.05
     2   1     0.01   0.09  -0.09     0.07   0.06   0.22    -0.11   0.04  -0.34
     3   6    -0.02  -0.06   0.07     0.14  -0.04  -0.16    -0.20  -0.08   0.24
     4   6     0.01   0.05  -0.04     0.07   0.05   0.06    -0.01   0.08  -0.03
     5   8     0.19   0.04  -0.11    -0.09  -0.02   0.08    -0.04   0.02  -0.05
     6   8    -0.03   0.13  -0.03     0.07   0.20   0.14     0.14   0.04   0.02
     7   6    -0.09  -0.15   0.17     0.03  -0.11  -0.12     0.25  -0.07  -0.07
     8   6    -0.07  -0.03   0.00    -0.20  -0.08  -0.09    -0.00  -0.01  -0.02
     9   1     0.08  -0.45   0.22    -0.05  -0.09  -0.15     0.16   0.03  -0.10
    10   1    -0.36  -0.09   0.42    -0.06  -0.15  -0.16     0.26  -0.10  -0.15
    11   1    -0.03   0.20  -0.22    -0.21   0.24   0.17    -0.00   0.31   0.26
    12   1    -0.35  -0.11  -0.04    -0.42  -0.17  -0.17    -0.20  -0.08  -0.09
    13   1     0.13  -0.02   0.10    -0.44  -0.17  -0.20    -0.24  -0.10  -0.13
    14   8     0.01  -0.03  -0.01     0.00  -0.03  -0.01     0.01   0.01   0.01
    15   1    -0.10  -0.05  -0.01    -0.02   0.02   0.01    -0.10  -0.41  -0.12
                     13                     14                     15
                      A                      A                      A
 Frequencies --    593.7512               649.3659               729.1357
 Red. masses --      2.7451                 1.4488                 1.3154
 Frc consts  --      0.5702                 0.3600                 0.4120
 IR Inten    --     19.1237                79.8393                29.2978
  Atom  AN      X      Y      Z        X      Y      Z        X      Y      Z
     1   6    -0.18  -0.01  -0.02     0.05  -0.01   0.02    -0.02  -0.11   0.09
     2   1    -0.20  -0.10   0.08     0.08   0.15  -0.15     0.10   0.75  -0.62
     3   6    -0.12   0.08  -0.15     0.02  -0.08   0.12     0.01   0.05  -0.05
     4   6    -0.03  -0.03   0.06     0.01   0.00  -0.03    -0.00  -0.01  -0.00
     5   8     0.19  -0.01  -0.00    -0.08   0.01   0.00     0.01   0.01  -0.00
     6   8     0.02  -0.03   0.12     0.01   0.02  -0.05     0.00   0.00   0.01
     7   6     0.06  -0.03  -0.01     0.01   0.00  -0.01    -0.00  -0.00   0.00
     8   6    -0.00  -0.00  -0.01     0.00   0.00   0.00    -0.00  -0.00  -0.00
     9   1    -0.07   0.10  -0.06     0.05  -0.05   0.01    -0.01   0.01  -0.00
    10   1     0.17  -0.05  -0.12    -0.04   0.01   0.04     0.00  -0.00  -0.01
    11   1    -0.00   0.09   0.08     0.00   0.01   0.01    -0.00  -0.00  -0.00
    12   1    -0.06  -0.04  -0.06    -0.00   0.01   0.02    -0.00  -0.00  -0.01
    13   1    -0.08   0.00  -0.05    -0.00  -0.02  -0.00     0.00   0.01   0.00
    14   8    -0.01  -0.01  -0.03    -0.01  -0.03  -0.04     0.00   0.01   0.01
    15   1     0.20   0.79   0.23     0.20   0.89   0.26    -0.04  -0.08  -0.02
                     16                     17                     18
                      A                      A                      A
 Frequencies --    730.5054               773.1305               802.8710
 Red. masses --      1.3277                 8.0751                 1.2122
 Frc consts  --      0.4175                 2.8438                 0.4604
 IR Inten    --     25.3040                51.6296                 5.2966
  Atom  AN      X      Y      Z        X      Y      Z        X      Y      Z
     1   6     0.02  -0.10  -0.12     0.01  -0.02  -0.01     0.03   0.01   0.01
     2   1    -0.17   0.63   0.74    -0.04   0.39   0.19     0.04  -0.02  -0.01
     3   6    -0.01   0.04   0.05     0.01  -0.17  -0.08     0.02  -0.01   0.03
     4   6    -0.00  -0.02  -0.01     0.03   0.64   0.30    -0.02  -0.02  -0.05
     5   8    -0.00   0.01   0.00    -0.01  -0.16  -0.13    -0.01   0.03  -0.04
     6   8    -0.00   0.01   0.01    -0.00  -0.18  -0.06     0.01   0.00   0.04
     7   6     0.01  -0.00  -0.00    -0.04  -0.01   0.03    -0.03  -0.04   0.07
     8   6     0.00   0.00   0.00    -0.01   0.01   0.02    -0.01  -0.03   0.02
     9   1    -0.00   0.00  -0.00    -0.05   0.23   0.04    -0.08   0.52   0.07
    10   1     0.01  -0.01  -0.01     0.13  -0.05  -0.15     0.11  -0.22  -0.44
    11   1     0.00   0.01   0.01    -0.01  -0.09  -0.12     0.02   0.07  -0.17
    12   1    -0.01  -0.00  -0.01     0.08  -0.01  -0.09    -0.06  -0.22  -0.40
    13   1    -0.01  -0.00  -0.00     0.13   0.18   0.09     0.12   0.42   0.11
    14   8     0.00   0.01   0.00    -0.00  -0.04  -0.01    -0.00  -0.00  -0.00
    15   1    -0.02  -0.01  -0.00     0.04   0.06   0.02     0.01   0.01   0.00
                     19                     20                     21
                      A                      A                      A
 Frequencies --    896.5421               927.1049              1076.3266
 Red. masses --      3.2349                 2.7334                 4.1279
 Frc consts  --      1.5320                 1.3842                 2.8175
 IR Inten    --     14.7514                 5.3247                22.6838
  Atom  AN      X      Y      Z        X      Y      Z        X      Y      Z
     1   6     0.05   0.00   0.01    -0.11  -0.01  -0.03     0.07   0.00   0.02
     2   1     0.06   0.01  -0.02    -0.12  -0.00  -0.02     0.08  -0.00   0.04
     3   6     0.02  -0.03   0.06    -0.07   0.02  -0.00     0.04  -0.00  -0.03
     4   6    -0.04   0.03  -0.11     0.14  -0.02   0.04    -0.15  -0.00   0.04
     5   8    -0.01   0.08  -0.15    -0.01  -0.06   0.12     0.02   0.00  -0.02
     6   8     0.13  -0.09   0.22     0.14   0.06  -0.11    -0.22   0.03  -0.03
     7   6    -0.08   0.08   0.04    -0.03   0.09   0.04     0.32   0.12   0.16
     8   6    -0.12  -0.04  -0.11    -0.15  -0.09  -0.05    -0.07  -0.15  -0.12
     9   1    -0.24  -0.01  -0.03     0.34   0.17   0.20     0.34   0.25   0.18
    10   1     0.25   0.22   0.22    -0.04   0.10   0.06     0.41   0.19   0.25
    11   1    -0.15  -0.54  -0.24    -0.14  -0.50  -0.50    -0.07  -0.23  -0.17
    12   1     0.19   0.18   0.25     0.15  -0.06  -0.14    -0.05  -0.18  -0.19
    13   1     0.03  -0.32  -0.06     0.22   0.13   0.12    -0.07  -0.26  -0.14
    14   8    -0.00  -0.00  -0.00    -0.00   0.01   0.00     0.00  -0.00  -0.00
    15   1     0.02   0.00  -0.00     0.00  -0.00  -0.00    -0.02   0.01   0.00
                     22                     23                     24
                      A                      A                      A
 Frequencies --   1128.7226              1203.7270              1282.4154
 Red. masses --      2.0998                 1.7776                 4.3330
 Frc consts  --      1.5762                 1.5175                 4.1985
 IR Inten    --     22.3067                 6.2346               571.2446
  Atom  AN      X      Y      Z        X      Y      Z        X      Y      Z
     1   6    -0.01  -0.00  -0.00    -0.02  -0.00  -0.00    -0.09  -0.00  -0.02
     2   1    -0.02   0.00  -0.01    -0.02  -0.00  -0.01    -0.10  -0.00  -0.05
     3   6    -0.01   0.00   0.01    -0.01   0.00  -0.00    -0.02   0.01   0.01
     4   6     0.03   0.01  -0.00     0.06  -0.00  -0.01     0.42   0.05  -0.16
     5   8    -0.00  -0.01   0.00    -0.01  -0.02   0.03    -0.05   0.00  -0.00
     6   8     0.06  -0.04  -0.02    -0.01   0.04  -0.07    -0.20  -0.04   0.09
     7   6    -0.11   0.18   0.09    -0.04  -0.09   0.16     0.11   0.04   0.03
     8   6     0.11  -0.14  -0.07     0.03   0.07  -0.12    -0.02  -0.03   0.06
     9   1    -0.09   0.08   0.10    -0.32   0.37   0.07    -0.66  -0.20  -0.29
    10   1    -0.21   0.16   0.07     0.29  -0.21  -0.26    -0.01   0.08   0.17
    11   1     0.10   0.40   0.29    -0.03  -0.13   0.26     0.00  -0.01  -0.14
    12   1    -0.41  -0.32  -0.22    -0.01   0.25   0.34     0.00  -0.15  -0.22
    13   1    -0.37  -0.14  -0.28    -0.08  -0.42  -0.19     0.01   0.07   0.07
    14   8    -0.00   0.00   0.00    -0.00   0.00   0.00    -0.00   0.01   0.00
    15   1     0.00  -0.00  -0.00     0.01   0.00  -0.00     0.04   0.01   0.00
                     25                     26                     27
                      A                      A                      A
 Frequencies --   1345.6021              1401.4697              1431.2182
 Red. masses --      1.2081                 1.2725                 1.3733
 Frc consts  --      1.2888                 1.4725                 1.6574
 IR Inten    --     74.3717                22.6739                11.7204
  Atom  AN      X      Y      Z        X      Y      Z        X      Y      Z
     1   6     0.01   0.00   0.00    -0.01  -0.00  -0.00    -0.01  -0.00  -0.00
     2   1     0.01  -0.00   0.01    -0.01  -0.00  -0.01    -0.01   0.00  -0.01
     3   6     0.00   0.00  -0.00    -0.00   0.00   0.00    -0.00  -0.00   0.00
     4   6    -0.05  -0.01   0.02     0.05   0.00  -0.01     0.05   0.00  -0.01
     5   8     0.01  -0.01   0.02    -0.01   0.01  -0.01    -0.01   0.01  -0.01
     6   8     0.04   0.04  -0.07    -0.04   0.00   0.03    -0.04   0.01   0.03
     7   6    -0.03  -0.01   0.00    -0.04  -0.03  -0.03    -0.08  -0.07  -0.06
     8   6    -0.00  -0.04   0.04    -0.02  -0.09  -0.07     0.08   0.06   0.05
     9   1    -0.53  -0.17  -0.22     0.33   0.21   0.15     0.44   0.24   0.18
    10   1     0.67   0.22   0.24     0.27   0.14   0.22     0.43   0.17   0.27
    11   1     0.01   0.07  -0.03    -0.00   0.42   0.30     0.06  -0.30  -0.17
    12   1    -0.02  -0.10  -0.09     0.18   0.16   0.38    -0.32  -0.13  -0.17
    13   1     0.02   0.17   0.07     0.22   0.38   0.08    -0.30  -0.15  -0.13
    14   8     0.00  -0.00  -0.00    -0.00   0.00   0.00    -0.00   0.00   0.00
    15   1    -0.01  -0.00  -0.00     0.00  -0.00  -0.00     0.01  -0.00  -0.00
                     28                     29                     30
                      A                      A                      A
 Frequencies --   1491.3848              1502.4328              1514.5567
 Red. masses --      1.0407                 1.0552                 1.0906
 Frc consts  --      1.3639                 1.4034                 1.4740
 IR Inten    --     10.5521                 1.4674                20.1611
  Atom  AN      X      Y      Z        X      Y      Z        X      Y      Z
     1   6     0.00   0.00  -0.00     0.00   0.00   0.00     0.00   0.00   0.00
     2   1     0.00   0.00   0.00     0.00   0.00   0.00     0.01   0.00   0.00
     3   6    -0.00   0.00   0.00    -0.00   0.00   0.00    -0.00  -0.00  -0.00
     4   6    -0.00   0.00  -0.00    -0.01   0.00  -0.00    -0.03   0.00  -0.00
     5   8     0.00  -0.00   0.00     0.00  -0.00   0.01     0.01  -0.01   0.01
     6   8     0.00   0.00  -0.00     0.01  -0.00  -0.00     0.02  -0.00  -0.01
     7   6    -0.02  -0.02   0.01     0.00  -0.03  -0.03     0.05  -0.04  -0.02
     8   6    -0.02  -0.01   0.04    -0.03   0.03  -0.00     0.02  -0.02  -0.00
     9   1    -0.00   0.14   0.03    -0.12   0.40  -0.05    -0.28   0.45  -0.12
    10   1    -0.00   0.01   0.07    -0.19   0.12   0.39    -0.37   0.06   0.39
    11   1     0.08   0.47  -0.45    -0.04   0.04   0.34     0.03  -0.13  -0.21
    12   1     0.57   0.08  -0.08     0.12  -0.12  -0.39    -0.19   0.08   0.32
    13   1    -0.33  -0.28  -0.14     0.39  -0.37   0.16    -0.26   0.34  -0.10
    14   8     0.00  -0.00  -0.00     0.00  -0.00  -0.00     0.00  -0.00  -0.00
    15   1    -0.00  -0.00  -0.00    -0.00  -0.00  -0.00    -0.00   0.00   0.00
                     31                     32                     33
                      A                      A                      A
 Frequencies --   1853.2442              2209.0974              3075.6221
 Red. masses --     12.0796                 5.9856                 1.0355
 Frc consts  --     24.4438                17.2102                 5.7710
 IR Inten    --    341.0664                74.5175                 9.7626
  Atom  AN      X      Y      Z        X      Y      Z        X      Y      Z
     1   6    -0.07  -0.00  -0.01    -0.38  -0.02  -0.08     0.00   0.00   0.00
     2   1    -0.11  -0.02  -0.00    -0.72  -0.04  -0.15    -0.00   0.00  -0.00
     3   6     0.06   0.01  -0.00     0.53  -0.01   0.11    -0.00   0.00   0.00
     4   6     0.24  -0.36   0.66    -0.10   0.03  -0.03     0.00   0.00  -0.00
     5   8    -0.17   0.24  -0.43     0.01  -0.01   0.01     0.00   0.00   0.00
     6   8     0.01   0.03  -0.06    -0.00  -0.00   0.00    -0.00  -0.00   0.00
     7   6     0.03  -0.01   0.02     0.00   0.00  -0.00    -0.00   0.00   0.00
     8   6    -0.01   0.01   0.00    -0.00  -0.00  -0.00    -0.02  -0.04  -0.02
     9   1    -0.17   0.10  -0.06     0.01  -0.00  -0.00     0.00  -0.00  -0.01
    10   1    -0.13  -0.04   0.08     0.00  -0.00  -0.00     0.00  -0.02   0.01
    11   1    -0.00  -0.02  -0.06     0.00   0.00   0.00     0.62  -0.06   0.06
    12   1     0.04   0.01  -0.01     0.00   0.00  -0.00    -0.13   0.53  -0.24
    13   1    -0.04  -0.05  -0.01     0.00   0.00   0.00    -0.22  -0.04   0.46
    14   8     0.00   0.00  -0.00     0.00   0.01   0.00    -0.00   0.00  -0.00
    15   1    -0.02   0.02   0.01    -0.00  -0.00   0.00    -0.00  -0.00  -0.00
                     34                     35                     36
                      A                      A                      A
 Frequencies --   3106.8267              3150.4051              3155.2743
 Red. masses --      1.0607                 1.1019                 1.1046
 Frc consts  --      6.0321                 6.4434                 6.4796
 IR Inten    --     19.6100                14.1374                 3.7742
  Atom  AN      X      Y      Z        X      Y      Z        X      Y      Z
     1   6    -0.00   0.00  -0.00    -0.00  -0.00  -0.00    -0.00   0.00  -0.00
     2   1     0.00   0.00   0.00     0.00  -0.00  -0.00    -0.00   0.00   0.00
     3   6     0.00  -0.00  -0.00     0.00   0.00   0.00     0.00  -0.00  -0.00
     4   6    -0.00  -0.00   0.00    -0.00  -0.00   0.00     0.00  -0.00   0.00
     5   8    -0.00   0.00  -0.00     0.00   0.00  -0.00    -0.00   0.00  -0.00
     6   8     0.00   0.00  -0.00    -0.00   0.00  -0.00    -0.00  -0.00  -0.00
     7   6     0.03  -0.06  -0.02     0.01   0.01  -0.03    -0.01  -0.03   0.04
     8   6    -0.01   0.01  -0.00     0.06  -0.06   0.03     0.06   0.00  -0.05
     9   1    -0.21  -0.04   0.51    -0.14  -0.02   0.33     0.17   0.02  -0.39
    10   1    -0.14   0.74  -0.33     0.02  -0.08   0.03    -0.06   0.34  -0.14
    11   1     0.13  -0.01   0.01    -0.59   0.04  -0.05    -0.48   0.04  -0.05
    12   1     0.01  -0.06   0.03    -0.14   0.63  -0.28     0.02  -0.04   0.01
    13   1     0.01   0.00  -0.02     0.05  -0.00  -0.08    -0.27  -0.05   0.60
    14   8     0.00  -0.00  -0.00     0.00  -0.00  -0.00     0.00  -0.00  -0.00
    15   1    -0.00   0.00   0.00    -0.00  -0.00   0.00    -0.00  -0.00   0.00
                     37                     38                     39
                      A                      A                      A
 Frequencies --   3174.8811              3485.2745              3802.8149
 Red. masses --      1.1070                 1.1617                 1.0673
 Frc consts  --      6.5744                 8.3143                 9.0939
 IR Inten    --     14.5297                68.6700                39.2488
  Atom  AN      X      Y      Z        X      Y      Z        X      Y      Z
     1   6    -0.00  -0.00  -0.00    -0.11  -0.00  -0.02     0.00  -0.00   0.00
     2   1     0.00   0.00   0.00     0.97   0.02   0.19     0.00  -0.00  -0.00
     3   6     0.00  -0.00   0.00     0.03   0.00   0.01    -0.00  -0.00  -0.00
     4   6    -0.00   0.00  -0.00    -0.00   0.00  -0.00    -0.00   0.00  -0.00
     5   8     0.00  -0.00   0.00     0.00   0.00  -0.00     0.00  -0.00   0.00
     6   8     0.00  -0.00   0.00     0.00  -0.00  -0.00     0.00   0.00  -0.00
     7   6     0.01   0.03  -0.06    -0.00  -0.00   0.00    -0.00   0.00   0.00
     8   6     0.02   0.03  -0.05     0.00  -0.00   0.00     0.00  -0.00  -0.00
     9   1    -0.24  -0.03   0.57     0.00   0.00  -0.00     0.00  -0.00  -0.00
    10   1     0.07  -0.37   0.15     0.00   0.00   0.00     0.00  -0.00   0.00
    11   1    -0.09   0.01  -0.02     0.00   0.00   0.00     0.00   0.00   0.00
    12   1     0.08  -0.34   0.14    -0.00   0.00  -0.00    -0.00   0.00   0.00
    13   1    -0.22  -0.03   0.49    -0.00  -0.00  -0.00    -0.00  -0.00  -0.00
    14   8    -0.00   0.00  -0.00     0.00   0.00   0.00    -0.01   0.02  -0.06
    15   1     0.00  -0.00   0.00    -0.00  -0.00   0.00     0.10  -0.33   0.94

 -------------------
 - Thermochemistry -
 -------------------
 Temperature   298.150 Kelvin.  Pressure   1.00000 Atm.
 Atom     1 has atomic number  6 and mass  12.00000
 Atom     2 has atomic number  1 and mass   1.00783
 Atom     3 has atomic number  6 and mass  12.00000
 Atom     4 has atomic number  6 and mass  12.00000
 Atom     5 has atomic number  8 and mass  15.99491
 Atom     6 has atomic number  8 and mass  15.99491
 Atom     7 has atomic number  6 and mass  12.00000
 Atom     8 has atomic number  6 and mass  12.00000
 Atom     9 has atomic number  1 and mass   1.00783
 Atom    10 has atomic number  1 and mass   1.00783
 Atom    11 has atomic number  1 and mass   1.00783
 Atom    12 has atomic number  1 and mass   1.00783
 Atom    13 has atomic number  1 and mass   1.00783
 Atom    14 has atomic number  8 and mass  15.99491
 Atom    15 has atomic number  1 and mass   1.00783
 Molecular mass:   115.03952 amu.
 Principal axes and moments of inertia in atomic units:
                           1         2         3
     Eigenvalues --   510.311451381.859781547.97617
           X            0.99989   0.01222   0.00807
           Y           -0.01236   0.99977   0.01734
           Z           -0.00786  -0.01744   0.99982
 This molecule is an asymmetric top.
 Rotational symmetry number  1.
 Warning -- assumption of classical behavior for rotation
           may cause significant error
 Rotational temperatures (Kelvin)      0.16973     0.06268     0.05595
 Rotational constants (GHZ):           3.53655     1.30602     1.16587
    2 imaginary frequencies ignored.
 Zero-point vibrational energy     292630.5 (Joules/Mol)
                                   69.94037 (Kcal/Mol)
 Warning -- explicit consideration of  11 degrees of freedom as
           vibrations may cause significant error
 Vibrational temperatures:     68.39   156.02   194.05   223.90   274.45
          (Kelvin)            322.74   356.73   488.12   612.90   799.37
                              854.28   934.29  1049.06  1051.03  1112.36
                             1155.15  1289.92  1333.90  1548.59  1623.98
                             1731.89  1845.11  1936.02  2016.40  2059.20
                             2145.77  2161.67  2179.11  2666.41  3178.40
                             4425.13  4470.03  4532.73  4539.74  4567.95
                             5014.53  5471.40
 
 Zero-point correction=                           0.111457 (Hartree/Particle)
 Thermal correction to Energy=                    0.120470
 Thermal correction to Enthalpy=                  0.121414
 Thermal correction to Gibbs Free Energy=         0.076484
 Sum of electronic and zero-point Energies=           -420.092407
 Sum of electronic and thermal Energies=              -420.083394
 Sum of electronic and thermal Enthalpies=            -420.082450
 Sum of electronic and thermal Free Energies=         -420.127381
 
                     E (Thermal)             CV                S
                      KCal/Mol        Cal/Mol-Kelvin    Cal/Mol-Kelvin
 Total                   75.596             30.584             94.564
 Electronic               0.000              0.000              1.377
 Translational            0.889              2.981             40.136
 Rotational               0.889              2.981             28.481
 Vibrational             73.819             24.622             24.570
 Vibration     1          0.595              1.979              4.918
 Vibration     2          0.606              1.942              3.297
 Vibration     3          0.613              1.919              2.875
 Vibration     4          0.620              1.896              2.602
 Vibration     5          0.634              1.853              2.221
 Vibration     6          0.649              1.804              1.924
 Vibration     7          0.662              1.766              1.745
 Vibration     8          0.719              1.597              1.216
 Vibration     9          0.788              1.414              0.872
 Vibration    10          0.911              1.127              0.533
 Vibration    11          0.951              1.045              0.461
                       Q            Log10(Q)             Ln(Q)
 Total Bot       0.660583D-35        -35.180073        -81.005111
 Total V=0       0.122062D+17         16.086579         37.040717
 Vib (Bot)       0.182094D-48        -48.739705       -112.227317
 Vib (Bot)    1  0.435022D+01          0.638511          1.470225
 Vib (Bot)    2  0.188937D+01          0.276316          0.636242
 Vib (Bot)    3  0.150970D+01          0.178891          0.411911
 Vib (Bot)    4  0.130081D+01          0.114213          0.262986
 Vib (Bot)    5  0.104894D+01          0.020752          0.047784
 Vib (Bot)    6  0.880214D+00         -0.055412         -0.127590
 Vib (Bot)    7  0.787927D+00         -0.103514         -0.238350
 Vib (Bot)    8  0.547572D+00         -0.261559         -0.602261
 Vib (Bot)    9  0.410303D+00         -0.386895         -0.890859
 Vib (Bot)   10  0.280945D+00         -0.551378         -1.269595
 Vib (Bot)   11  0.253100D+00         -0.596708         -1.373971
 Vib (V=0)       0.336471D+03          2.526947          5.818511
 Vib (V=0)    1  0.487885D+01          0.688318          1.584911
 Vib (V=0)    2  0.245441D+01          0.389947          0.897885
 Vib (V=0)    3  0.209034D+01          0.320218          0.737329
 Vib (V=0)    4  0.189359D+01          0.277287          0.638476
 Vib (V=0)    5  0.166202D+01          0.220635          0.508032
 Vib (V=0)    6  0.151231D+01          0.179642          0.413640
 Vib (V=0)    7  0.143318D+01          0.156301          0.359897
 Vib (V=0)    8  0.124151D+01          0.093950          0.216327
 Vib (V=0)    9  0.114680D+01          0.059487          0.136974
 Vib (V=0)   10  0.107352D+01          0.030812          0.070947
 Vib (V=0)   11  0.106041D+01          0.025474          0.058656
 Electronic      0.200000D+01          0.301030          0.693147
 Translational   0.484981D+08          7.685724         17.697035
 Rotational      0.374005D+06          5.572877         12.832024
 ***** Axes restored to original set *****
 -------------------------------------------------------------------
 Center     Atomic                   Forces (Hartrees/Bohr)
 Number     Number              X              Y              Z
 -------------------------------------------------------------------
      1        6          -0.001151294    0.000258315   -0.000317051
      2        1          -0.000065400    0.000414595    0.000099816
      3        6          -0.000349554   -0.010948686   -0.003108123
      4        6          -0.000130391   -0.001987112   -0.000491164
      5        8           0.001036820    0.000652017    0.000674674
      6        8          -0.000239890    0.000268667    0.000218365
      7        6          -0.000143828    0.000284222    0.000112512
      8        6           0.000106496    0.000118581    0.000072291
      9        1          -0.000016681    0.000016868    0.000002557
     10        1          -0.000019818    0.000020084    0.000007790
     11        1           0.000010305    0.000002314   -0.000005382
     12        1           0.000017060    0.000011984    0.000011497
     13        1           0.000020356    0.000012026    0.000004327
     14        8           0.000855639    0.010820469    0.002585011
     15        1           0.000070180    0.000055656    0.000132880
 -------------------------------------------------------------------
 Cartesian Forces:  Max     0.010948686 RMS     0.002414516

 GradGradGradGradGradGradGradGradGradGradGradGradGradGradGradGradGradGrad
 Berny optimization.
 Search for a local minimum.
 Step number   1 out of a maximum of    2
 All quantities printed in internal units (Hartrees-Bohrs-Radians)
 Second derivative matrix not updated -- analytic derivatives used.
 ITU=  0
     Eigenvalues ---   -0.01675  -0.00034   0.00038   0.00136   0.00177
     Eigenvalues ---    0.00351   0.00558   0.00618   0.01064   0.01812
     Eigenvalues ---    0.02538   0.03224   0.03479   0.05152   0.06351
     Eigenvalues ---    0.07596   0.07891   0.08728   0.09213   0.10221
     Eigenvalues ---    0.11479   0.14153   0.17022   0.17519   0.19821
     Eigenvalues ---    0.28657   0.29507   0.43668   0.49481   0.62707
     Eigenvalues ---    0.70873   0.76473   0.79376   0.86376   0.88538
     Eigenvalues ---    0.91229   0.96228   1.75244   2.60408
 Eigenvalue     1 is  -1.67D-02 should be greater than     0.000000 Eigenvector:
                          Y3        Y14       Z3        Z14       Y4
   1                    0.68956  -0.62383   0.19012  -0.17162   0.13668
                          Y2        Y15       X14       X5        Y1
   1                   -0.12259  -0.08324  -0.06744  -0.06474   0.05610
 Eigenvalue     2 is  -3.36D-04 should be greater than     0.000000 Eigenvector:
                          Z15       Z14       Z12       Y9        X15
   1                    0.47457   0.34320  -0.31720  -0.27673  -0.26139
                          Z2        Y13       Z10       Z1        Y15
   1                   -0.25060   0.24665   0.23210  -0.19595   0.16217
 Quadratic step=2.471D+00 exceeds max=3.000D-01 adjusted using Lamda=-3.691D-02.
 Angle between NR and scaled steps=  62.77 degrees.
 Angle between quadratic step and forces=   5.50 degrees.
 Linear search not attempted -- first point.
 B after Tr=     0.000974    0.001706    0.001147
         Rot=    1.000000    0.000017   -0.000093    0.000037 Ang=   0.01 deg.
 Variable       Old X    -DE/DX   Delta X   Delta X   Delta X     New X
                                 (Linear)    (Quad)   (Total)
    X1       -5.30566  -0.00115   0.00000  -0.01259  -0.01182  -5.31748
    Y1       -0.82840   0.00026   0.00000  -0.01054  -0.00846  -0.83687
    Z1       -0.74529  -0.00032   0.00000  -0.01042  -0.00826  -0.75355
    X2       -7.27958  -0.00007   0.00000  -0.01238  -0.01168  -7.29126
    Y2       -0.87650   0.00041   0.00000   0.00953   0.01173  -0.86477
    Z2       -1.13595   0.00010   0.00000  -0.00028   0.00225  -1.13370
    X3       -3.08469  -0.00035   0.00000  -0.00788  -0.00703  -3.09173
    Y3       -0.68173  -0.01095   0.00000  -0.20310  -0.20118  -0.88291
    Z3       -0.26053  -0.00311   0.00000  -0.05828  -0.05653  -0.31706
    X4       -0.41810  -0.00013   0.00000  -0.00293  -0.00199  -0.42008
    Y4       -1.14773  -0.00199   0.00000  -0.03664  -0.03489  -1.18262
    Z4        0.30498  -0.00049   0.00000  -0.00968  -0.00842   0.29656
    X5        0.27804   0.00104   0.00000   0.01797   0.01919   0.29723
    Y5       -2.17754   0.00065   0.00000   0.01061   0.01237  -2.16517
    Z5        2.19449   0.00067   0.00000   0.01032   0.01148   2.20597
    X6        1.05701  -0.00024   0.00000  -0.00365  -0.00300   1.05402
    Y6       -0.35986   0.00027   0.00000   0.00193   0.00351  -0.35636
    Z6       -1.57558   0.00022   0.00000   0.00173   0.00269  -1.57289
    X7        3.73905  -0.00014   0.00000  -0.00289  -0.00219   3.73687
    Y7       -0.64080   0.00028   0.00000   0.00251   0.00390  -0.63690
    Z7       -1.17699   0.00011   0.00000   0.00097   0.00145  -1.17554
    X8        4.73188   0.00011   0.00000   0.00146   0.00264   4.73452
    Y8        1.44052   0.00012   0.00000  -0.00056   0.00081   1.44133
    Z8        0.52155   0.00007   0.00000   0.00115   0.00137   0.52293
    X9        4.54100  -0.00002   0.00000  -0.00152  -0.00116   4.53985
    Y9       -0.53608   0.00002   0.00000  -0.00048   0.00079  -0.53529
    Z9       -3.06840   0.00000   0.00000   0.00085   0.00117  -3.06723
   X10        4.09736  -0.00002   0.00000  -0.00401  -0.00330   4.09407
   Y10       -2.50735   0.00002   0.00000   0.00116   0.00255  -2.50480
   Z10       -0.38030   0.00001   0.00000   0.00015   0.00063  -0.37967
   X11        6.77795   0.00001   0.00000   0.00141   0.00261   6.78056
   Y11        1.26074   0.00000   0.00000  -0.00208  -0.00085   1.25988
   Z11        0.71559  -0.00001   0.00000   0.00017   0.00001   0.71561
   X12        4.30753   0.00002   0.00000   0.00237   0.00354   4.31107
   Y12        3.28989   0.00001   0.00000  -0.00073   0.00065   3.29054
   Z12       -0.28440   0.00001   0.00000   0.00044   0.00068  -0.28372
   X13        3.88340   0.00002   0.00000   0.00100   0.00252   3.88592
   Y13        1.31430   0.00001   0.00000  -0.00136   0.00014   1.31443
   Z13        2.39458   0.00000   0.00000   0.00049   0.00087   2.39545
   X14       -2.75535   0.00086   0.00000   0.01327   0.01464  -2.74070
   Y14        3.21063   0.01082   0.00000   0.19779   0.19973   3.41035
   Z14        0.74076   0.00259   0.00000   0.05656   0.05810   0.79885
   X15       -2.94022   0.00007   0.00000  -0.00406  -0.00298  -2.94320
   Y15        3.81805   0.00006   0.00000   0.00733   0.00922   3.82727
   Z15       -0.98073   0.00013   0.00000  -0.00906  -0.00749  -0.98823
         Item               Value     Threshold  Converged?
 Maximum Force            0.010949     0.000450     NO 
 RMS     Force            0.002415     0.000300     NO 
 Maximum Displacement     0.201178     0.001800     NO 
 RMS     Displacement     0.044712     0.001200     NO 
 Predicted change in Energy=-5.556860D-03
 GradGradGradGradGradGradGradGradGradGradGradGradGradGradGradGradGradGrad


 ----------------------------------------------------------------------

 Electric dipole moment (input orientation):
 (Debye = 10**-18 statcoulomb cm , SI units = C m)
                  (au)            (Debye)         (10**-30 SI)
   Tot        0.123364D+01      0.313559D+01      0.104592D+02
   x          0.507732D-01      0.129053D+00      0.430473D+00
   y          0.264595D+00      0.672533D+00      0.224333D+01
   z         -0.120386D+01     -0.305990D+01     -0.102067D+02

 Dipole polarizability, Alpha (input orientation).
 (esu units = cm**3 , SI units = C**2 m**2 J**-1)
 Alpha(0;0):
               (au)            (10**-24 esu)      (10**-40 SI)
   iso        0.731360D+02      0.108376D+02      0.120585D+02
   aniso      0.320920D+02      0.475555D+01      0.529126D+01
   xx         0.914185D+02      0.135468D+02      0.150729D+02
   yx         0.594386D+01      0.880789D+00      0.980010D+00
   yy         0.695135D+02      0.103008D+02      0.114612D+02
   zx         0.516111D+01      0.764797D+00      0.850951D+00
   zy         0.434531D+00      0.643908D-01      0.716445D-01
   zz         0.584760D+02      0.866525D+01      0.964139D+01

 ----------------------------------------------------------------------

 Dipole orientation:
     6         -5.32808770          0.94526462          0.33125538
     1         -7.31617610          1.06721432          0.62092277
     6         -3.08972680          0.70795524         -0.01893812
     6         -0.40005973          1.05372715         -0.56099627
     8          0.37785435          1.65739685         -2.59711363
     8          0.99286940          0.69414455          1.50386432
     6          3.69026730          0.89502784          1.16502778
     6          4.74285113         -1.49770377         -0.00524127
     1          4.41321719          1.20200424          3.06624435
     1          4.08940021          2.54884636          0.00196615
     1          6.79595528         -1.35458408         -0.14894770
     1          4.27743034         -3.13304849          1.16045108
     1          3.97275764         -1.77994748         -1.89504992
     8         -2.73683985         -3.30706403         -0.14764930
     1         -2.99511893         -3.53193674          1.65495459

 Electric dipole moment (dipole orientation):
 (Debye = 10**-18 statcoulomb cm , SI units = C m)
                  (au)            (Debye)         (10**-30 SI)
   Tot        0.123364D+01      0.313559D+01      0.104592D+02
   x          0.000000D+00      0.000000D+00      0.000000D+00
   y          0.000000D+00      0.000000D+00      0.000000D+00
   z          0.123364D+01      0.313559D+01      0.104592D+02

 Dipole polarizability, Alpha (dipole orientation).
 (esu units = cm**3 , SI units = C**2 m**2 J**-1)
 Alpha(0;0):
               (au)            (10**-24 esu)      (10**-40 SI)
   iso        0.731360D+02      0.108376D+02      0.120585D+02
   aniso      0.320920D+02      0.475555D+01      0.529126D+01
   xx         0.917335D+02      0.135935D+02      0.151248D+02
   yx        -0.672752D+01     -0.996916D+00     -0.110922D+01
   yy         0.691264D+02      0.102435D+02      0.113974D+02
   zx        -0.240096D+01     -0.355786D+00     -0.395865D+00
   zy        -0.221330D+01     -0.327977D+00     -0.364924D+00
   zz         0.585480D+02      0.867592D+01      0.965327D+01

 ----------------------------------------------------------------------
 1\1\GINC-AJ\Freq\UM062X\6-311++G(d,p)\C5H7O3(2)\AAYUSH\23-Jun-2025\0\\
 # freq 6-311++g(d,p) m062x\\Title Card Required\\0,2\C,-2.807636,-0.43
 8372,-0.394392\H,-3.852188,-0.463825,-0.601118\C,-1.63235,-0.360756,-0
 .137866\C,-0.221248,-0.607353,0.161389\O,0.147135,-1.152302,1.161272\O
 ,0.559348,-0.190432,-0.833761\C,1.978621,-0.339095,-0.622837\C,2.50400
 2,0.76229,0.275993\H,2.402995,-0.283679,-1.623727\H,2.168231,-1.326833
 ,-0.201244\H,3.586735,0.667153,0.378675\H,2.279445,1.740935,-0.150499\
 H,2.055009,0.695497,1.267158\O,-1.458066,1.69899,0.391991\H,-1.555896,
 2.020423,-0.518981\\Version=ES64L-G16RevA.03\State=2-A\HF=-420.2038643
 \S2=0.763038\S2-1=0.\S2A=0.750083\RMSD=5.853e-09\RMSF=2.415e-03\ZeroPo
 int=0.1114571\Thermal=0.1204701\Dipole=0.0507732,0.2645949,-1.2038558\
 DipoleDeriv=-0.2441306,0.3231458,0.0247673,0.0401096,-0.1409745,0.0079
 307,-0.0605034,0.0588585,-0.1331076,0.2780558,0.0231115,0.0108707,0.01
 16904,0.2023675,-0.0020403,0.0247455,-0.0033948,0.2236423,-0.5530434,-
 0.3185748,-0.116479,-0.0861043,-0.5620453,-0.0704974,-0.0453464,-0.162
 4362,-0.1446092,2.1346526,-0.2410958,-0.1047347,0.1144866,0.7785212,-0
 .5413275,-0.4555263,-0.6122962,1.4790754,-0.8189824,0.1922863,-0.20173
 89,0.0202186,-0.5690374,0.3336045,-0.004907,0.3879647,-0.9211291,-1.61
 7852,-0.1428995,0.3385982,-0.1750354,-0.4007513,0.1789291,0.4934125,0.
 198681,-0.8109303,0.993443,0.0923811,-0.0572733,0.0082323,0.2943425,0.
 0768668,0.056651,0.0280497,0.3135541,-0.0653039,-0.0311033,0.0299441,-
 0.0469121,-0.0193815,-0.0844835,-0.0309083,-0.0555194,-0.0404889,-0.02
 32833,-0.0093493,0.0262646,-0.0222238,0.0673691,-0.0005233,0.0658482,-
 0.0263518,-0.0885905,-0.0178256,-0.0383526,0.0127383,0.0344374,-0.0678
 996,0.0012042,-0.0585996,0.0403443,0.0544458,-0.1298331,-0.0007888,-0.
 0196279,0.0139194,0.066899,-0.0045986,-0.0194328,-0.0172261,0.0925646,
 0.0798627,0.0524935,-0.0319015,0.0054675,-0.0736026,0.0282845,-0.03240
 42,0.0591501,0.0233811,0.0774152,0.0027382,0.0692361,-0.012663,0.04664
 57,0.0118575,0.047641,-0.0165418,-0.0291297,-0.3871665,0.1266738,0.028
 8536,0.101916,0.0338859,0.0327748,0.0563111,0.1672159,-0.1506252,0.293
 9913,-0.0306662,-0.0095177,-0.007539,0.3436613,0.0320185,-0.0369813,-0
 .0464978,0.1319473\Polar=91.4185064,5.9438581,69.5134523,5.1611052,0.4
 345308,58.4760145\Quadrupole=8.1462741,-2.918271,-5.2280031,0.7645616,
 2.345713,-0.2844955\PG=C01 [X(C5H7O3)]\NImag=2\\1.44447197,0.05896148,
 0.06165720,0.29399475,0.01392371,0.11657937,-0.40869844,-0.01056767,-0
 .07664238,0.39902851,-0.00497291,-0.02631699,-0.00135366,0.00965447,0.
 01626464,-0.07476376,-0.00251401,-0.04110002,0.07614256,0.00183723,0.0
 3116149,-1.03498773,-0.04901659,-0.21555354,0.00962440,-0.00471785,0.0
 0002474,1.35449471,-0.01200617,-0.02406944,-0.00070888,0.00114339,0.00
 649083,0.00134387,-0.02352726,0.03742494,-0.20899161,-0.00794497,-0.07
 773397,0.00132309,0.00015913,0.00479075,0.25239282,-0.03335774,0.15140
 342,0.01459035,0.00436983,0.00297071,-0.00089203,0.00043630,-0.0020369
 8,-0.25761754,0.01429274,-0.03932435,0.66732276,-0.01373185,0.00060321
 ,-0.00312200,-0.00048532,0.00455190,-0.00007490,0.03317520,-0.05856694
 ,0.00342538,-0.09013036,0.38156788,-0.00410479,0.00120486,0.00223675,-
 0.00092655,0.00007702,0.00535529,-0.02103320,-0.00116065,-0.06427457,0
 .11409516,-0.31622903,0.81032817,-0.00511022,0.00010098,-0.00075233,0.
 00032265,-0.00061462,0.00155541,-0.02201090,0.02667377,-0.04231648,-0.
 18201059,0.10591045,-0.18770998,0.18008795,0.00191285,0.00089359,0.000
 06519,0.00012223,-0.00048016,-0.00075532,0.02045976,0.00544224,0.02294
 507,0.09932014,-0.22305948,0.26182564,-0.11464841,0.21535775,0.0002377
 5,-0.00053419,0.00092219,0.00009197,-0.00051432,0.00013027,-0.03589066
 ,0.02293813,-0.01800973,-0.17915434,0.26156093,-0.55819172,0.19927840,
 -0.33491572,0.65844606,-0.00784394,0.00050373,-0.00256312,0.00085930,0
 .00043302,-0.00099510,-0.05223398,-0.00642525,0.03475098,-0.18765747,-
 0.03617166,0.08897080,0.02814984,-0.01080503,0.02550684,0.49422100,0.0
 0016707,0.00071371,0.00036051,0.00003783,-0.00035878,0.00010227,-0.001
 09045,0.01027366,0.00045421,-0.02535878,-0.09427963,0.05946902,-0.0124
 9866,0.00529429,0.05340994,0.02239173,0.14617215,0.00099295,0.00022178
 ,0.00038896,-0.00011059,-0.00007473,-0.00060298,0.00987151,0.00024620,
 0.00476594,0.06754254,0.06081996,-0.19991084,0.02504482,0.05305289,-0.
 08197316,-0.08921596,-0.12701337,0.36098894,0.00216999,-0.00022270,0.0
 0069263,-0.00035194,0.00000718,-0.00003329,0.00249160,-0.00195549,-0.0
 0055518,-0.05293010,-0.01162534,0.03411371,-0.00112066,0.00949792,-0.0
 1782079,-0.17806462,0.01692371,-0.01407579,0.45000105,0.00049584,-0.00
 013336,-0.00013229,0.00005398,-0.00013338,-0.00005971,-0.00136540,0.00
 349508,0.00294192,-0.01201713,0.00598101,-0.00946378,0.00206224,-0.005
 60996,0.00036872,0.02535979,-0.07541113,0.01617726,-0.00982321,0.57989
 055,0.00127620,-0.00013656,0.00055142,0.00000883,-0.00011281,0.0002187
 5,0.00388743,0.00271568,-0.00273260,0.03393028,-0.00700054,0.00851372,
 0.00152438,-0.00108578,-0.00386977,-0.03539129,0.01626095,-0.09081826,
 -0.06009222,-0.04923480,0.61649269,-0.00024792,-0.00003688,-0.00005256
 ,0.00008886,-0.00003390,-0.00003116,-0.00059392,0.00130448,0.00099903,
 0.00174638,0.00091021,-0.00885976,0.00077231,-0.00215254,0.00220474,-0
 .03820872,-0.03028605,-0.02354784,-0.08150039,-0.02202811,-0.01431419,
 0.57559474,0.00021174,-0.00004517,0.00009540,-0.00001062,0.00000603,-0
 .00001300,-0.00020593,-0.00035760,-0.00035953,-0.00100379,-0.00124760,
 0.00297330,-0.00088023,0.00042023,-0.00161620,0.00104011,0.00722298,0.
 00100861,-0.03225821,-0.16164198,-0.06097834,-0.02653088,0.53808502,0.
 00001774,-0.00001802,-0.00006086,0.00000402,-0.00001388,-0.00000028,-0
 .00036983,0.00027134,0.00018003,0.00135717,0.00026720,0.00311913,-0.00
 144003,-0.00133554,-0.00112570,-0.00727549,-0.00182950,-0.00135242,-0.
 02129370,-0.05962037,-0.13310965,-0.02263788,-0.04017771,0.55624592,-0
 .00064909,0.00008988,-0.00026693,0.00003927,0.00003362,-0.00003570,-0.
 00114469,-0.00060375,0.00108096,-0.00380700,0.00465587,-0.00481781,0.0
 0158410,-0.00084923,0.00116455,-0.03335387,-0.00474852,0.03484621,-0.0
 8101651,-0.00436156,0.08801962,0.00688364,0.00136285,-0.01193570,0.107
 25162,0.00001083,-0.00002374,-0.00000661,0.00001079,-0.00000921,0.0000
 0752,0.00019949,0.00024931,-0.00001351,0.00053147,-0.00138953,0.002505
 36,-0.00194643,0.00085245,-0.00039650,0.00436262,0.00121114,-0.0046608
 6,-0.00725245,-0.05484082,0.01868720,0.00961964,0.00152576,-0.02499923
 ,0.00758682,0.05306000,-0.00004549,0.00003352,-0.00002988,-0.00001528,
 0.00000482,-0.00002301,-0.00013940,-0.00026771,0.00017663,-0.00236166,
 0.00051195,-0.00028234,0.00106502,-0.00047668,0.00073655,-0.00448009,0
 .00015631,0.00827261,0.10128075,0.01735378,-0.28934941,0.00587305,0.00
 137787,-0.01644050,-0.10285756,-0.01550456,0.30555524,-0.00019561,0.00
 008125,-0.00000217,0.00002686,0.00003957,-0.00001130,-0.00017233,-0.00
 072145,-0.00007933,0.00248677,0.00502857,-0.00781360,0.00045239,-0.001
 78684,0.00359724,-0.02739547,0.03367625,-0.01343425,-0.05469605,0.0300
 3026,-0.01092173,0.00393451,-0.01151743,0.00535904,0.00405294,-0.01162
 879,0.00369594,0.07163314,-0.00014044,0.00001329,-0.00002520,-0.000008
 44,0.00001177,0.00002021,0.00018762,-0.00013583,-0.00023835,-0.0009152
 6,-0.00069463,0.00349005,-0.00253777,0.00081917,-0.00053039,0.00651787
 ,0.00135338,0.00006731,0.03993931,-0.27376381,0.09494999,0.00241265,-0
 .02076276,0.00893994,-0.00112797,0.00101193,-0.00012785,-0.04235472,0.
 29288070,-0.00010072,-0.00005782,-0.00004384,0.00002184,-0.00000572,0.
 00000856,-0.00026157,0.00052101,0.00004940,0.00247302,-0.00056475,0.00
 056068,0.00112461,-0.00038105,-0.00122189,-0.00568178,0.00271060,-0.00
 164478,-0.01734744,0.09821688,-0.09418084,0.00375995,-0.02044059,0.009
 04586,-0.00480536,0.02599865,-0.00921274,0.02160866,-0.10370923,0.0975
 1688,-0.00007441,0.00000963,-0.00001993,0.00003538,0.00000205,0.000009
 76,-0.00013810,0.00015278,0.00004844,0.00144738,0.00076781,-0.00127104
 ,-0.00006272,-0.00051846,0.00034266,-0.00079926,-0.00278050,-0.0009662
 7,-0.01075023,0.00333500,0.00112664,-0.31435805,0.02372748,-0.02519753
 ,0.00028266,-0.00007769,-0.00037208,0.00022368,-0.00043945,0.00009353,
 0.34066346,-0.00020761,0.00000439,-0.00007238,0.00001391,-0.00000664,-
 0.00000452,-0.00004179,0.00041777,0.00037585,0.00088339,0.00048703,-0.
 00223980,0.00011259,-0.00059056,0.00068764,-0.00557972,-0.00402593,-0.
 00315523,-0.02281560,0.00429958,0.00120198,0.02531582,-0.04959126,0.00
 135363,0.00056843,0.00088556,0.00003278,0.00056063,0.00025484,0.001028
 67,-0.02560408,0.04985598,-0.00009800,0.00002008,-0.00001016,0.0000098
 0,-0.00000149,-0.00000553,-0.00009035,0.00008053,0.00018376,0.00049783
 ,0.00063340,-0.00318855,0.00061695,-0.00002527,0.00126811,-0.00514513,
 -0.00444601,-0.00114168,-0.01799556,0.00535083,-0.00119724,-0.02372866
 ,0.00093900,-0.04864687,0.00056285,0.00080577,0.00005550,0.00033974,0.
 00007294,0.00068064,0.02823872,-0.00039336,0.04901924,-0.00009800,0.00
 000295,-0.00002354,-0.00002533,-0.00000543,-0.00000031,0.00017699,0.00
 017861,0.00003378,-0.00025823,-0.00074167,0.00137549,-0.00052687,0.000
 12823,-0.00067219,0.00218110,0.00055111,0.00055321,0.00058680,-0.01228
 365,0.00442581,-0.05885275,0.05221346,-0.02189335,0.00013172,0.0008048
 7,0.00021121,-0.00029027,-0.00205203,-0.00155014,-0.00477535,0.0292206
 5,-0.01271132,0.05898289,-0.00015201,0.00002270,-0.00003307,-0.0000026
 6,-0.00000373,0.00000442,0.00004846,0.00014515,0.00003971,0.00012677,-
 0.00062471,0.00065558,-0.00029922,0.00023772,-0.00040516,0.00053236,0.
 00265229,0.00055326,0.00598631,-0.02433031,0.00983597,0.05017934,-0.26
 393690,0.09727892,0.00014381,0.00093912,-0.00009346,-0.00186398,-0.001
 88558,-0.00375758,0.00014403,-0.00078800,0.00002408,-0.05465510,0.2882
 8581,0.00012183,-0.00001288,0.00002917,0.00000408,0.00000401,0.0000004
 8,-0.00006774,-0.00027193,-0.00007255,-0.00046860,0.00047883,-0.000298
 84,0.00054053,0.00027620,0.00043103,0.00179520,0.00146758,0.00062023,0
 .00498142,-0.02211102,0.00871313,-0.02287787,0.09950349,-0.09285717,0.
 00063441,0.00056122,0.00102221,-0.00226135,-0.00314461,-0.00234214,0.0
 0004634,0.00153673,-0.00234436,0.02583824,-0.10407226,0.09683722,0.000
 06772,-0.00003489,0.00002978,-0.00003067,-0.00000395,-0.00000935,0.000
 08217,0.00006951,0.00000910,-0.00092270,-0.00035200,-0.00121483,-0.000
 65684,-0.00079121,0.00057630,0.00136139,0.00104450,0.00096520,0.004505
 83,0.00066531,-0.01324468,-0.09530094,-0.00623631,0.10534888,-0.000190
 93,-0.00227381,-0.00190267,0.00003846,0.00053730,0.00067298,-0.0115951
 8,-0.00243888,0.02944719,0.00274514,-0.00013286,-0.00821051,0.09968593
 ,0.00019524,-0.00001666,0.00003702,-0.00000588,0.00000492,-0.00001447,
 -0.00016717,-0.00035375,0.00006669,-0.00093941,0.00139607,-0.00238502,
 0.00044114,-0.00106096,0.00148937,-0.00000159,0.00084334,0.00284876,0.
 01323280,0.00130335,-0.02574585,-0.00864538,-0.04966221,0.01995261,-0.
 00259024,-0.00349338,-0.00295199,0.00060194,0.00095031,0.00040856,0.00
 126048,-0.00115910,-0.00302576,-0.01333306,-0.00068097,0.02572748,0.01
 004294,0.05189509,0.00001947,0.00001045,0.00002554,-0.00002463,0.00001
 001,-0.00001386,0.00002837,-0.00019380,0.00002202,-0.00075617,0.000199
 84,-0.00179308,0.00114550,0.00079634,0.00103324,-0.00035923,0.00083587
 ,0.00189262,0.00861531,0.00023449,-0.01934464,0.10316511,0.01751361,-0
 .27482100,-0.00160868,-0.00299498,-0.00048202,-0.00019540,0.00030732,0
 .00076977,-0.00209806,-0.00030069,0.00528334,0.00453680,0.00004037,-0.
 00982302,-0.11255956,-0.01641675,0.29729552,-0.00318325,-0.00361761,-0
 .00223440,0.00007439,0.00026896,0.00010973,0.00337612,0.00227571,0.000
 15116,-0.00483392,0.00074307,0.00219894,0.00084669,0.00027521,-0.00028
 881,-0.00019369,0.00359152,0.00034556,0.00110055,-0.00014290,-0.000358
 43,-0.00004539,-0.00019055,0.00007585,-0.00003807,0.00000348,0.0000371
 9,-0.00019857,0.00006663,-0.00003348,-0.00015449,0.00013729,0.00001798
 ,0.00024386,0.00012580,-0.00016663,0.00019425,-0.00011607,0.00012488,0
 .00988676,-0.03079568,-0.01279471,-0.00946832,0.00034253,-0.00008985,0
 .00016793,0.02606414,0.02379466,0.00739439,0.00792404,-0.01284574,-0.0
 0242488,-0.00089933,0.00114966,-0.00035212,-0.00072449,-0.00203672,0.0
 0010559,-0.00066047,0.00064435,0.00060294,0.00009943,-0.00007107,-0.00
 005168,-0.00006719,0.00003948,-0.00005309,0.00004164,-0.00005328,0.000
 10224,0.00006548,0.00002552,0.00001440,-0.00002930,-0.00002245,0.00000
 688,-0.00011664,-0.00001685,-0.00004461,-0.01788204,0.06479825,-0.0101
 3829,-0.00330110,-0.00252848,0.00002551,-0.00002899,0.00008260,0.00888
 834,0.01302062,0.00052422,0.00350442,-0.00135623,-0.00254536,-0.000389
 59,0.00029803,0.00117810,-0.00067508,-0.00222512,0.00133433,-0.0003567
 9,-0.00010258,0.00010800,0.00001277,0.00019290,-0.00015558,-0.00004771
 ,0.00003783,0.00001582,0.00013802,-0.00007937,0.00002505,0.00000268,-0
 .00005124,0.00004018,-0.00009395,-0.00010234,0.00005515,0.00010094,0.0
 0000781,-0.00001641,0.05060423,-0.15711600,0.46191854,-0.00021143,-0.0
 0062340,0.00042303,-0.00010120,-0.00052652,0.00007475,-0.00134680,-0.0
 0085162,0.00047758,0.00333593,0.00204701,-0.00300254,-0.00071713,-0.00
 016460,0.00082634,-0.00102160,-0.00162075,0.00118871,-0.00042531,0.000
 01954,0.00012335,0.00008766,0.00027834,-0.00011918,-0.00002579,0.00004
 917,0.00001108,0.00009955,-0.00008529,0.00002589,0.00005524,-0.0001250
 5,0.00003797,-0.00022171,-0.00018106,0.00009064,0.00001636,0.00002426,
 -0.00003372,-0.00707523,0.01663790,-0.05157550,0.00755146,0.00005162,-
 0.00050803,0.00044058,-0.00029854,0.00006865,-0.00004751,-0.00000221,-
 0.00425007,0.00411175,0.00248005,-0.00187884,0.00170231,-0.00097650,0.
 00033401,-0.00119014,-0.00143349,0.00037524,-0.00019744,0.00102625,0.0
 0025083,0.00003995,-0.00012782,0.00005653,-0.00001771,-0.00009282,-0.0
 0001807,0.00000431,-0.00018690,0.00000049,-0.00006986,-0.00004456,-0.0
 0006917,-0.00004911,0.00000037,-0.00001013,0.00005028,0.00002099,0.000
 05080,0.00000256,0.01446150,-0.06252125,0.15080579,-0.01487793,0.06811
 901,0.00158199,-0.00089485,0.00077381,0.00008774,0.00001340,-0.0000025
 1,-0.00168693,-0.00517667,0.00072726,-0.00226904,0.00044996,0.00037155
 ,0.00071280,-0.00028401,0.00024644,0.00075845,0.00028675,-0.00081949,-
 0.00011306,0.00008067,0.00000470,0.00003528,-0.00001881,-0.00002089,0.
 00006684,-0.00002731,-0.00001467,-0.00001950,0.00000726,-0.00001059,0.
 00001614,-0.00000007,0.00000364,-0.00002975,0.00003155,0.00002946,-0.0
 0000877,0.00000156,-0.00002801,-0.05058375,0.16111631,-0.46003616,0.05
 145158,-0.15558574,0.45877547\\0.00115129,-0.00025832,0.00031705,0.000
 06540,-0.00041459,-0.00009982,0.00034955,0.01094869,0.00310812,0.00013
 039,0.00198711,0.00049116,-0.00103682,-0.00065202,-0.00067467,0.000239
 89,-0.00026867,-0.00021836,0.00014383,-0.00028422,-0.00011251,-0.00010
 650,-0.00011858,-0.00007229,0.00001668,-0.00001687,-0.00000256,0.00001
 982,-0.00002008,-0.00000779,-0.00001030,-0.00000231,0.00000538,-0.0000
 1706,-0.00001198,-0.00001150,-0.00002036,-0.00001203,-0.00000433,-0.00
 085564,-0.01082047,-0.00258501,-0.00007018,-0.00005566,-0.00013288\\\@


 NO MATTER HOW THIN YOU SLICE IT, IT'S STILL BALONEY

                                   -- ALFRED E. SMITH
 Job cpu time:       0 days  0 hours 59 minutes 18.4 seconds.
 Elapsed time:       0 days  0 hours  2 minutes 28.6 seconds.
 File lengths (MBytes):  RWF=    153 Int=      0 D2E=      0 Chk=      9 Scr=      1
 Normal termination of Gaussian 16 at Mon Jun 23 04:34:47 2025.
