 Entering Gaussian System, Link 0=g16
 Initial command:
 /opt/g16/l1.exe "/home/aayush/scratches/g16/Gau-93642.inp" -scrdir="/home/aayush/scratches/g16/"
 Entering Link 1 = /opt/g16/l1.exe PID=     93645.
  
 Copyright (c) 1988,1990,1992,1993,1995,1998,2003,2009,2016,
            Gaussian, Inc.  All Rights Reserved.
  
 This is part of the Gaussian(R) 16 program.  It is based on
 the Gaussian(R) 09 system (copyright 2009, Gaussian, Inc.),
 the Gaussian(R) 03 system (copyright 2003, Gaussian, Inc.),
 the Gaussian(R) 98 system (copyright 1998, Gaussian, Inc.),
 the Gaussian(R) 94 system (copyright 1995, Gaussian, Inc.),
 the Gaussian 92(TM) system (copyright 1992, Gaussian, Inc.),
 the Gaussian 90(TM) system (copyright 1990, Gaussian, Inc.),
 the Gaussian 88(TM) system (copyright 1988, Gaussian, Inc.),
 the Gaussian 86(TM) system (copyright 1986, Carnegie Mellon
 University), and the Gaussian 82(TM) system (copyright 1983,
 Carnegie Mellon University). Gaussian is a federally registered
 trademark of Gaussian, Inc.
  
 This software contains proprietary and confidential information,
 including trade secrets, belonging to Gaussian, Inc.
  
 This software is provided under written license and may be
 used, copied, transmitted, or stored only in accord with that
 written license.
  
 The following legend is applicable only to US Government
 contracts under FAR:
  
                    RESTRICTED RIGHTS LEGEND
  
 Use, reproduction and disclosure by the US Government is
 subject to restrictions as set forth in subparagraphs (a)
 and (c) of the Commercial Computer Software - Restricted
 Rights clause in FAR 52.227-19.
  
 Gaussian, Inc.
 340 Quinnipiac St., Bldg. 40, Wallingford CT 06492
  
  
 ---------------------------------------------------------------
 Warning -- This program may not be used in any manner that
 competes with the business of Gaussian, Inc. or will provide
 assistance to any competitor of Gaussian, Inc.  The licensee
 of this program is prohibited from giving any competitor of
 Gaussian, Inc. access to this program.  By using this program,
 the user acknowledges that Gaussian, Inc. is engaged in the
 business of creating and licensing software in the field of
 computational chemistry and represents and warrants to the
 licensee that it is not a competitor of Gaussian, Inc. and that
 it will not use this program in any manner prohibited above.
 ---------------------------------------------------------------
  

 Cite this work as:
 Gaussian 16, Revision A.03,
 M. J. Frisch, G. W. Trucks, H. B. Schlegel, G. E. Scuseria, 
 M. A. Robb, J. R. Cheeseman, G. Scalmani, V. Barone, 
 G. A. Petersson, H. Nakatsuji, X. Li, M. Caricato, A. V. Marenich, 
 J. Bloino, B. G. Janesko, R. Gomperts, B. Mennucci, H. P. Hratchian, 
 J. V. Ortiz, A. F. Izmaylov, J. L. Sonnenberg, D. Williams-Young, 
 F. Ding, F. Lipparini, F. Egidi, J. Goings, B. Peng, A. Petrone, 
 T. Henderson, D. Ranasinghe, V. G. Zakrzewski, J. Gao, N. Rega, 
 G. Zheng, W. Liang, M. Hada, M. Ehara, K. Toyota, R. Fukuda, 
 J. Hasegawa, M. Ishida, T. Nakajima, Y. Honda, O. Kitao, H. Nakai, 
 T. Vreven, K. Throssell, J. A. Montgomery, Jr., J. E. Peralta, 
 F. Ogliaro, M. J. Bearpark, J. J. Heyd, E. N. Brothers, K. N. Kudin, 
 V. N. Staroverov, T. A. Keith, R. Kobayashi, J. Normand, 
 K. Raghavachari, A. P. Rendell, J. C. Burant, S. S. Iyengar, 
 J. Tomasi, M. Cossi, J. M. Millam, M. Klene, C. Adamo, R. Cammi, 
 J. W. Ochterski, R. L. Martin, K. Morokuma, O. Farkas, 
 J. B. Foresman, and D. J. Fox, Gaussian, Inc., Wallingford CT, 2016.
 
 ******************************************
 Gaussian 16:  ES64L-G16RevA.03 25-Dec-2016
                16-Aug-2025 
 ******************************************
 %chk=ethyl_propiolate_non_planar.chk
 %mem=12GB
 %nprocshared=24
 Will use up to   24 processors via shared memory.
 --------------------------
 # freq 6-311++g(d,p) m062x
 --------------------------
 1/10=4,30=1,38=1/1,3;
 2/12=2,17=6,18=5,40=1/2;
 3/5=4,6=6,7=1111,11=2,25=1,30=1,71=2,74=-55,140=1/1,2,3;
 4//1;
 5/5=2,38=5,98=1/2;
 8/6=4,10=90,11=11/1;
 11/6=1,8=1,9=11,15=111,16=1/1,2,10;
 10/6=1/2;
 6/7=2,8=2,9=2,10=2,28=1/1;
 7/8=1,10=1,25=1/1,2,3,16;
 1/10=4,30=1/3;
 99//99;
 -------------------
 Title Card Required
 -------------------
 Symbolic Z-matrix:
 Charge =  0 Multiplicity = 2
 C                     2.73568  -0.42282   0.41602 
 H                     3.77837  -0.46934   0.63312 
 C                     1.56323  -0.14898   0.10678 
 C                     0.15898  -0.56982  -0.14273 
 O                    -0.1995   -1.14975  -1.12494 
 O                    -0.62191  -0.15352   0.84972 
 C                    -2.04183  -0.30392   0.63939 
 C                    -2.56348   0.78417  -0.27818 
 H                    -2.46706  -0.23118   1.63866 
 H                    -2.23244  -1.29823   0.23423 
 H                    -3.64609   0.68773  -0.381 
 H                    -2.33795   1.7692    0.13236 
 H                    -2.11313   0.70167  -1.26762 
 O                     1.40633   1.59941  -0.37447 
 H                     1.49037   2.01494   0.49509 
 

 GradGradGradGradGradGradGradGradGradGradGradGradGradGradGradGradGradGrad
 Berny optimization.
 Initialization pass.
 Trust Radius=3.00D-01 FncErr=1.00D-07 GrdErr=1.00D-07 EigMax=2.50D+02 EigMin=1.00D-04
 Number of steps in this run=      2 maximum allowed number of steps=      2.
 GradGradGradGradGradGradGradGradGradGradGradGradGradGradGradGradGradGrad

                          Input orientation:                          
 ---------------------------------------------------------------------
 Center     Atomic      Atomic             Coordinates (Angstroms)
 Number     Number       Type             X           Y           Z
 ---------------------------------------------------------------------
      1          6           0        2.735683   -0.422820    0.416021
      2          1           0        3.778365   -0.469340    0.633115
      3          6           0        1.563230   -0.148980    0.106782
      4          6           0        0.158980   -0.569818   -0.142729
      5          8           0       -0.199499   -1.149747   -1.124939
      6          8           0       -0.621914   -0.153516    0.849715
      7          6           0       -2.041829   -0.303921    0.639390
      8          6           0       -2.563479    0.784165   -0.278184
      9          1           0       -2.467055   -0.231184    1.638664
     10          1           0       -2.232441   -1.298227    0.234229
     11          1           0       -3.646087    0.687728   -0.381003
     12          1           0       -2.337945    1.769204    0.132356
     13          1           0       -2.113126    0.701673   -1.267618
     14          8           0        1.406334    1.599407   -0.374471
     15          1           0        1.490372    2.014937    0.495088
 ---------------------------------------------------------------------
                    Distance matrix (angstroms):
                    1          2          3          4          5
     1  C    0.000000
     2  H    1.066058   0.000000
     3  C    1.243086   2.299235   0.000000
     4  C    2.640683   3.702969   1.487037   0.000000
     5  O    3.393858   4.401944   2.371895   1.195643   0.000000
     6  O    3.396185   4.416912   2.307991   1.329680   2.251704
     7  C    4.784209   5.822548   3.647482   2.350739   2.687463
     8  C    5.479037   6.528455   4.248374   3.043584   3.169450
     9  H    5.347903   6.330333   4.312380   3.191253   3.690944
    10  H    5.047934   6.080786   3.967887   2.528156   2.449946
    11  H    6.526527   7.582198   5.298585   4.014565   3.976019
    12  H    5.534179   6.532311   4.347327   3.432394   3.830668
    13  H    5.254529   6.300296   4.015990   2.836288   2.666474
    14  O    2.545869   3.304765   1.820186   2.512993   3.271047
    15  H    2.738560   3.380177   2.199688   2.976638   3.936417
                    6          7          8          9         10
     6  O    0.000000
     7  C    1.443266   0.000000
     8  C    2.433326   1.515913   0.000000
     9  H    2.008238   1.088419   2.171299   0.000000
    10  H    2.069537   1.090474   2.169910   1.779343   0.000000
    11  H    3.371644   2.144345   1.091747   2.512682   2.514145
    12  H    2.675111   2.154673   1.090739   2.507426   3.070935
    13  H    2.727299   2.157077   1.090230   3.072778   2.503873
    14  O    2.947060   4.066989   4.053801   4.733595   4.691213
    15  H    3.047901   4.227809   4.306560   4.691914   4.990435
                   11         12         13         14         15
    11  H    0.000000
    12  H    1.773235   0.000000
    13  H    1.770946   1.774850   0.000000
    14  O    5.134020   3.782239   3.740352   0.000000
    15  H    5.377009   3.853306   4.221018   0.967399   0.000000
 Stoichiometry    C5H7O3(2)
 Framework group  C1[X(C5H7O3)]
 Deg. of freedom    39
 Full point group                 C1      NOp   1
 Largest Abelian subgroup         C1      NOp   1
 Largest concise Abelian subgroup C1      NOp   1
                         Standard orientation:                         
 ---------------------------------------------------------------------
 Center     Atomic      Atomic             Coordinates (Angstroms)
 Number     Number       Type             X           Y           Z
 ---------------------------------------------------------------------
      1          6           0       -2.796418   -0.441101   -0.415331
      2          1           0       -3.838907   -0.483479   -0.634190
      3          6           0       -1.624298   -0.173290   -0.099615
      4          6           0       -0.220132   -0.598735    0.142445
      5          8           0        0.137707   -1.198429    1.112949
      6          8           0        0.561457   -0.162115   -0.840678
      7          6           0        1.981242   -0.316381   -0.632281
      8          6           0        2.501823    0.752954    0.307671
      9          1           0        2.407268   -0.223213   -1.629516
     10          1           0        2.171808   -1.318672   -0.247276
     11          1           0        3.584374    0.654740    0.409403
     12          1           0        2.276341    1.746080   -0.082930
     13          1           0        2.050681    0.650226    1.294849
     14          8           0       -1.468304    1.564986    0.417239
     15          1           0       -1.551747    1.998099   -0.443755
 ---------------------------------------------------------------------
 Rotational constants (GHZ):           3.7468502           1.3111572           1.1877105
 Standard basis: 6-311++G(d,p) (5D, 7F)
 There are   233 symmetry adapted cartesian basis functions of A   symmetry.
 There are   225 symmetry adapted basis functions of A   symmetry.
   225 basis functions,   351 primitive gaussians,   233 cartesian basis functions
    31 alpha electrons       30 beta electrons
       nuclear repulsion energy       363.9731676368 Hartrees.
 NAtoms=   15 NActive=   15 NUniq=   15 SFac= 1.00D+00 NAtFMM=   60 NAOKFM=F Big=F
 Integral buffers will be    131072 words long.
 Raffenetti 2 integral format.
 Two-electron integral symmetry is turned on.
 One-electron integrals computed using PRISM.
 NBasis=   225 RedAO= T EigKep=  5.03D-06  NBF=   225
 NBsUse=   225 1.00D-06 EigRej= -1.00D+00 NBFU=   225
 ExpMin= 3.60D-02 ExpMax= 8.59D+03 ExpMxC= 1.30D+03 IAcc=3 IRadAn=         5 AccDes= 0.00D+00
 Harris functional with IExCor= 1009 and IRadAn=       5 diagonalized for initial guess.
 HarFok:  IExCor= 1009 AccDes= 0.00D+00 IRadAn=         5 IDoV= 1 UseB2=F ITyADJ=14
 ICtDFT=  3500011 ScaDFX=  1.000000  1.000000  1.000000  1.000000
 FoFCou: FMM=F IPFlag=           0 FMFlag=      100000 FMFlg1=           0
         NFxFlg=           0 DoJE=T BraDBF=F KetDBF=T FulRan=T
         wScrn=  0.000000 ICntrl=       500 IOpCl=  0 I1Cent=   200000004 NGrid=           0
         NMat0=    1 NMatS0=      1 NMatT0=    0 NMatD0=    1 NMtDS0=    0 NMtDT0=    0
 Petite list used in FoFCou.
 Initial guess <Sx>= 0.0000 <Sy>= 0.0000 <Sz>= 0.5000 <S**2>= 0.7500 S= 0.5000
 Requested convergence on RMS density matrix=1.00D-08 within 128 cycles.
 Requested convergence on MAX density matrix=1.00D-06.
 Requested convergence on             energy=1.00D-06.
 No special actions if energy rises.
 SCF Done:  E(UM062X) =  -420.208124313     A.U. after   20 cycles
            NFock= 20  Conv=0.67D-08     -V/T= 2.0036
 <Sx>= 0.0000 <Sy>= 0.0000 <Sz>= 0.5000 <S**2>= 0.7858 S= 0.5177
 <L.S>=  0.00000000000    
 Annihilation of the first spin contaminant:
 S**2 before annihilation     0.7858,   after     0.7506
 DoSCS=F DFT=T ScalE2(SS,OS)=  1.000000  1.000000
 Range of M.O.s used for correlation:     1   225
 NBasis=   225 NAE=    31 NBE=    30 NFC=     0 NFV=     0
 NROrb=    225 NOA=    31 NOB=    30 NVA=   194 NVB=   195

 **** Warning!!: The largest alpha MO coefficient is  0.13921482D+03


 **** Warning!!: The largest beta MO coefficient is  0.13589250D+03

 Symmetrizing basis deriv contribution to polar:
 IMax=3 JMax=2 DiffMx= 0.00D+00
 G2DrvN: will do    16 centers at a time, making    1 passes.
 Calling FoFCou, ICntrl=  3107 FMM=F I1Cent=   0 AccDes= 0.00D+00.
 End of G2Drv F.D. properties file   721 does not exist.
 End of G2Drv F.D. properties file   722 does not exist.
 End of G2Drv F.D. properties file   788 does not exist.
          IDoAtm=111111111111111
          Differentiating once with respect to electric field.
                with respect to dipole field.
          Differentiating once with respect to nuclear coordinates.
 Keep R1 and R2 ints in memory in canonical form, NReq=671901991.
          There are    48 degrees of freedom in the 1st order CPHF.  IDoFFX=6 NUNeed=     3.
     45 vectors produced by pass  0 Test12= 2.47D-14 2.08D-09 XBig12= 8.52D+01 3.30D+00.
 AX will form    45 AO Fock derivatives at one time.
     45 vectors produced by pass  1 Test12= 2.47D-14 2.08D-09 XBig12= 1.21D+01 4.26D-01.
     45 vectors produced by pass  2 Test12= 2.47D-14 2.08D-09 XBig12= 6.53D-01 1.18D-01.
     45 vectors produced by pass  3 Test12= 2.47D-14 2.08D-09 XBig12= 1.01D-02 1.16D-02.
     45 vectors produced by pass  4 Test12= 2.47D-14 2.08D-09 XBig12= 1.05D-04 1.19D-03.
     45 vectors produced by pass  5 Test12= 2.47D-14 2.08D-09 XBig12= 1.24D-06 9.39D-05.
     39 vectors produced by pass  6 Test12= 2.47D-14 2.08D-09 XBig12= 1.07D-08 1.11D-05.
     20 vectors produced by pass  7 Test12= 2.47D-14 2.08D-09 XBig12= 8.73D-11 8.88D-07.
      4 vectors produced by pass  8 Test12= 2.47D-14 2.08D-09 XBig12= 7.35D-13 6.86D-08.
      3 vectors produced by pass  9 Test12= 2.47D-14 2.08D-09 XBig12= 6.53D-15 5.94D-09.
      1 vectors produced by pass 10 Test12= 2.47D-14 2.08D-09 XBig12= 2.53D-16 2.59D-09.
 InvSVY:  IOpt=1 It=  1 EMax= 5.33D-15
 Solved reduced A of dimension   337 with    48 vectors.
 Isotropic polarizability for W=    0.000000       72.95 Bohr**3.
 End of Minotr F.D. properties file   721 does not exist.
 End of Minotr F.D. properties file   722 does not exist.
 End of Minotr F.D. properties file   788 does not exist.

 **********************************************************************

            Population analysis using the SCF density.

 **********************************************************************

 Orbital symmetries:
 Alpha Orbitals:
       Occupied  (A) (A) (A) (A) (A) (A) (A) (A) (A) (A) (A) (A)
                 (A) (A) (A) (A) (A) (A) (A) (A) (A) (A) (A) (A)
                 (A) (A) (A) (A) (A) (A) (A)
       Virtual   (A) (A) (A) (A) (A) (A) (A) (A) (A) (A) (A) (A)
                 (A) (A) (A) (A) (A) (A) (A) (A) (A) (A) (A) (A)
                 (A) (A) (A) (A) (A) (A) (A) (A) (A) (A) (A) (A)
                 (A) (A) (A) (A) (A) (A) (A) (A) (A) (A) (A) (A)
                 (A) (A) (A) (A) (A) (A) (A) (A) (A) (A) (A) (A)
                 (A) (A) (A) (A) (A) (A) (A) (A) (A) (A) (A) (A)
                 (A) (A) (A) (A) (A) (A) (A) (A) (A) (A) (A) (A)
                 (A) (A) (A) (A) (A) (A) (A) (A) (A) (A) (A) (A)
                 (A) (A) (A) (A) (A) (A) (A) (A) (A) (A) (A) (A)
                 (A) (A) (A) (A) (A) (A) (A) (A) (A) (A) (A) (A)
                 (A) (A) (A) (A) (A) (A) (A) (A) (A) (A) (A) (A)
                 (A) (A) (A) (A) (A) (A) (A) (A) (A) (A) (A) (A)
                 (A) (A) (A) (A) (A) (A) (A) (A) (A) (A) (A) (A)
                 (A) (A) (A) (A) (A) (A) (A) (A) (A) (A) (A) (A)
                 (A) (A) (A) (A) (A) (A) (A) (A) (A) (A) (A) (A)
                 (A) (A) (A) (A) (A) (A) (A) (A) (A) (A) (A) (A)
                 (A) (A)
 Beta  Orbitals:
       Occupied  (A) (A) (A) (A) (A) (A) (A) (A) (A) (A) (A) (A)
                 (A) (A) (A) (A) (A) (A) (A) (A) (A) (A) (A) (A)
                 (A) (A) (A) (A) (A) (A)
       Virtual   (A) (A) (A) (A) (A) (A) (A) (A) (A) (A) (A) (A)
                 (A) (A) (A) (A) (A) (A) (A) (A) (A) (A) (A) (A)
                 (A) (A) (A) (A) (A) (A) (A) (A) (A) (A) (A) (A)
                 (A) (A) (A) (A) (A) (A) (A) (A) (A) (A) (A) (A)
                 (A) (A) (A) (A) (A) (A) (A) (A) (A) (A) (A) (A)
                 (A) (A) (A) (A) (A) (A) (A) (A) (A) (A) (A) (A)
                 (A) (A) (A) (A) (A) (A) (A) (A) (A) (A) (A) (A)
                 (A) (A) (A) (A) (A) (A) (A) (A) (A) (A) (A) (A)
                 (A) (A) (A) (A) (A) (A) (A) (A) (A) (A) (A) (A)
                 (A) (A) (A) (A) (A) (A) (A) (A) (A) (A) (A) (A)
                 (A) (A) (A) (A) (A) (A) (A) (A) (A) (A) (A) (A)
                 (A) (A) (A) (A) (A) (A) (A) (A) (A) (A) (A) (A)
                 (A) (A) (A) (A) (A) (A) (A) (A) (A) (A) (A) (A)
                 (A) (A) (A) (A) (A) (A) (A) (A) (A) (A) (A) (A)
                 (A) (A) (A) (A) (A) (A) (A) (A) (A) (A) (A) (A)
                 (A) (A) (A) (A) (A) (A) (A) (A) (A) (A) (A) (A)
                 (A) (A) (A)
 The electronic state is 2-A.
 Alpha  occ. eigenvalues --  -19.68399 -19.64220 -19.63471 -10.70701 -10.62277
 Alpha  occ. eigenvalues --  -10.60648 -10.59666 -10.53618  -1.25922  -1.16696
 Alpha  occ. eigenvalues --   -1.10710  -0.91542  -0.87870  -0.78393  -0.71036
 Alpha  occ. eigenvalues --   -0.64868  -0.62460  -0.59016  -0.57358  -0.54042
 Alpha  occ. eigenvalues --   -0.53176  -0.49399  -0.48374  -0.46193  -0.45321
 Alpha  occ. eigenvalues --   -0.42072  -0.41369  -0.38703  -0.37936  -0.37383
 Alpha  occ. eigenvalues --   -0.31888
 Alpha virt. eigenvalues --   -0.00513  -0.00150   0.00423   0.01478   0.02252
 Alpha virt. eigenvalues --    0.02477   0.03127   0.04381   0.05517   0.05991
 Alpha virt. eigenvalues --    0.07061   0.07831   0.07956   0.10202   0.10307
 Alpha virt. eigenvalues --    0.10718   0.11382   0.12317   0.13054   0.13522
 Alpha virt. eigenvalues --    0.13737   0.13953   0.14726   0.15250   0.15484
 Alpha virt. eigenvalues --    0.17198   0.17478   0.18051   0.19415   0.19983
 Alpha virt. eigenvalues --    0.20762   0.21703   0.23184   0.23576   0.24718
 Alpha virt. eigenvalues --    0.25832   0.26695   0.28082   0.29649   0.30826
 Alpha virt. eigenvalues --    0.31687   0.32374   0.32581   0.34059   0.34560
 Alpha virt. eigenvalues --    0.35091   0.36259   0.37083   0.37871   0.40131
 Alpha virt. eigenvalues --    0.41106   0.42787   0.44471   0.46811   0.49313
 Alpha virt. eigenvalues --    0.49975   0.52458   0.54303   0.55358   0.57604
 Alpha virt. eigenvalues --    0.58101   0.60633   0.62856   0.65704   0.66805
 Alpha virt. eigenvalues --    0.67681   0.69144   0.70378   0.70751   0.72370
 Alpha virt. eigenvalues --    0.73454   0.75201   0.77923   0.78381   0.79963
 Alpha virt. eigenvalues --    0.83574   0.85735   0.90161   0.93637   0.97368
 Alpha virt. eigenvalues --    0.98384   1.02270   1.05755   1.07434   1.12523
 Alpha virt. eigenvalues --    1.16153   1.18361   1.20614   1.21866   1.23984
 Alpha virt. eigenvalues --    1.24849   1.28011   1.31597   1.31758   1.33606
 Alpha virt. eigenvalues --    1.35342   1.36511   1.38087   1.43036   1.45702
 Alpha virt. eigenvalues --    1.47858   1.50632   1.52449   1.52672   1.57637
 Alpha virt. eigenvalues --    1.58962   1.59894   1.61255   1.62332   1.64874
 Alpha virt. eigenvalues --    1.66067   1.67263   1.70507   1.71515   1.74628
 Alpha virt. eigenvalues --    1.75632   1.80823   1.84046   1.86778   1.87825
 Alpha virt. eigenvalues --    1.90700   1.94667   1.98956   2.03802   2.06463
 Alpha virt. eigenvalues --    2.09932   2.13355   2.14081   2.20603   2.27390
 Alpha virt. eigenvalues --    2.31077   2.35173   2.40921   2.50926   2.51690
 Alpha virt. eigenvalues --    2.54178   2.56131   2.60096   2.61617   2.63639
 Alpha virt. eigenvalues --    2.64994   2.66659   2.70855   2.72751   2.74314
 Alpha virt. eigenvalues --    2.78409   2.80586   2.83235   2.87427   2.90882
 Alpha virt. eigenvalues --    2.94624   2.96399   2.98407   3.01224   3.08310
 Alpha virt. eigenvalues --    3.09877   3.15660   3.17368   3.21117   3.21522
 Alpha virt. eigenvalues --    3.26484   3.30299   3.33501   3.36415   3.45598
 Alpha virt. eigenvalues --    3.46074   3.53523   3.64645   3.74988   3.85622
 Alpha virt. eigenvalues --    3.86006   3.89814   3.91733   4.02361   4.09553
 Alpha virt. eigenvalues --    4.18210   4.28041   5.14180   5.17142   5.20177
 Alpha virt. eigenvalues --    5.22683   5.31754   5.47560   5.60913   5.72691
 Alpha virt. eigenvalues --    5.94601  23.58008  23.92241  23.94131  24.05806
 Alpha virt. eigenvalues --   24.82341  49.98859  50.01814  50.10619
  Beta  occ. eigenvalues --  -19.68400 -19.63487 -19.63330 -10.70654 -10.62427
  Beta  occ. eigenvalues --  -10.60647 -10.59170 -10.53618  -1.25908  -1.16722
  Beta  occ. eigenvalues --   -1.07542  -0.90434  -0.86995  -0.77864  -0.70396
  Beta  occ. eigenvalues --   -0.64660  -0.61679  -0.58909  -0.57063  -0.53492
  Beta  occ. eigenvalues --   -0.52015  -0.48985  -0.46760  -0.45303  -0.42626
  Beta  occ. eigenvalues --   -0.41982  -0.39565  -0.38636  -0.36625  -0.36228
  Beta virt. eigenvalues --   -0.09460  -0.00448   0.00427   0.00939   0.01735
  Beta virt. eigenvalues --    0.02371   0.02825   0.03144   0.04552   0.05551
  Beta virt. eigenvalues --    0.05911   0.07131   0.07638   0.07977   0.10326
  Beta virt. eigenvalues --    0.10602   0.10821   0.11692   0.12328   0.13026
  Beta virt. eigenvalues --    0.13250   0.13760   0.14148   0.15231   0.15467
  Beta virt. eigenvalues --    0.15594   0.17075   0.17312   0.18050   0.19900
  Beta virt. eigenvalues --    0.20359   0.20715   0.21635   0.23488   0.23588
  Beta virt. eigenvalues --    0.24872   0.25654   0.26853   0.27898   0.29812
  Beta virt. eigenvalues --    0.30746   0.31581   0.32392   0.32676   0.34043
  Beta virt. eigenvalues --    0.34571   0.35085   0.36284   0.37066   0.37904
  Beta virt. eigenvalues --    0.40136   0.41226   0.42756   0.44489   0.46841
  Beta virt. eigenvalues --    0.49391   0.50081   0.52459   0.54361   0.55615
  Beta virt. eigenvalues --    0.57957   0.58579   0.61039   0.63014   0.65716
  Beta virt. eigenvalues --    0.66630   0.68113   0.69011   0.70456   0.70742
  Beta virt. eigenvalues --    0.72226   0.73465   0.75149   0.77756   0.78275
  Beta virt. eigenvalues --    0.80030   0.83551   0.85765   0.90507   0.93785
  Beta virt. eigenvalues --    0.97364   0.98477   1.02578   1.05959   1.07509
  Beta virt. eigenvalues --    1.13205   1.16980   1.18587   1.20988   1.22375
  Beta virt. eigenvalues --    1.24455   1.25307   1.28973   1.32206   1.32983
  Beta virt. eigenvalues --    1.35089   1.35550   1.36826   1.38356   1.43708
  Beta virt. eigenvalues --    1.46839   1.48331   1.50824   1.52783   1.53862
  Beta virt. eigenvalues --    1.57726   1.59233   1.59992   1.61316   1.62445
  Beta virt. eigenvalues --    1.64944   1.66256   1.67452   1.70508   1.71610
  Beta virt. eigenvalues --    1.74727   1.75701   1.80951   1.84266   1.87000
  Beta virt. eigenvalues --    1.88049   1.90862   1.95118   1.99003   2.03937
  Beta virt. eigenvalues --    2.06930   2.10202   2.13646   2.14284   2.20657
  Beta virt. eigenvalues --    2.27582   2.31122   2.35210   2.41132   2.51519
  Beta virt. eigenvalues --    2.51760   2.54191   2.56262   2.60377   2.61778
  Beta virt. eigenvalues --    2.64099   2.65531   2.66732   2.71215   2.72958
  Beta virt. eigenvalues --    2.74448   2.79741   2.80899   2.84103   2.89993
  Beta virt. eigenvalues --    2.90977   2.94766   2.96486   2.98457   3.01174
  Beta virt. eigenvalues --    3.10113   3.11424   3.16013   3.20010   3.22378
  Beta virt. eigenvalues --    3.24340   3.26576   3.30344   3.34083   3.36332
  Beta virt. eigenvalues --    3.45820   3.47342   3.53129   3.64611   3.74932
  Beta virt. eigenvalues --    3.85626   3.86023   3.90114   3.93258   4.02361
  Beta virt. eigenvalues --    4.09417   4.18079   4.28039   5.14806   5.17524
  Beta virt. eigenvalues --    5.23715   5.24063   5.31783   5.47542   5.62612
  Beta virt. eigenvalues --    5.72704   5.94590  23.58116  23.92247  23.94136
  Beta virt. eigenvalues --   24.05806  24.83085  49.98520  50.01473  50.10635
          Condensed to atoms (all electrons):
               1          2          3          4          5          6
     1  C   14.007474   0.599689  -3.333512  -4.817271  -0.041739  -0.024362
     2  H    0.599689   0.422455  -0.163471  -0.068671  -0.001456  -0.001586
     3  C   -3.333512  -0.163471  10.879298  -1.823760   0.118994  -0.196061
     4  C   -4.817271  -0.068671  -1.823760  12.893230   0.357391   0.061853
     5  O   -0.041739  -0.001456   0.118994   0.357391   7.945113  -0.158798
     6  O   -0.024362  -0.001586  -0.196061   0.061853  -0.158798   8.296107
     7  C   -0.072363  -0.000770  -0.223509   0.165666   0.055265   0.137598
     8  C    0.076380   0.000091   0.161439  -0.305563  -0.074882  -0.041374
     9  H    0.002448   0.000079   0.002566   0.000471   0.007111  -0.090378
    10  H   -0.029141  -0.000189  -0.076420   0.102901  -0.018650  -0.016559
    11  H    0.003026   0.000041   0.014871  -0.011114  -0.002569   0.016835
    12  H   -0.006022   0.000019  -0.026282   0.033168   0.000465  -0.000358
    13  H    0.001678  -0.000253   0.012125  -0.042246   0.008016  -0.018661
    14  O   -0.336093  -0.007382   0.452691  -0.200679  -0.002455   0.037233
    15  H   -0.080639  -0.003526   0.110397  -0.012719   0.000333  -0.003933
               7          8          9         10         11         12
     1  C   -0.072363   0.076380   0.002448  -0.029141   0.003026  -0.006022
     2  H   -0.000770   0.000091   0.000079  -0.000189   0.000041   0.000019
     3  C   -0.223509   0.161439   0.002566  -0.076420   0.014871  -0.026282
     4  C    0.165666  -0.305563   0.000471   0.102901  -0.011114   0.033168
     5  O    0.055265  -0.074882   0.007111  -0.018650  -0.002569   0.000465
     6  O    0.137598  -0.041374  -0.090378  -0.016559   0.016835  -0.000358
     7  C    5.453023   0.009582   0.448015   0.410537  -0.057865  -0.032161
     8  C    0.009582   5.475628  -0.064580  -0.036776   0.407525   0.413196
     9  H    0.448015  -0.064580   0.539928  -0.038964   0.000231  -0.011904
    10  H    0.410537  -0.036776  -0.038964   0.525036  -0.006505   0.006964
    11  H   -0.057865   0.407525   0.000231  -0.006505   0.538418  -0.036036
    12  H   -0.032161   0.413196  -0.011904   0.006964  -0.036036   0.544514
    13  H    0.004620   0.377777   0.012083  -0.011963  -0.034869  -0.045403
    14  O   -0.014747   0.023408   0.000703  -0.002481   0.001692  -0.002661
    15  H    0.000812   0.002448   0.000488  -0.000693   0.000191  -0.001312
              13         14         15
     1  C    0.001678  -0.336093  -0.080639
     2  H   -0.000253  -0.007382  -0.003526
     3  C    0.012125   0.452691   0.110397
     4  C   -0.042246  -0.200679  -0.012719
     5  O    0.008016  -0.002455   0.000333
     6  O   -0.018661   0.037233  -0.003933
     7  C    0.004620  -0.014747   0.000812
     8  C    0.377777   0.023408   0.002448
     9  H    0.012083   0.000703   0.000488
    10  H   -0.011963  -0.002481  -0.000693
    11  H   -0.034869   0.001692   0.000191
    12  H   -0.045403  -0.002661  -0.001312
    13  H    0.541231  -0.000992   0.001085
    14  O   -0.000992   8.080673   0.247750
    15  H    0.001085   0.247750   0.508634
          Atomic-Atomic Spin Densities.
               1          2          3          4          5          6
     1  C    1.717155   0.059984  -0.559472  -0.035308   0.000654  -0.027898
     2  H    0.059984  -0.017943  -0.050786  -0.013137   0.000016  -0.000763
     3  C   -0.559472  -0.050786   0.038337   0.233464  -0.007455   0.001682
     4  C   -0.035308  -0.013137   0.233464  -0.285118   0.009363   0.014008
     5  O    0.000654   0.000016  -0.007455   0.009363  -0.011460   0.000259
     6  O   -0.027898  -0.000763   0.001682   0.014008   0.000259   0.003827
     7  C   -0.019850  -0.000486  -0.005513   0.006905  -0.001089   0.004568
     8  C    0.022300   0.000272   0.013229  -0.018707   0.001656  -0.005654
     9  H   -0.000741  -0.000024  -0.002257   0.001345  -0.000035   0.000160
    10  H    0.001267   0.000006   0.003908  -0.005815  -0.000072   0.000750
    11  H    0.000700   0.000008   0.000290  -0.000019   0.000069  -0.000335
    12  H   -0.002622  -0.000038  -0.001749   0.002729  -0.000040   0.000590
    13  H   -0.007394  -0.000082  -0.011992   0.013003  -0.000561   0.001104
    14  O   -0.313860  -0.004805   0.011882   0.148718   0.001408   0.008078
    15  H    0.038598   0.000876  -0.008077  -0.017234  -0.000125  -0.001247
               7          8          9         10         11         12
     1  C   -0.019850   0.022300  -0.000741   0.001267   0.000700  -0.002622
     2  H   -0.000486   0.000272  -0.000024   0.000006   0.000008  -0.000038
     3  C   -0.005513   0.013229  -0.002257   0.003908   0.000290  -0.001749
     4  C    0.006905  -0.018707   0.001345  -0.005815  -0.000019   0.002729
     5  O   -0.001089   0.001656  -0.000035  -0.000072   0.000069  -0.000040
     6  O    0.004568  -0.005654   0.000160   0.000750  -0.000335   0.000590
     7  C    0.012604  -0.009244   0.001185  -0.000364  -0.000832   0.001355
     8  C   -0.009244   0.006145  -0.000930   0.000177   0.000968  -0.001686
     9  H    0.001185  -0.000930   0.000585   0.000153  -0.000150   0.000109
    10  H   -0.000364   0.000177   0.000153  -0.000616   0.000154  -0.000011
    11  H   -0.000832   0.000968  -0.000150   0.000154  -0.000122  -0.000160
    12  H    0.001355  -0.001686   0.000109  -0.000011  -0.000160   0.000606
    13  H    0.004968  -0.003786   0.000548   0.000162  -0.000510   0.000466
    14  O    0.008655  -0.003617   0.000545   0.000132  -0.000145   0.000235
    15  H   -0.001607   0.000881  -0.000201   0.000055   0.000031  -0.000176
              13         14         15
     1  C   -0.007394  -0.313860   0.038598
     2  H   -0.000082  -0.004805   0.000876
     3  C   -0.011992   0.011882  -0.008077
     4  C    0.013003   0.148718  -0.017234
     5  O   -0.000561   0.001408  -0.000125
     6  O    0.001104   0.008078  -0.001247
     7  C    0.004968   0.008655  -0.001607
     8  C   -0.003786  -0.003617   0.000881
     9  H    0.000548   0.000545  -0.000201
    10  H    0.000162   0.000132   0.000055
    11  H   -0.000510  -0.000145   0.000031
    12  H    0.000466   0.000235  -0.000176
    13  H    0.002142   0.001208  -0.000530
    14  O    0.001208   0.597033  -0.000156
    15  H   -0.000530  -0.000156  -0.016163
 Mulliken charges and spin densities:
               1          2
     1  C    0.050447   0.873512
     2  H    0.224930  -0.026903
     3  C    0.090635  -0.344508
     4  C   -0.332657   0.054196
     5  O   -0.192138  -0.007412
     6  O    0.002443  -0.000871
     7  C   -0.283701   0.001257
     8  C   -0.424300   0.002005
     9  H    0.191703   0.000291
    10  H    0.192903  -0.000112
    11  H    0.166127  -0.000051
    12  H    0.163813  -0.000389
    13  H    0.195772  -0.001253
    14  O   -0.276659   0.455315
    15  H    0.230684  -0.005075
 Sum of Mulliken charges =  -0.00000   1.00000
 Mulliken charges and spin densities with hydrogens summed into heavy atoms:
               1          2
     1  C    0.275376   0.846609
     3  C    0.090635  -0.344508
     4  C   -0.332657   0.054196
     5  O   -0.192138  -0.007412
     6  O    0.002443  -0.000871
     7  C    0.100905   0.001436
     8  C    0.101411   0.000311
    14  O   -0.045975   0.450240
 APT charges:
               1
     1  C   -0.171958
     2  H    0.241656
     3  C   -0.116741
     4  C    1.391108
     5  O   -0.756789
     6  O   -0.945677
     7  C    0.535450
     8  C   -0.042367
     9  H   -0.014941
    10  H   -0.011037
    11  H    0.011095
    12  H    0.012342
    13  H    0.031055
    14  O   -0.395155
    15  H    0.231960
 Sum of APT charges =   0.00000
 APT charges with hydrogens summed into heavy atoms:
               1
     1  C    0.069698
     3  C   -0.116741
     4  C    1.391108
     5  O   -0.756789
     6  O   -0.945677
     7  C    0.509471
     8  C    0.012125
    14  O   -0.163195
 Electronic spatial extent (au):  <R**2>=           1059.4734
 Charge=             -0.0000 electrons
 Dipole moment (field-independent basis, Debye):
    X=              0.0347    Y=              0.0783    Z=             -3.1979  Tot=              3.1990
 Quadrupole moment (field-independent basis, Debye-Ang):
   XX=            -32.7733   YY=            -49.0925   ZZ=            -51.2224
   XY=              2.1098   XZ=              3.5462   YZ=             -0.4013
 Traceless Quadrupole moment (field-independent basis, Debye-Ang):
   XX=             11.5894   YY=             -4.7297   ZZ=             -6.8597
   XY=              2.1098   XZ=              3.5462   YZ=             -0.4013
 Octapole moment (field-independent basis, Debye-Ang**2):
  XXX=            -27.2123  YYY=              7.9324  ZZZ=             -1.0008  XYY=              1.8804
  XXY=             -7.7394  XXZ=            -15.4675  XZZ=              3.6528  YZZ=              3.9514
  YYZ=            -10.0673  XYZ=              5.0962
 Hexadecapole moment (field-independent basis, Debye-Ang**3):
 XXXX=           -762.7491 YYYY=           -249.1697 ZZZZ=           -165.6069 XXXY=             16.5320
 XXXZ=             36.2638 YYYX=            -17.9830 YYYZ=            -11.8328 ZZZX=             -7.4811
 ZZZY=             -0.2114 XXYY=           -210.6042 XXZZ=           -189.1059 YYZZ=            -76.4414
 XXYZ=             -4.8045 YYXZ=              8.5493 ZZXY=             -2.7991
 N-N= 3.639731676368D+02 E-N=-1.712505347118D+03  KE= 4.186926763279D+02
  Exact polarizability:  88.967   6.701  71.371   5.040   1.474  58.512
 Approx polarizability:  92.560   8.227  84.313   8.367  -0.841  75.609
                          Isotropic Fermi Contact Couplings
        Atom                 a.u.       MegaHertz       Gauss      10(-4) cm-1
     1  C(13)              0.11234     126.28930      45.06316      42.12557
     2  H(1)              -0.01231     -55.00445     -19.62695     -18.34751
     3  C(13)             -0.01905     -21.41747      -7.64229      -7.14410
     4  C(13)              0.03119      35.06831      12.51325      11.69753
     5  O(17)             -0.00323       1.95622       0.69803       0.65253
     6  O(17)              0.00260      -1.57870      -0.56332      -0.52660
     7  C(13)              0.00005       0.05965       0.02128       0.01990
     8  C(13)             -0.00058      -0.65418      -0.23343      -0.21821
     9  H(1)               0.00005       0.23336       0.08327       0.07784
    10  H(1)              -0.00004      -0.16984      -0.06060      -0.05665
    11  H(1)              -0.00001      -0.06463      -0.02306      -0.02156
    12  H(1)               0.00002       0.09069       0.03236       0.03025
    13  H(1)               0.00001       0.05963       0.02128       0.01989
    14  O(17)              0.10110     -61.28762     -21.86895     -20.44335
    15  H(1)              -0.00788     -35.22019     -12.56744     -11.74819
 --------------------------------------------------------
       Center         ----  Spin Dipole Couplings  ----
                      3XX-RR        3YY-RR        3ZZ-RR
 --------------------------------------------------------
     1   Atom       -0.435293      0.697323     -0.262030
     2   Atom        0.057028     -0.012168     -0.044860
     3   Atom        0.140996     -0.065566     -0.075431
     4   Atom        0.019988      0.001545     -0.021533
     5   Atom        0.013937     -0.016102      0.002166
     6   Atom        0.007181     -0.017131      0.009950
     7   Atom        0.003262     -0.001220     -0.002042
     8   Atom        0.002266     -0.001098     -0.001168
     9   Atom        0.001367     -0.000796     -0.000572
    10   Atom        0.001536     -0.000364     -0.001173
    11   Atom        0.001285     -0.000608     -0.000677
    12   Atom        0.002777     -0.001332     -0.001445
    13   Atom        0.002521     -0.001210     -0.001311
    14   Atom       -0.608279      1.191977     -0.583698
    15   Atom       -0.059941      0.000733      0.059209
 --------------------------------------------------------
                        XY            XZ            YZ
 --------------------------------------------------------
     1   Atom       -0.153368     -0.065207      0.221575
     2   Atom        0.002985      0.022553      0.010606
     3   Atom       -0.017238      0.045232      0.002016
     4   Atom       -0.019490      0.005267      0.002530
     5   Atom       -0.058055     -0.029245     -0.019899
     6   Atom       -0.011697     -0.014089      0.003453
     7   Atom       -0.002099     -0.000691      0.000289
     8   Atom       -0.000691     -0.000065      0.000096
     9   Atom       -0.000412     -0.000831      0.000191
    10   Atom       -0.000897     -0.000102      0.000050
    11   Atom       -0.000106      0.000115      0.000040
    12   Atom        0.000442     -0.000419      0.000071
    13   Atom       -0.000660      0.001180     -0.000080
    14   Atom        0.865414      0.360458      0.915795
    15   Atom        0.011659      0.014103     -0.051909
 --------------------------------------------------------


 ---------------------------------------------------------------------------------
              Anisotropic Spin Dipole Couplings in Principal Axis System
 ---------------------------------------------------------------------------------

       Atom             a.u.   MegaHertz   Gauss  10(-4) cm-1        Axes

              Baa    -0.4637   -62.219   -22.201   -20.754  0.9718  0.0866  0.2192
     1 C(13)  Bbb    -0.3047   -40.884   -14.589   -13.638 -0.1932 -0.2399  0.9514
              Bcc     0.7683   103.103    36.790    34.391 -0.1349  0.9669  0.2165
 
              Baa    -0.0520   -27.762    -9.906    -9.260 -0.1904 -0.2391  0.9522
     2 H(1)   Bbb    -0.0101    -5.400    -1.927    -1.801 -0.1169  0.9685  0.2198
              Bcc     0.0622    33.162    11.833    11.062  0.9747  0.0694  0.2123
 
              Baa    -0.0860   -11.540    -4.118    -3.849 -0.2078 -0.2682  0.9407
     3 C(13)  Bbb    -0.0653    -8.766    -3.128    -2.924  0.0193  0.9604  0.2780
              Bcc     0.1513    20.306     7.246     6.774  0.9780 -0.0759  0.1944
 
              Baa    -0.0236    -3.169    -1.131    -1.057 -0.2361 -0.2765  0.9316
     4 C(13)  Bbb    -0.0089    -1.193    -0.426    -0.398  0.4763  0.8027  0.3590
              Bcc     0.0325     4.362     1.557     1.455  0.8470 -0.5284  0.0578
 
              Baa    -0.0757     5.481     1.956     1.828  0.5864  0.7043  0.4000
     5 O(17)  Bbb     0.0145    -1.046    -0.373    -0.349 -0.0695 -0.4483  0.8912
              Bcc     0.0613    -4.435    -1.582    -1.479  0.8070 -0.5504 -0.2140
 
              Baa    -0.0220     1.593     0.568     0.531  0.4036  0.9115  0.0794
     6 O(17)  Bbb    -0.0033     0.242     0.086     0.081  0.6037 -0.3305  0.7255
              Bcc     0.0254    -1.835    -0.655    -0.612  0.6875 -0.2448 -0.6836
 
              Baa    -0.0021    -0.286    -0.102    -0.096  0.0480 -0.1989  0.9789
     7 C(13)  Bbb    -0.0020    -0.275    -0.098    -0.092  0.3811  0.9095  0.1661
              Bcc     0.0042     0.561     0.200     0.187  0.9233 -0.3651 -0.1195
 
              Baa    -0.0013    -0.173    -0.062    -0.058  0.1478  0.8140 -0.5617
     8 C(13)  Bbb    -0.0011    -0.149    -0.053    -0.050  0.1277  0.5475  0.8270
              Bcc     0.0024     0.323     0.115     0.108  0.9807 -0.1940 -0.0230
 
              Baa    -0.0009    -0.487    -0.174    -0.162  0.1377 -0.6831  0.7172
     9 H(1)   Bbb    -0.0008    -0.449    -0.160    -0.150  0.3603  0.7090  0.6062
              Bcc     0.0018     0.936     0.334     0.312  0.9226 -0.1749 -0.3437
 
              Baa    -0.0012    -0.628    -0.224    -0.210  0.0270 -0.0319  0.9991
    10 H(1)   Bbb    -0.0007    -0.384    -0.137    -0.128  0.3702  0.9287  0.0197
              Bcc     0.0019     1.012     0.361     0.338  0.9285 -0.3694 -0.0369
 
              Baa    -0.0007    -0.377    -0.134    -0.126 -0.0755 -0.4437  0.8930
    11 H(1)   Bbb    -0.0006    -0.315    -0.112    -0.105  0.0233  0.8945  0.4464
              Bcc     0.0013     0.692     0.247     0.231  0.9969 -0.0545  0.0572
 
              Baa    -0.0016    -0.831    -0.296    -0.277  0.1348 -0.5272  0.8390
    12 H(1)   Bbb    -0.0013    -0.697    -0.249    -0.232 -0.0362  0.8435  0.5359
              Bcc     0.0029     1.528     0.545     0.510  0.9902  0.1026 -0.0946
 
              Baa    -0.0017    -0.893    -0.319    -0.298 -0.2997 -0.2680  0.9156
    13 H(1)   Bbb    -0.0013    -0.686    -0.245    -0.229  0.0713  0.9508  0.3016
              Bcc     0.0030     1.579     0.563     0.527  0.9514 -0.1557  0.2658
 
              Baa    -0.9728    70.393    25.118    23.481  0.2577 -0.4620  0.8486
    14 O(17)  Bbb    -0.9536    68.999    24.620    23.015  0.9018 -0.2003 -0.3830
              Bcc     1.9264  -139.392   -49.738   -46.496  0.3469  0.8640  0.3650
 
              Baa    -0.0679   -36.230   -12.928   -12.085  0.9118 -0.3348 -0.2379
    15 H(1)   Bbb    -0.0219   -11.692    -4.172    -3.900  0.4085  0.7994  0.4405
              Bcc     0.0898    47.922    17.100    15.985  0.0427 -0.4988  0.8656
 

 ---------------------------------------------------------------------------------

 Calling FoFJK, ICntrl=    100127 FMM=F ISym2X=0 I1Cent= 0 IOpClX= 1 NMat=1 NMatS=1 NMatT=0.
 Full mass-weighted force constant matrix:
 Low frequencies --- -670.7229  -22.5868   -0.0004    0.0011    0.0012   16.8289
 Low frequencies ---   31.3589   78.2494   93.2868
 ******    1 imaginary frequencies (negative Signs) ****** 
 Diagonal vibrational polarizability:
      383.0718141      34.7324434      21.9720877
 Harmonic frequencies (cm**-1), IR intensities (KM/Mole), Raman scattering
 activities (A**4/AMU), depolarization ratios for plane and unpolarized
 incident light, reduced masses (AMU), force constants (mDyne/A),
 and normal coordinates:
                      1                      2                      3
                      A                      A                      A
 Frequencies --   -670.7229                56.5891                82.2806
 Red. masses --     11.7689                 1.8073                 3.4190
 Frc consts  --      3.1194                 0.0034                 0.0136
 IR Inten    --      1.7483                34.0367                 3.0752
  Atom  AN      X      Y      Z        X      Y      Z        X      Y      Z
     1   6     0.06  -0.14  -0.01    -0.04  -0.00   0.13     0.01   0.14  -0.04
     2   1     0.01   0.27   0.07    -0.06   0.10   0.22     0.00   0.27  -0.06
     3   6     0.04   0.77   0.22    -0.00  -0.02   0.01     0.02   0.01   0.00
     4   6    -0.02   0.02   0.00    -0.01  -0.03  -0.00    -0.01  -0.10  -0.01
     5   8    -0.02  -0.02  -0.02    -0.00  -0.11  -0.06    -0.04  -0.10  -0.01
     6   8     0.00  -0.01  -0.00    -0.00   0.06   0.03     0.01  -0.15  -0.02
     7   6     0.00  -0.01  -0.00    -0.00   0.05   0.01     0.01   0.00   0.07
     8   6    -0.00  -0.00  -0.00     0.00   0.02   0.04    -0.17   0.23  -0.08
     9   1     0.00  -0.00  -0.00    -0.01   0.07   0.01     0.06  -0.13   0.08
    10   1     0.01  -0.00  -0.00    -0.00   0.04  -0.02     0.08   0.09   0.27
    11   1    -0.00  -0.00   0.00     0.00   0.00   0.05    -0.18   0.34   0.06
    12   1    -0.00  -0.00  -0.00     0.02   0.03   0.06    -0.22   0.13  -0.30
    13   1    -0.00  -0.00  -0.00    -0.01   0.00   0.03    -0.28   0.39  -0.11
    14   8    -0.04  -0.46  -0.14    -0.01   0.03  -0.12     0.16  -0.03   0.07
    15   1     0.04  -0.16   0.03     0.88  -0.12  -0.29     0.22   0.01   0.09
                      4                      5                      6
                      A                      A                      A
 Frequencies --    102.6590               132.8936               187.8680
 Red. masses --      2.6316                 2.1344                 1.7954
 Frc consts  --      0.0163                 0.0222                 0.0373
 IR Inten    --     25.3134                21.1784                 4.9917
  Atom  AN      X      Y      Z        X      Y      Z        X      Y      Z
     1   6    -0.02  -0.01   0.17     0.03   0.03  -0.10    -0.03  -0.03   0.08
     2   1    -0.05  -0.05   0.30     0.04   0.13  -0.16    -0.06  -0.03   0.21
     3   6     0.02   0.02  -0.01     0.01  -0.02   0.02    -0.00   0.00  -0.05
     4   6     0.02  -0.01  -0.06     0.01   0.01   0.03     0.01   0.04  -0.09
     5   8     0.03   0.03  -0.04     0.08   0.14   0.08     0.01   0.10  -0.04
     6   8     0.01  -0.07  -0.09    -0.04  -0.07  -0.06     0.05  -0.01  -0.09
     7   6     0.01   0.04  -0.02    -0.03   0.02  -0.08     0.03  -0.06   0.05
     8   6    -0.15  -0.04   0.17    -0.10  -0.06   0.05    -0.02  -0.01   0.03
     9   1     0.07   0.22   0.02    -0.05   0.19  -0.08     0.13  -0.16   0.08
    10   1     0.09   0.00  -0.15     0.05  -0.01  -0.22    -0.06  -0.03   0.15
    11   1    -0.14   0.09   0.17    -0.08   0.05  -0.03    -0.08  -0.29   0.44
    12   1    -0.28  -0.01   0.32    -0.23  -0.03   0.22     0.40  -0.02  -0.23
    13   1    -0.16  -0.25   0.14    -0.03  -0.26   0.07    -0.39   0.29  -0.12
    14   8     0.12   0.03  -0.10    -0.00  -0.04   0.06    -0.06  -0.03   0.08
    15   1    -0.58   0.06  -0.01     0.76  -0.09  -0.04     0.26   0.01   0.06
                      7                      8                      9
                      A                      A                      A
 Frequencies --    233.7091               239.6711               284.2142
 Red. masses --      2.2153                 4.5067                 2.1523
 Frc consts  --      0.0713                 0.1525                 0.1024
 IR Inten    --     11.7409                 1.9060                11.9643
  Atom  AN      X      Y      Z        X      Y      Z        X      Y      Z
     1   6    -0.00  -0.02  -0.06     0.17  -0.01  -0.06    -0.06   0.19   0.00
     2   1     0.03  -0.08  -0.19     0.23  -0.16  -0.27    -0.12   0.81   0.12
     3   6    -0.02  -0.05   0.04     0.08   0.12   0.16     0.00  -0.07   0.01
     4   6    -0.02  -0.01   0.06     0.06  -0.02   0.08     0.03  -0.06   0.02
     5   8     0.04  -0.00   0.03     0.13  -0.16  -0.03     0.08  -0.01   0.03
     6   8    -0.09   0.09   0.05    -0.02  -0.07  -0.01     0.01  -0.03   0.01
     7   6    -0.09   0.07  -0.05    -0.02  -0.05  -0.06     0.03   0.04  -0.02
     8   6    -0.02  -0.02   0.01    -0.14  -0.04   0.00     0.05   0.01   0.01
     9   1    -0.13   0.13  -0.06    -0.02   0.02  -0.05    -0.00   0.11  -0.03
    10   1    -0.08   0.04  -0.12     0.03  -0.05  -0.10     0.09   0.03  -0.08
    11   1    -0.09  -0.41   0.39    -0.19  -0.19   0.39     0.03  -0.12   0.11
    12   1     0.48   0.03  -0.14     0.12  -0.04  -0.15     0.19   0.03  -0.00
    13   1    -0.38   0.22  -0.13    -0.48   0.11  -0.14    -0.04   0.05  -0.02
    14   8     0.18  -0.05  -0.06    -0.20   0.24  -0.02    -0.13  -0.08  -0.06
    15   1    -0.12  -0.07  -0.04    -0.15   0.09  -0.09    -0.34  -0.10  -0.05
                     10                     11                     12
                      A                      A                      A
 Frequencies --    341.3567               417.8781               442.2075
 Red. masses --      3.0968                 1.7401                 3.3950
 Frc consts  --      0.2126                 0.1790                 0.3912
 IR Inten    --     12.5351                23.7363                 9.6923
  Atom  AN      X      Y      Z        X      Y      Z        X      Y      Z
     1   6    -0.01   0.04  -0.03     0.07  -0.18  -0.03     0.01   0.16   0.06
     2   1    -0.01   0.18  -0.09    -0.05   0.89   0.29     0.05  -0.46   0.02
     3   6    -0.02  -0.05   0.07     0.04  -0.01  -0.04     0.08  -0.03  -0.10
     4   6     0.02   0.04  -0.02     0.01   0.02   0.01     0.07   0.05   0.05
     5   8     0.21   0.03  -0.10    -0.06   0.00   0.02    -0.06  -0.01   0.06
     6   8    -0.04   0.15  -0.01     0.01   0.06   0.04     0.10   0.15   0.13
     7   6    -0.10  -0.15   0.15    -0.00  -0.03  -0.04     0.08  -0.10  -0.12
     8   6    -0.09  -0.03   0.00    -0.06  -0.02  -0.03    -0.16  -0.07  -0.08
     9   1     0.06  -0.45   0.20    -0.02  -0.03  -0.04     0.00  -0.06  -0.15
    10   1    -0.37  -0.10   0.40    -0.03  -0.04  -0.04     0.03  -0.13  -0.17
    11   1    -0.05   0.19  -0.20    -0.06   0.06   0.04    -0.16   0.24   0.20
    12   1    -0.35  -0.11  -0.04    -0.12  -0.04  -0.05    -0.36  -0.14  -0.16
    13   1     0.11  -0.03   0.09    -0.12  -0.05  -0.06    -0.40  -0.15  -0.20
    14   8     0.02  -0.04  -0.04     0.03   0.05   0.02    -0.04  -0.11  -0.02
    15   1    -0.08  -0.08  -0.05    -0.03   0.08   0.04    -0.01  -0.04   0.01
                     13                     14                     15
                      A                      A                      A
 Frequencies --    577.0298               606.2285               706.7092
 Red. masses --      4.4082                 5.3902                 1.3287
 Frc consts  --      0.8648                 1.1672                 0.3910
 IR Inten    --      2.4141                11.8948                40.3346
  Atom  AN      X      Y      Z        X      Y      Z        X      Y      Z
     1   6    -0.20  -0.08  -0.08     0.22   0.08   0.05     0.03   0.04  -0.14
     2   1    -0.15   0.16  -0.42     0.31   0.17  -0.34    -0.19  -0.25   0.93
     3   6    -0.26  -0.04   0.27     0.14  -0.18   0.33    -0.02  -0.02   0.08
     4   6    -0.03   0.08  -0.01     0.04   0.07  -0.09     0.00  -0.01  -0.01
     5   8     0.00   0.02  -0.07    -0.28   0.03  -0.00    -0.01   0.00   0.00
     6   8     0.13   0.01   0.03    -0.00   0.07  -0.18    -0.00   0.00   0.00
     7   6     0.25  -0.06  -0.06    -0.02   0.03  -0.00     0.01  -0.00  -0.00
     8   6     0.01   0.00  -0.01     0.01   0.00   0.02     0.00   0.00   0.00
     9   1     0.15   0.06  -0.10     0.15  -0.14   0.05     0.00   0.00  -0.00
    10   1     0.30  -0.09  -0.16    -0.18   0.05   0.14     0.01  -0.00  -0.00
    11   1     0.01   0.30   0.27     0.01  -0.06  -0.05     0.00   0.01   0.01
    12   1    -0.18  -0.07  -0.08     0.04   0.04   0.09    -0.00  -0.00   0.00
    13   1    -0.22  -0.08  -0.12     0.06  -0.04   0.04    -0.00  -0.00  -0.00
    14   8     0.05   0.04  -0.00    -0.02  -0.07  -0.03     0.00   0.01  -0.00
    15   1     0.02  -0.16  -0.10    -0.08  -0.48  -0.23    -0.01  -0.10  -0.05
                     16                     17                     18
                      A                      A                      A
 Frequencies --    771.6956               799.7026               892.1513
 Red. masses --      9.7797                 1.2156                 3.1600
 Frc consts  --      3.4314                 0.4580                 1.4819
 IR Inten    --     28.5160                 5.2140                17.8433
  Atom  AN      X      Y      Z        X      Y      Z        X      Y      Z
     1   6    -0.02   0.00  -0.01     0.03   0.01   0.01     0.05   0.01   0.01
     2   1    -0.07   0.13   0.20     0.04   0.01  -0.01     0.07   0.03  -0.03
     3   6    -0.00  -0.10  -0.09     0.02  -0.01   0.02     0.02  -0.02   0.04
     4   6     0.09   0.70   0.37    -0.03  -0.01  -0.04    -0.07   0.05  -0.10
     5   8    -0.02  -0.17  -0.14    -0.01   0.03  -0.04     0.01   0.09  -0.15
     6   8    -0.01  -0.19  -0.08     0.01  -0.01   0.04     0.10  -0.10   0.23
     7   6    -0.05  -0.01   0.03    -0.03  -0.04   0.06    -0.07   0.07   0.03
     8   6    -0.02   0.01   0.02    -0.01  -0.03   0.02    -0.09  -0.02  -0.10
     9   1    -0.04   0.19   0.05    -0.09   0.52   0.09    -0.27  -0.05  -0.07
    10   1     0.11  -0.03  -0.10     0.12  -0.21  -0.45     0.26   0.20   0.23
    11   1    -0.01  -0.12  -0.14     0.02   0.08  -0.17    -0.12  -0.45  -0.16
    12   1     0.10   0.01  -0.06    -0.06  -0.20  -0.40     0.16   0.18   0.29
    13   1     0.14   0.16   0.10     0.12   0.41   0.12    -0.01  -0.35  -0.09
    14   8     0.01  -0.11  -0.02    -0.00  -0.00   0.00     0.00  -0.00   0.01
    15   1     0.06   0.06   0.06    -0.01  -0.06  -0.03    -0.03  -0.25  -0.11
                     19                     20                     21
                      A                      A                      A
 Frequencies --    918.0953               967.9039              1070.1104
 Red. masses --      2.5858                 1.1874                 4.0452
 Frc consts  --      1.2842                 0.6554                 2.7293
 IR Inten    --      1.8368                52.1701                24.6276
  Atom  AN      X      Y      Z        X      Y      Z        X      Y      Z
     1   6    -0.10  -0.02  -0.03     0.02   0.01  -0.00     0.07   0.01   0.02
     2   1    -0.10  -0.03  -0.04     0.02  -0.01   0.02     0.07   0.01   0.05
     3   6    -0.06   0.02   0.02     0.00  -0.05   0.07     0.03  -0.01  -0.04
     4   6     0.14  -0.03   0.01    -0.01  -0.00  -0.02    -0.15   0.00   0.05
     5   8    -0.02  -0.05   0.09    -0.01   0.01  -0.02     0.02  -0.00  -0.01
     6   8     0.15   0.05  -0.07     0.00  -0.00   0.02    -0.21   0.04  -0.03
     7   6    -0.05   0.09   0.05    -0.00   0.00   0.00     0.32   0.12   0.16
     8   6    -0.16  -0.08  -0.07    -0.00   0.00  -0.01    -0.07  -0.14  -0.13
     9   1     0.27   0.17   0.19    -0.03   0.01  -0.01     0.37   0.23   0.20
    10   1    -0.01   0.11   0.08     0.03   0.01   0.01     0.39   0.18   0.25
    11   1    -0.15  -0.53  -0.53    -0.00  -0.01   0.00    -0.07  -0.25  -0.21
    12   1     0.17  -0.03  -0.11     0.00   0.01   0.02    -0.03  -0.17  -0.20
    13   1     0.22   0.09   0.12    -0.01  -0.03  -0.01    -0.05  -0.23  -0.13
    14   8     0.00   0.02  -0.00    -0.01  -0.03  -0.06     0.00  -0.01  -0.00
    15   1     0.02   0.09   0.04     0.14   0.90   0.39    -0.02  -0.01  -0.00
                     22                     23                     24
                      A                      A                      A
 Frequencies --   1127.7379              1202.3716              1272.8470
 Red. masses --      2.0910                 1.7816                 4.5612
 Frc consts  --      1.5668                 1.5175                 4.3540
 IR Inten    --     20.8274                 9.7330               545.8937
  Atom  AN      X      Y      Z        X      Y      Z        X      Y      Z
     1   6    -0.01  -0.00  -0.00    -0.02  -0.00  -0.00    -0.08  -0.01  -0.02
     2   1    -0.01  -0.00  -0.01    -0.02  -0.00  -0.01    -0.09  -0.02  -0.06
     3   6    -0.01   0.00   0.01    -0.00   0.01  -0.00    -0.00   0.02   0.02
     4   6     0.03   0.00  -0.00     0.07  -0.00  -0.02     0.42   0.04  -0.17
     5   8    -0.00  -0.00   0.00    -0.01  -0.02   0.03    -0.06   0.01  -0.01
     6   8     0.05  -0.04  -0.02    -0.02   0.04  -0.06    -0.22  -0.05   0.11
     7   6    -0.11   0.18   0.10    -0.03  -0.10   0.16     0.12   0.04   0.03
     8   6     0.11  -0.14  -0.07     0.03   0.08  -0.11    -0.02  -0.04   0.06
     9   1    -0.09   0.08   0.10    -0.34   0.37   0.08    -0.62  -0.21  -0.30
    10   1    -0.20   0.16   0.08     0.29  -0.20  -0.26    -0.02   0.09   0.19
    11   1     0.10   0.39   0.31    -0.03  -0.14   0.25     0.00   0.01  -0.15
    12   1    -0.41  -0.31  -0.23    -0.01   0.24   0.35     0.01  -0.15  -0.24
    13   1    -0.37  -0.14  -0.29    -0.08  -0.41  -0.20     0.01   0.09   0.08
    14   8    -0.00   0.00   0.00    -0.00   0.00   0.00    -0.00   0.01   0.00
    15   1     0.00  -0.00  -0.00     0.01  -0.01  -0.00     0.04   0.00  -0.00
                     25                     26                     27
                      A                      A                      A
 Frequencies --   1343.8630              1401.3000              1430.0309
 Red. masses --      1.1985                 1.2682                 1.3603
 Frc consts  --      1.2753                 1.4672                 1.6390
 IR Inten    --     63.3303                16.8191                12.3724
  Atom  AN      X      Y      Z        X      Y      Z        X      Y      Z
     1   6     0.01   0.00   0.00    -0.01  -0.00  -0.00    -0.01  -0.00  -0.00
     2   1     0.01   0.00   0.01    -0.01  -0.00  -0.01    -0.01  -0.00  -0.01
     3   6    -0.00  -0.00  -0.00     0.00   0.00   0.00     0.00   0.00   0.00
     4   6    -0.04  -0.01   0.02     0.05  -0.00  -0.01     0.04   0.00  -0.01
     5   8     0.01  -0.01   0.02    -0.01   0.01  -0.01    -0.01   0.01  -0.01
     6   8     0.04   0.04  -0.06    -0.04   0.00   0.03    -0.03   0.01   0.02
     7   6    -0.03  -0.01   0.00    -0.05  -0.03  -0.04    -0.08  -0.06  -0.06
     8   6    -0.00  -0.04   0.04    -0.02  -0.09  -0.07     0.08   0.06   0.06
     9   1    -0.54  -0.17  -0.23     0.35   0.22   0.17     0.42   0.22   0.18
    10   1     0.67   0.21   0.25     0.29   0.14   0.24     0.41   0.16   0.26
    11   1     0.01   0.07  -0.03    -0.00   0.39   0.30     0.06  -0.31  -0.20
    12   1    -0.02  -0.10  -0.09     0.17   0.14   0.37    -0.33  -0.13  -0.19
    13   1     0.02   0.17   0.08     0.21   0.36   0.09    -0.31  -0.16  -0.14
    14   8     0.00  -0.00   0.00    -0.00   0.00   0.00    -0.00   0.00   0.00
    15   1    -0.01  -0.00  -0.00     0.00  -0.00  -0.00     0.01  -0.00  -0.00
                     28                     29                     30
                      A                      A                      A
 Frequencies --   1491.2015              1501.6687              1514.1870
 Red. masses --      1.0403                 1.0530                 1.0923
 Frc consts  --      1.3629                 1.3990                 1.4755
 IR Inten    --     10.6209                 1.2096                18.7431
  Atom  AN      X      Y      Z        X      Y      Z        X      Y      Z
     1   6     0.00   0.00   0.00    -0.00  -0.00  -0.00     0.01   0.00   0.00
     2   1     0.00   0.00   0.00    -0.00  -0.00  -0.00     0.01   0.00   0.00
     3   6    -0.00   0.00  -0.00     0.00   0.00   0.00    -0.00  -0.00  -0.00
     4   6    -0.00   0.00  -0.00     0.01  -0.00   0.00    -0.02   0.00  -0.00
     5   8     0.00  -0.00   0.00    -0.00   0.00  -0.00     0.01  -0.01   0.01
     6   8     0.00   0.00  -0.00    -0.01   0.00   0.00     0.02  -0.00  -0.01
     7   6    -0.01  -0.02   0.01     0.00   0.03   0.03     0.05  -0.04  -0.02
     8   6    -0.02  -0.01   0.04     0.03  -0.03  -0.00     0.02  -0.02  -0.00
     9   1    -0.00   0.14   0.04     0.11  -0.38   0.03    -0.29   0.48  -0.11
    10   1    -0.00   0.00   0.07     0.17  -0.11  -0.37    -0.38   0.05   0.41
    11   1     0.08   0.48  -0.44     0.04  -0.04  -0.34     0.02  -0.13  -0.19
    12   1     0.56   0.08  -0.07    -0.14   0.11   0.42    -0.19   0.07   0.30
    13   1    -0.34  -0.27  -0.15    -0.39   0.40  -0.14    -0.23   0.32  -0.08
    14   8     0.00   0.00  -0.00    -0.00   0.00  -0.00    -0.00  -0.00  -0.00
    15   1    -0.00  -0.00  -0.00     0.00   0.00   0.00    -0.00   0.00   0.00
                     31                     32                     33
                      A                      A                      A
 Frequencies --   1850.9424              1946.0483              3076.1707
 Red. masses --     11.2007                 7.3192                 1.0354
 Frc consts  --     22.6089                16.3312                 5.7729
 IR Inten    --    312.4156                51.1927                 8.9729
  Atom  AN      X      Y      Z        X      Y      Z        X      Y      Z
     1   6    -0.19  -0.03  -0.05    -0.39  -0.07  -0.10    -0.00  -0.00  -0.00
     2   1    -0.29  -0.07  -0.05    -0.62  -0.12  -0.16    -0.00   0.00  -0.00
     3   6     0.23   0.01   0.04     0.56  -0.01   0.12     0.00   0.00   0.00
     4   6     0.17  -0.36   0.59    -0.17   0.12  -0.15     0.00   0.00  -0.00
     5   8    -0.15   0.24  -0.39     0.04  -0.06   0.09     0.00   0.00   0.00
     6   8     0.01   0.03  -0.06    -0.00  -0.01   0.01    -0.00  -0.00   0.00
     7   6     0.03  -0.01   0.02    -0.00   0.00  -0.00    -0.00   0.00   0.00
     8   6    -0.01   0.01   0.00     0.00  -0.00  -0.00    -0.02  -0.04  -0.03
     9   1    -0.16   0.09  -0.06     0.03  -0.02   0.01     0.00  -0.00  -0.01
    10   1    -0.12  -0.04   0.08     0.02   0.01  -0.02     0.00  -0.02   0.01
    11   1    -0.00  -0.02  -0.06     0.00   0.00   0.01     0.62  -0.06   0.06
    12   1     0.03   0.01  -0.00    -0.00  -0.00   0.00    -0.13   0.53  -0.22
    13   1    -0.04  -0.05  -0.01     0.01   0.01   0.00    -0.22  -0.06   0.46
    14   8    -0.00   0.02   0.00    -0.00   0.04   0.01     0.00   0.00   0.00
    15   1    -0.02   0.02   0.01    -0.01   0.02   0.01    -0.00  -0.00  -0.00
                     34                     35                     36
                      A                      A                      A
 Frequencies --   3108.1927              3152.0175              3155.3608
 Red. masses --      1.0609                 1.1017                 1.1047
 Frc consts  --      6.0387                 6.4487                 6.4801
 IR Inten    --     19.5373                14.1637                 2.8238
  Atom  AN      X      Y      Z        X      Y      Z        X      Y      Z
     1   6    -0.00  -0.00  -0.00    -0.00  -0.00  -0.00    -0.00  -0.00  -0.00
     2   1     0.00  -0.00   0.00     0.00  -0.00   0.00    -0.00  -0.00   0.00
     3   6     0.00  -0.00  -0.00     0.00  -0.00   0.00     0.00  -0.00  -0.00
     4   6    -0.00  -0.00   0.00    -0.00  -0.00   0.00     0.00  -0.00   0.00
     5   8    -0.00   0.00  -0.00     0.00   0.00  -0.00    -0.00   0.00  -0.00
     6   8     0.00   0.00  -0.00    -0.00   0.00  -0.00    -0.00  -0.00  -0.00
     7   6     0.03  -0.06  -0.02     0.01   0.01  -0.03    -0.01  -0.03   0.04
     8   6    -0.01   0.01  -0.00     0.06  -0.06   0.03     0.06   0.01  -0.05
     9   1    -0.21  -0.06   0.50    -0.13  -0.03   0.31     0.17   0.04  -0.39
    10   1    -0.14   0.75  -0.30     0.01  -0.06   0.02    -0.06   0.33  -0.13
    11   1     0.12  -0.02   0.01    -0.61   0.05  -0.05    -0.44   0.04  -0.05
    12   1     0.01  -0.06   0.03    -0.14   0.64  -0.26     0.04  -0.10   0.03
    13   1     0.01   0.01  -0.03     0.03  -0.01  -0.03    -0.28  -0.07   0.62
    14   8     0.00  -0.00  -0.00     0.00   0.00  -0.00     0.00  -0.00  -0.00
    15   1    -0.00   0.00   0.00    -0.00   0.00   0.00    -0.00  -0.00   0.00
                     37                     38                     39
                      A                      A                      A
 Frequencies --   3175.7755              3454.9162              3841.3395
 Red. masses --      1.1072                 1.1307                 1.0676
 Frc consts  --      6.5790                 7.9517                 9.2818
 IR Inten    --     14.2726                81.2713                59.3395
  Atom  AN      X      Y      Z        X      Y      Z        X      Y      Z
     1   6    -0.00  -0.00  -0.00    -0.10  -0.01  -0.02     0.00   0.00   0.00
     2   1     0.00   0.00   0.00     0.97   0.04   0.21    -0.00  -0.00  -0.00
     3   6    -0.00  -0.00   0.00     0.02   0.00   0.00    -0.00  -0.00  -0.00
     4   6    -0.00   0.00  -0.00    -0.00   0.00   0.00    -0.00   0.00  -0.00
     5   8     0.00  -0.00   0.00     0.00  -0.00  -0.00     0.00  -0.00   0.00
     6   8     0.00  -0.00   0.00     0.00  -0.00  -0.00     0.00   0.00  -0.00
     7   6     0.02   0.04  -0.06    -0.00  -0.00   0.00    -0.00   0.00   0.00
     8   6     0.02   0.03  -0.05    -0.00  -0.00   0.00     0.00  -0.00   0.00
     9   1    -0.24  -0.05   0.58     0.00   0.00  -0.00     0.00   0.00  -0.00
    10   1     0.07  -0.39   0.14     0.00   0.00   0.00     0.00  -0.00   0.00
    11   1    -0.07   0.01  -0.01     0.00   0.00   0.00     0.00   0.00   0.00
    12   1     0.08  -0.35   0.13    -0.00   0.00  -0.00    -0.00   0.00  -0.00
    13   1    -0.21  -0.04   0.46    -0.00  -0.00  -0.00    -0.00  -0.00  -0.00
    14   8    -0.00  -0.00  -0.00     0.00   0.00   0.00    -0.01   0.03  -0.06
    15   1     0.00  -0.00   0.00    -0.00  -0.00   0.00     0.09  -0.44   0.89

 -------------------
 - Thermochemistry -
 -------------------
 Temperature   298.150 Kelvin.  Pressure   1.00000 Atm.
 Atom     1 has atomic number  6 and mass  12.00000
 Atom     2 has atomic number  1 and mass   1.00783
 Atom     3 has atomic number  6 and mass  12.00000
 Atom     4 has atomic number  6 and mass  12.00000
 Atom     5 has atomic number  8 and mass  15.99491
 Atom     6 has atomic number  8 and mass  15.99491
 Atom     7 has atomic number  6 and mass  12.00000
 Atom     8 has atomic number  6 and mass  12.00000
 Atom     9 has atomic number  1 and mass   1.00783
 Atom    10 has atomic number  1 and mass   1.00783
 Atom    11 has atomic number  1 and mass   1.00783
 Atom    12 has atomic number  1 and mass   1.00783
 Atom    13 has atomic number  1 and mass   1.00783
 Atom    14 has atomic number  8 and mass  15.99491
 Atom    15 has atomic number  1 and mass   1.00783
 Molecular mass:   115.03952 amu.
 Principal axes and moments of inertia in atomic units:
                           1         2         3
     Eigenvalues --   481.668901376.449141519.51273
           X            0.99988   0.01233   0.00886
           Y           -0.01256   0.99957   0.02637
           Z           -0.00853  -0.02648   0.99961
 This molecule is an asymmetric top.
 Rotational symmetry number  1.
 Warning -- assumption of classical behavior for rotation
           may cause significant error
 Rotational temperatures (Kelvin)      0.17982     0.06293     0.05700
 Rotational constants (GHZ):           3.74685     1.31116     1.18771
    1 imaginary frequencies ignored.
 Zero-point vibrational energy     292348.9 (Joules/Mol)
                                   69.87307 (Kcal/Mol)
 Warning -- explicit consideration of  13 degrees of freedom as
           vibrations may cause significant error
 Vibrational temperatures:     81.42   118.38   147.70   191.20   270.30
          (Kelvin)            336.26   344.83   408.92   491.14   601.23
                              636.24   830.22   872.23  1016.80  1110.30
                             1150.59  1283.61  1320.93  1392.60  1539.65
                             1622.56  1729.94  1831.34  1933.52  2016.16
                             2057.50  2145.51  2160.57  2178.58  2663.09
                             2799.93  4425.92  4472.00  4535.05  4539.86
                             4569.23  4970.85  5526.83
 
 Zero-point correction=                           0.111350 (Hartree/Particle)
 Thermal correction to Energy=                    0.121013
 Thermal correction to Enthalpy=                  0.121957
 Thermal correction to Gibbs Free Energy=         0.075723
 Sum of electronic and zero-point Energies=           -420.096774
 Sum of electronic and thermal Energies=              -420.087111
 Sum of electronic and thermal Enthalpies=            -420.086167
 Sum of electronic and thermal Free Energies=         -420.132401
 
                     E (Thermal)             CV                S
                      KCal/Mol        Cal/Mol-Kelvin    Cal/Mol-Kelvin
 Total                   75.937             32.479             97.308
 Electronic               0.000              0.000              1.377
 Translational            0.889              2.981             40.136
 Rotational               0.889              2.981             28.401
 Vibrational             74.159             26.517             27.394
 Vibration     1          0.596              1.975              4.573
 Vibration     2          0.600              1.961              3.836
 Vibration     3          0.605              1.947              3.403
 Vibration     4          0.613              1.920              2.904
 Vibration     5          0.633              1.857              2.249
 Vibration     6          0.654              1.789              1.850
 Vibration     7          0.657              1.780              1.805
 Vibration     8          0.683              1.703              1.508
 Vibration     9          0.721              1.593              1.206
 Vibration    10          0.781              1.431              0.899
 Vibration    11          0.802              1.378              0.820
 Vibration    12          0.933              1.081              0.491
 Vibration    13          0.965              1.019              0.439
                       Q            Log10(Q)             Ln(Q)
 Total Bot       0.147874D-34        -34.830108        -80.199288
 Total V=0       0.243900D+17         16.387212         37.732949
 Vib (Bot)       0.424312D-48        -48.372315       -111.381372
 Vib (Bot)    1  0.365056D+01          0.562360          1.294881
 Vib (Bot)    2  0.250204D+01          0.398295          0.917108
 Vib (Bot)    3  0.199808D+01          0.300612          0.692185
 Vib (Bot)    4  0.153292D+01          0.185520          0.427177
 Vib (Bot)    5  0.106614D+01          0.027816          0.064049
 Vib (Bot)    6  0.841372D+00         -0.075012         -0.172721
 Vib (Bot)    7  0.818246D+00         -0.087116         -0.200592
 Vib (Bot)    8  0.674954D+00         -0.170726         -0.393110
 Vib (Bot)    9  0.543494D+00         -0.264805         -0.609736
 Vib (Bot)   10  0.420873D+00         -0.375849         -0.865425
 Vib (Bot)   11  0.390239D+00         -0.408669         -0.940995
 Vib (Bot)   12  0.264865D+00         -0.576976         -1.328536
 Vib (Bot)   13  0.244730D+00         -0.611313         -1.407601
 Vib (V=0)       0.699850D+03          2.845005          6.550866
 Vib (V=0)    1  0.418464D+01          0.621659          1.431422
 Vib (V=0)    2  0.305151D+01          0.484515          1.115638
 Vib (V=0)    3  0.255969D+01          0.408187          0.939885
 Vib (V=0)    4  0.211241D+01          0.324777          0.747828
 Vib (V=0)    5  0.167757D+01          0.224680          0.517345
 Vib (V=0)    6  0.147873D+01          0.169888          0.391182
 Vib (V=0)    7  0.145892D+01          0.164031          0.377696
 Vib (V=0)    8  0.133998D+01          0.127098          0.292653
 Vib (V=0)    9  0.123850D+01          0.092897          0.213903
 Vib (V=0)   10  0.115355D+01          0.062038          0.142848
 Vib (V=0)   11  0.113426D+01          0.054713          0.125981
 Vib (V=0)   12  0.106582D+01          0.027684          0.063745
 Vib (V=0)   13  0.105668D+01          0.023943          0.055132
 Electronic      0.200000D+01          0.301030          0.693147
 Translational   0.484981D+08          7.685724         17.697035
 Rotational      0.359296D+06          5.555452         12.791901
 ***** Axes restored to original set *****
 -------------------------------------------------------------------
 Center     Atomic                   Forces (Hartrees/Bohr)
 Number     Number              X              Y              Z
 -------------------------------------------------------------------
      1        6          -0.002553617   -0.005885338    0.000406453
      2        1          -0.000062033    0.000197317   -0.000045650
      3        6          -0.001493165    0.040472976   -0.010603850
      4        6           0.000807765    0.001162066   -0.000175911
      5        8           0.001482182   -0.001197739    0.001135931
      6        8          -0.000167285   -0.000856741    0.000278279
      7        6          -0.000180541   -0.000306604    0.000155706
      8        6           0.000142407   -0.000080588    0.000078183
      9        1          -0.000028446   -0.000010179    0.000003819
     10        1          -0.000032141   -0.000015465    0.000008508
     11        1           0.000013526   -0.000002334   -0.000001665
     12        1           0.000018147   -0.000006875    0.000009056
     13        1           0.000020027   -0.000005528    0.000001369
     14        8           0.002223515   -0.032678192    0.008943956
     15        1          -0.000190343   -0.000786775   -0.000194184
 -------------------------------------------------------------------
 Cartesian Forces:  Max     0.040472976 RMS     0.008104291

 GradGradGradGradGradGradGradGradGradGradGradGradGradGradGradGradGradGrad
 Berny optimization.
 Search for a local minimum.
 Step number   1 out of a maximum of    2
 All quantities printed in internal units (Hartrees-Bohrs-Radians)
 Second derivative matrix not updated -- analytic derivatives used.
 ITU=  0
     Eigenvalues ---   -0.22018   0.00017   0.00120   0.00165   0.00180
     Eigenvalues ---    0.00367   0.00628   0.01069   0.01941   0.02328
     Eigenvalues ---    0.03219   0.03596   0.03656   0.05238   0.06363
     Eigenvalues ---    0.07336   0.07780   0.08612   0.10137   0.10325
     Eigenvalues ---    0.11616   0.14212   0.17019   0.18345   0.20968
     Eigenvalues ---    0.28651   0.29300   0.43017   0.49370   0.62165
     Eigenvalues ---    0.68869   0.76456   0.79238   0.86068   0.87928
     Eigenvalues ---    0.92583   0.98285   1.76083   2.05287
 Eigenvalue     1 is  -2.20D-01 should be greater than     0.000000 Eigenvector:
                          Y3        Y14       Z3        Z14       Y1
   1                    0.77952  -0.53927  -0.19779   0.17326  -0.13457
                          Y15       Z15       X1        Y2        X14
   1                   -0.05270  -0.05127  -0.04372   0.03864   0.03715
 Quadratic step=1.030D+00 exceeds max=3.000D-01 adjusted using Lamda=-2.124D-03.
 Angle between NR and scaled steps=  57.95 degrees.
 Angle between quadratic step and forces=  33.97 degrees.
 Linear search not attempted -- first point.
 B after Tr=    -0.000609    0.005325   -0.000293
         Rot=    0.999999   -0.000469   -0.000066   -0.000925 Ang=  -0.12 deg.
 Variable       Old X    -DE/DX   Delta X   Delta X   Delta X     New X
                                 (Linear)    (Quad)   (Total)
    X1        5.16969  -0.00255   0.00000  -0.00380  -0.00285   5.16684
    Y1       -0.79901  -0.00589   0.00000   0.00956   0.02371  -0.77531
    Z1        0.78617   0.00041   0.00000   0.00083  -0.00088   0.78528
    X2        7.14008  -0.00006   0.00000  -0.01386  -0.01242   7.12765
    Y2       -0.88692   0.00020   0.00000  -0.13540  -0.11805  -1.00497
    Z2        1.19641  -0.00005   0.00000   0.04111   0.03892   1.23533
    X3        2.95408  -0.00149   0.00000  -0.00615  -0.00660   2.94747
    Y3       -0.28153   0.04047   0.00000   0.20306   0.21369  -0.06784
    Z3        0.20179  -0.01060   0.00000  -0.04864  -0.04939   0.15239
    X4        0.30043   0.00081   0.00000   0.00704   0.00836   0.30879
    Y4       -1.07680   0.00116   0.00000   0.01257   0.01872  -1.05808
    Z4       -0.26972  -0.00018   0.00000  -0.00251  -0.00384  -0.27356
    X5       -0.37700   0.00148   0.00000   0.01061   0.01372  -0.36328
    Y5       -2.17271  -0.00120   0.00000   0.00902   0.01566  -2.15705
    Z5       -2.12583   0.00114   0.00000  -0.00173  -0.00401  -2.12983
    X6       -1.17525  -0.00017   0.00000   0.00092   0.00108  -1.17416
    Y6       -0.29010  -0.00086   0.00000  -0.00990  -0.00826  -0.29836
    Z6        1.60573   0.00028   0.00000   0.00416   0.00374   1.60947
    X7       -3.85850  -0.00018   0.00000   0.00086   0.00149  -3.85700
    Y7       -0.57433  -0.00031   0.00000  -0.00620  -0.00914  -0.58347
    Z7        1.20827   0.00016   0.00000   0.00265   0.00232   1.21059
    X8       -4.84427   0.00014   0.00000   0.00311  -0.00029  -4.84456
    Y8        1.48186  -0.00008   0.00000  -0.00480  -0.00794   1.47391
    Z8       -0.52569   0.00008   0.00000   0.00211   0.00384  -0.52185
    X9       -4.66206  -0.00003   0.00000   0.00068   0.00131  -4.66075
    Y9       -0.43687  -0.00001   0.00000  -0.00420  -0.01041  -0.44728
    Z9        3.09663   0.00000   0.00000   0.00220   0.00211   3.09873
   X10       -4.21870  -0.00003   0.00000  -0.00046   0.00355  -4.21515
   Y10       -2.45329  -0.00002   0.00000  -0.00521  -0.00810  -2.46139
   Z10        0.44263   0.00001   0.00000   0.00195  -0.00009   0.44254
   X11       -6.89011   0.00001   0.00000   0.00288  -0.00021  -6.89032
   Y11        1.29962  -0.00000   0.00000  -0.00145  -0.00820   1.29142
   Z11       -0.71999  -0.00000   0.00000   0.00216   0.00399  -0.71600
   X12       -4.41808   0.00002   0.00000   0.00594  -0.00080  -4.41888
   Y12        3.34331  -0.00001   0.00000  -0.00490  -0.00799   3.33533
   Z12        0.25012   0.00001   0.00000   0.00165   0.00507   0.25519
   X13       -3.99323   0.00002   0.00000   0.00311  -0.00025  -3.99348
   Y13        1.32597  -0.00001   0.00000  -0.00548  -0.00530   1.32067
   Z13       -2.39545   0.00000   0.00000   0.00213   0.00360  -2.39185
   X14        2.65759   0.00222   0.00000  -0.02245  -0.02849   2.62910
   Y14        3.02244  -0.03268   0.00000  -0.14030  -0.12948   2.89296
   Z14       -0.70765   0.00894   0.00000   0.03495   0.03701  -0.67064
   X15        2.81639  -0.00019   0.00000   0.03001   0.02241   2.83880
   Y15        3.80768  -0.00079   0.00000   0.03134   0.04109   3.84877
   Z15        0.93558  -0.00019   0.00000  -0.04531  -0.04238   0.89320
         Item               Value     Threshold  Converged?
 Maximum Force            0.040473     0.000450     NO 
 RMS     Force            0.008104     0.000300     NO 
 Maximum Displacement     0.213691     0.001800     NO 
 RMS     Displacement     0.044422     0.001200     NO 
 Predicted change in Energy=-1.987649D-02
 GradGradGradGradGradGradGradGradGradGradGradGradGradGradGradGradGradGrad


 ----------------------------------------------------------------------

 Electric dipole moment (input orientation):
 (Debye = 10**-18 statcoulomb cm , SI units = C m)
                  (au)            (Debye)         (10**-30 SI)
   Tot        0.125859D+01      0.319902D+01      0.106708D+02
   x         -0.126113D-01     -0.320548D-01     -0.106923D+00
   y          0.520654D-02      0.132337D-01      0.441429D-01
   z          0.125852D+01      0.319884D+01      0.106702D+02

 Dipole polarizability, Alpha (input orientation).
 (esu units = cm**3 , SI units = C**2 m**2 J**-1)
 Alpha(0;0):
               (au)            (10**-24 esu)      (10**-40 SI)
   iso        0.729503D+02      0.108101D+02      0.120279D+02
   aniso      0.303094D+02      0.449139D+01      0.499734D+01
   xx         0.889794D+02      0.131854D+02      0.146707D+02
   yx        -0.679773D+01     -0.100732D+01     -0.112079D+01
   yy         0.714220D+02      0.105836D+02      0.117759D+02
   zx         0.487746D+01      0.722766D+00      0.804185D+00
   zy        -0.120405D+01     -0.178421D+00     -0.198520D+00
   zz         0.584495D+02      0.866132D+01      0.963702D+01

 ----------------------------------------------------------------------

 Dipole orientation:
     6          5.17729306         -0.80215222          0.73101295
     1          7.15168649         -0.89171781          1.12112979
     6          2.95594439         -0.28230252          0.17101186
     6          0.29768863         -1.07566875         -0.27716773
     8         -0.39832574         -2.16390205         -2.13091216
     8         -1.15910445         -0.29676765          1.61621037
     6         -3.84620869         -0.57940089          1.24448795
     6         -4.84926685          1.48391868         -0.47099005
     1         -4.63080454         -0.44977745          3.14135161
     1         -4.21410591         -2.45519099          0.47472603
     1         -6.89694746          1.30244210         -0.64553266
     1         -4.41527843          3.34215616          0.30820241
     1         -4.01700430          1.33578519         -2.34981194
     8          2.65042457          3.02539781         -0.72173231
     1          2.82570712          3.80383457          0.92305657

 Electric dipole moment (dipole orientation):
 (Debye = 10**-18 statcoulomb cm , SI units = C m)
                  (au)            (Debye)         (10**-30 SI)
   Tot        0.125859D+01      0.319902D+01      0.106708D+02
   x          0.000000D+00      0.000000D+00      0.000000D+00
   y          0.000000D+00      0.000000D+00      0.000000D+00
   z          0.125859D+01      0.319902D+01      0.106708D+02

 Dipole polarizability, Alpha (dipole orientation).
 (esu units = cm**3 , SI units = C**2 m**2 J**-1)
 Alpha(0;0):
               (au)            (10**-24 esu)      (10**-40 SI)
   iso        0.729503D+02      0.108101D+02      0.120279D+02
   aniso      0.303094D+02      0.449139D+01      0.499734D+01
   xx         0.890738D+02      0.131994D+02      0.146863D+02
   yx        -0.682867D+01     -0.101190D+01     -0.112590D+01
   yy         0.714314D+02      0.105850D+02      0.117775D+02
   zx         0.454235D+01      0.673107D+00      0.748933D+00
   zy        -0.108187D+01     -0.160317D+00     -0.178376D+00
   zz         0.583456D+02      0.864593D+01      0.961989D+01

 ----------------------------------------------------------------------
 1\1\GINC-AJ\Freq\UM062X\6-311++G(d,p)\C5H7O3(2)\AAYUSH\16-Aug-2025\0\\
 # freq 6-311++g(d,p) m062x\\Title Card Required\\0,2\C,2.735683,-0.422
 82,0.416021\H,3.778365,-0.46934,0.633115\C,1.56323,-0.14898,0.106782\C
 ,0.15898,-0.569818,-0.142729\O,-0.199499,-1.149747,-1.124939\O,-0.6219
 14,-0.153516,0.849715\C,-2.041829,-0.303921,0.63939\C,-2.563479,0.7841
 65,-0.278184\H,-2.467055,-0.231184,1.638664\H,-2.232441,-1.298227,0.23
 4229\H,-3.646087,0.687728,-0.381003\H,-2.337945,1.769204,0.132356\H,-2
 .113126,0.701673,-1.267618\O,1.406334,1.599407,-0.374471\H,1.490372,2.
 014937,0.495088\\Version=ES64L-G16RevA.03\State=2-A\HF=-420.2081243\S2
 =0.785804\S2-1=0.\S2A=0.750607\RMSD=6.691e-09\RMSF=8.104e-03\ZeroPoint
 =0.1113498\Thermal=0.1210128\Dipole=-0.0126113,0.0052065,1.2585188\Dip
 oleDeriv=-0.3023991,-0.2275308,0.0230242,-0.0149722,-0.0841497,-0.0137
 899,-0.0945436,-0.048892,-0.1293257,0.27362,-0.0179221,0.0077801,-0.05
 3564,0.2186471,-0.0084981,0.0366082,0.0016397,0.2327,-0.1676502,0.1554
 503,-0.0519882,-0.0766984,-0.1074517,-0.0058038,0.0446513,0.063019,-0.
 0751197,1.9807515,0.2567148,-0.1645449,0.0290071,0.7488399,0.5940429,-
 0.5227236,0.6353041,1.4437323,-0.7954814,-0.2072815,-0.1793518,-0.0552
 117,-0.5839473,-0.3533487,0.0362226,-0.4027977,-0.8909381,-1.630576,0.
 1341606,0.3408368,0.1448314,-0.3927406,-0.1789062,0.4809972,-0.2034184
 ,-0.8137133,0.9980862,-0.0919964,-0.0544659,-0.0055671,0.2914619,-0.07
 84366,0.0649162,-0.0274635,0.3168015,-0.065595,0.0301425,0.0306676,0.0
 45957,-0.0191974,0.0826423,-0.0342603,0.0550399,-0.042309,-0.0242374,0
 .0087439,0.0249375,0.022183,0.0677415,-0.0022649,0.0636319,0.0236342,-
 0.0883281,-0.0191553,0.0377142,0.0120603,-0.0356221,-0.0691613,0.00012
 11,-0.0581564,-0.0384688,0.0552045,-0.1274493,-0.0001326,-0.0195414,-0
 .0136846,0.0680808,0.0047743,-0.0197041,0.0172264,0.0926523,0.0811175,
 -0.0518673,-0.0304611,-0.0055165,-0.069329,-0.0262269,-0.0319049,-0.05
 53842,0.0252379,0.0765108,-0.0002019,0.0688271,0.0157492,0.0455027,-0.
 0132422,0.0474067,0.0135871,-0.0288479,-0.557666,-0.0704601,0.0165524,
 -0.0060489,-0.4212187,0.0069036,0.0322985,-0.1219919,-0.2065819,0.2801
 237,0.0444665,-0.0243326,0.0091576,0.3069219,-0.0079669,-0.0454397,0.0
 889662,0.1088353\Polar=88.9794081,-6.7977312,71.4219658,4.8774649,-1.2
 040455,58.4494792\Quadrupole=8.6216745,-3.5301795,-5.091495,-1.6181057
 ,2.5927145,0.3323811\PG=C01 [X(C5H7O3)]\NImag=1\\1.16021131,-0.1510556
 9,0.05786559,0.26645491,-0.03333737,0.11361184,-0.40189678,0.02449171,
 -0.08109872,0.39366390,0.00801204,-0.00644752,-0.00263475,-0.01995507,
 0.00663004,-0.07674320,0.00079143,-0.03955059,0.07983372,-0.00176201,0
 .03135842,-0.74820082,0.11715141,-0.18017915,0.00764655,0.01302512,-0.
 00161668,1.04561545,0.03206474,0.01036578,-0.00261669,-0.00332717,-0.0
 0557360,0.00105124,0.02873576,-0.09094908,-0.16006252,0.01351227,-0.07
 219096,0.00178130,0.00473071,0.00278644,0.18490968,0.07350879,0.159343
 75,0.00367377,-0.00462151,0.00249785,-0.00053533,-0.00070933,-0.002185
 51,-0.21484110,-0.03759089,-0.02519286,0.63563251,0.02840267,-0.005351
 17,0.00758789,0.00042995,0.00308741,0.00030722,-0.05284561,-0.04135415
 ,-0.01098303,0.11214424,0.41740771,-0.01042379,0.00118727,-0.00148312,
 -0.00102544,0.00015950,0.00586703,-0.00786314,-0.00726214,-0.05942902,
 0.09595592,0.33136326,0.79355784,-0.00216126,-0.00138090,-0.00062746,0
 .00023319,0.00041446,0.00159247,-0.01875399,-0.02088860,-0.03877293,-0
 .17997838,-0.11358787,-0.18127074,0.17210183,-0.00294607,0.00021494,-0
 .00115492,-0.00012572,-0.00028963,0.00100378,-0.02177141,0.00124756,-0
 .02416908,-0.10636512,-0.24504535,-0.27815821,0.12235136,0.24263583,0.
 00175101,-0.00105126,0.00122686,0.00002703,0.00021998,-0.00001839,-0.0
 2842731,-0.01732120,-0.01458887,-0.17588895,-0.27796354,-0.54544313,0.
 18725104,0.35374888,0.64025185,-0.00636805,-0.00094833,-0.00154771,0.0
 0085862,-0.00049916,-0.00112656,-0.05083470,0.00788319,0.03395565,-0.1
 9000020,0.03340540,0.09180670,0.02793338,0.01241561,0.02608613,0.49196
 881,-0.00096547,0.00062561,-0.00021613,0.00002772,-0.00028072,-0.00016
 230,-0.00331761,0.00728784,0.00108637,0.02615013,-0.09530989,-0.060894
 84,0.01388207,0.00367452,-0.05494645,-0.01768376,0.14980626,0.00236335
 ,-0.00058910,0.00080985,-0.00006743,0.00018519,-0.00073285,0.00826856,
 -0.00004011,0.00366412,0.07114077,-0.06051441,-0.19926798,0.02490797,-
 0.05508297,-0.08154014,-0.09289750,0.12879646,0.35966652,0.00170703,0.
 00002215,0.00064576,-0.00035765,0.00007261,-0.00002417,0.00174252,0.00
 222812,-0.00067216,-0.05281959,0.01149376,0.03484967,-0.00093596,-0.01
 000511,-0.01775126,-0.17605307,-0.01763730,-0.01420303,0.44825156,-0.0
 0128386,0.00035545,-0.00012059,-0.00003606,-0.00009696,-0.00002157,0.0
 0093185,0.00213318,-0.00236352,0.01204744,0.00668375,0.01027255,-0.002
 17254,-0.00568809,-0.00070119,-0.02493506,-0.07592720,-0.01685654,0.01
 005203,0.58089017,0.00124054,0.00012860,0.00039314,-0.00000847,0.00006
 976,0.00029207,0.00455293,-0.00292994,-0.00254598,0.03388888,0.0073406
 2,0.00726902,0.00162978,0.00120819,-0.00360275,-0.03533845,-0.01675159
 ,-0.08950616,-0.06120712,0.05001091,0.61459454,0.00006108,-0.00009302,
 0.00002055,0.00008329,-0.00000119,0.00000183,-0.00032763,-0.00075989,0
 .00087500,0.00157866,-0.00088148,-0.00936461,0.00085617,0.00210125,0.0
 0227724,-0.03862379,0.02984834,-0.02373629,-0.08096749,0.02136990,-0.0
 1411978,0.57555104,-0.00018504,-0.00006001,-0.00005975,0.00000512,0.00
 000376,0.00001407,0.00028590,-0.00008548,0.00027436,0.00100017,-0.0013
 4285,-0.00296899,0.00082406,0.00054933,0.00159351,-0.00118824,0.007106
 28,-0.00100429,0.03138035,-0.15943453,0.06106129,0.02674740,0.53952915
 ,0.00012634,-0.00004143,0.00000109,0.00000816,0.00002085,-0.00000407,-
 0.00044636,-0.00014478,0.00010750,0.00135842,-0.00026466,0.00336147,-0
 .00147303,0.00126727,-0.00124688,-0.00724264,0.00184428,-0.00148407,-0
 .02131564,0.05963705,-0.13482266,-0.02309742,0.04090730,0.55435698,-0.
 00057860,-0.00005735,-0.00019717,0.00003998,-0.00004414,-0.00005237,-0
 .00116334,0.00073001,0.00102981,-0.00395977,-0.00464351,-0.00462761,0.
 00156732,0.00080130,0.00113059,-0.03329558,0.00535726,0.03466523,-0.08
 120989,0.00584011,0.08828337,0.00685198,-0.00153404,-0.01185837,0.1074
 1790,-0.00003920,-0.00000073,-0.00000665,-0.00001075,-0.00000193,-0.00
 001582,-0.00024341,0.00016162,0.00005002,-0.00054084,-0.00141960,-0.00
 243315,0.00191363,0.00085204,0.00038352,-0.00442686,0.00128189,0.00472
 851,0.00904731,-0.05535532,-0.02262104,-0.00960733,0.00198212,0.024669
 23,-0.00933203,0.05350482,-0.00004161,-0.00000939,-0.00000650,-0.00001
 090,0.00000184,-0.00003350,-0.00024013,0.00020264,0.00015385,-0.002304
 41,-0.00049417,-0.00012769,0.00098416,0.00046764,0.00071016,-0.0044719
 4,0.00000895,0.00812996,0.10158889,-0.02134310,-0.28885995,0.00605605,
 -0.00168171,-0.01679475,-0.10309978,0.01979713,0.30506892,-0.00033329,
 0.00003715,-0.00003009,0.00002801,-0.00004640,-0.00003238,-0.00007964,
 0.00032149,0.00000681,0.00260575,-0.00495809,-0.00761161,0.00041497,0.
 00191892,0.00354907,-0.02739162,-0.03402897,-0.01304632,-0.05473059,-0
 .03049177,-0.01037624,0.00392758,0.01150321,0.00512135,0.00411963,0.01
 175476,0.00353417,0.07155136,0.00013035,-0.00000571,0.00004070,0.00000
 739,-0.00000510,-0.00002075,-0.00011134,-0.00010953,0.00020323,0.00088
 610,-0.00088385,-0.00346212,0.00256143,0.00087364,0.00051445,-0.006567
 16,0.00149607,-0.00000846,-0.04046645,-0.27717846,-0.09198683,-0.00239
 921,-0.02052066,-0.00848602,0.00104542,0.00052182,-0.00006118,0.043005
 85,0.29643105,-0.00003596,-0.00000623,0.00000576,0.00002491,-0.0000053
 0,0.00000717,-0.00012727,-0.00031782,0.00000285,0.00232839,0.00056632,
 0.00051887,0.00109767,0.00038451,-0.00119552,-0.00555292,-0.00272342,-
 0.00158526,-0.01678038,-0.09514877,-0.09106806,0.00385414,0.02094456,0
 .00891393,-0.00487746,-0.02619347,-0.00878224,0.02094927,0.10039966,0.
 09410909,-0.00006351,-0.00001388,-0.00002117,0.00003050,-0.00001576,0.
 00001345,0.00002515,-0.00012851,0.00005373,0.00138734,-0.00075162,-0.0
 0129788,-0.00004028,0.00048690,0.00034883,-0.00080394,0.00270907,-0.00
 097015,-0.01073138,-0.00325404,0.00113770,-0.31433708,-0.02402606,-0.0
 2526112,0.00028386,0.00007139,-0.00037200,0.00022920,0.00044180,0.0000
 8204,0.34061275,0.00014081,0.00002616,0.00004337,-0.00001221,-0.000007
 72,0.00000262,-0.00000177,0.00017763,-0.00032185,-0.00085002,0.0004910
 5,0.00227914,-0.00011259,-0.00058516,-0.00067073,0.00560849,-0.0039149
 7,0.00314714,0.02250466,0.00409584,-0.00123556,-0.02558708,-0.04960259
 ,-0.00139972,-0.00055788,0.00088605,-0.00004693,-0.00055721,0.00023540
 ,-0.00102516,0.02594510,0.04983299,-0.00007983,-0.00001392,-0.00001475
 ,0.00000921,0.00000102,-0.00000306,-0.00006114,-0.00002110,0.00016524,
 0.00053174,-0.00069189,-0.00326377,0.00059212,0.00012503,0.00130473,-0
 .00528453,0.00447758,-0.00126444,-0.01838583,-0.00535810,-0.00116771,-
 0.02379125,-0.00101513,-0.04857358,0.00057525,-0.00082511,0.00007452,0
 .00034602,-0.00006338,0.00070165,0.02829101,0.00040313,0.04906964,-0.0
 0008908,0.00001249,-0.00002005,-0.00002186,0.00001668,-0.00000397,0.00
 011347,-0.00006464,0.00001503,-0.00024430,0.00076325,0.00136104,-0.000
 52429,-0.00013873,-0.00066841,0.00217796,-0.00053317,0.00055777,0.0005
 7594,0.01231965,0.00421941,-0.05902217,-0.05287079,-0.02127857,0.00012
 452,-0.00080138,0.00022062,-0.00028155,0.00203160,-0.00159473,-0.00477
 810,-0.02938244,-0.01221908,0.05908849,0.00013922,0.00000238,0.0000323
 6,0.00000317,-0.00000759,-0.00000236,-0.00001704,0.00002275,-0.0000348
 8,-0.00008629,-0.00065637,-0.00064538,0.00029129,0.00025744,0.00040446
 ,-0.00054498,0.00260291,-0.00058691,-0.00585033,-0.02407812,-0.0092558
 5,-0.05075120,-0.26754679,-0.09463033,-0.00012799,0.00093460,0.0000900
 2,0.00179153,-0.00176540,0.00374226,-0.00012585,-0.00070025,-0.0000124
 2,0.05530473,0.29194170,0.00010316,-0.00000455,0.00001012,0.00000281,-
 0.00000860,0.00000275,-0.00007625,0.00016257,-0.00003837,-0.00042903,-
 0.00048902,-0.00027849,0.00052105,-0.00026157,0.00041826,0.00178810,-0
 .00150797,0.00066105,0.00513193,0.02267676,0.00855133,-0.02228419,-0.0
 9681488,-0.08980293,0.00064214,-0.00056495,0.00103344,-0.00229024,0.00
 315785,-0.00246989,0.00005855,-0.00158755,-0.00234162,0.02513648,0.101
 03002,0.09365141,0.00006779,-0.00002366,0.00003989,-0.00002666,0.00002
 811,-0.00001462,-0.00004444,0.00005864,-0.00005002,-0.00082279,0.00027
 397,-0.00116895,-0.00064280,0.00078519,0.00051662,0.00137068,-0.001007
 84,0.00098200,0.00451869,-0.00090257,-0.01324185,-0.09550394,0.0081313
 7,0.10540435,-0.00020049,0.00224117,-0.00194829,0.00004613,-0.00052879
 ,0.00068297,-0.01163026,0.00291013,0.02939898,0.00276067,-0.00001139,-
 0.00816021,0.09979255,-0.00017107,0.00001875,-0.00004263,0.00000284,0.
 00000196,0.00001459,0.00023653,-0.00024995,-0.00003017,0.00085699,0.00
 150763,0.00220224,-0.00040556,-0.00111149,-0.00139479,-0.00004697,0.00
 079886,-0.00280695,-0.01317670,0.00172870,0.02540514,0.01048093,-0.050
 34406,-0.02334590,0.00256947,-0.00341205,0.00300748,-0.00060939,0.0009
 5064,-0.00043360,-0.00128373,-0.00111427,0.00304277,0.01343959,-0.0010
 8951,-0.02586654,-0.01202912,0.05244342,-0.00003989,0.00002834,0.00000
 969,-0.00002005,0.00000763,-0.00001947,-0.00004511,0.00014752,0.000008
 00,-0.00075490,-0.00031486,-0.00180695,0.00108583,-0.00064486,0.001078
 14,-0.00031841,-0.00081301,0.00194616,0.00877127,-0.00059308,-0.019679
 15,0.10321025,-0.02106313,-0.27381661,-0.00161600,0.00305775,-0.000568
 22,-0.00020891,-0.00029801,0.00079484,-0.00208344,0.00038155,0.0052417
 6,0.00439379,-0.00019354,-0.00945233,-0.11258112,0.02021738,0.29628859
 ,-0.00690485,0.01597411,-0.00591315,0.00027772,-0.00076696,0.00042387,
 -0.01776115,-0.01203114,0.00034228,-0.00480620,-0.00705551,0.00374689,
 0.00065429,0.00052074,-0.00097092,-0.00000589,-0.00430896,0.00084058,0
 .00142440,0.00043783,-0.00074531,-0.00020417,0.00020602,0.00007802,0.0
 0001841,0.00002306,0.00008890,-0.00021266,-0.00011864,-0.00007312,-0.0
 0023609,-0.00016851,0.00003750,0.00034522,-0.00018888,-0.00022927,0.00
 029178,0.00014639,0.00024078,0.03133062,0.08524839,-0.05650960,0.03082
 946,-0.00170435,0.00300563,-0.00120700,-0.07809314,0.12229254,-0.03893
 741,-0.00079016,-0.03386176,0.00832100,-0.00438595,0.00146037,-0.00359
 177,-0.00333932,0.00023382,0.00048956,0.00125912,0.00153525,-0.0004437
 2,-0.00053858,-0.00030267,-0.00007845,-0.00010429,0.00006664,0.0000699
 3,0.00016227,-0.00003754,-0.00023835,-0.00009690,0.00022787,-0.0000722
 0,-0.00009650,0.00008830,0.00010457,0.00011029,-0.00013626,0.00009187,
 0.02161524,0.07623751,-0.02773241,0.01969085,-0.00409202,0.00042837,-0
 .00104151,0.00018356,0.02409006,-0.05735631,-0.02069150,0.00227899,0.0
 0435886,0.00053066,0.00148007,0.00117471,0.00220989,-0.00104848,0.0022
 9602,0.00145647,-0.00048736,0.00000153,0.00017333,0.00003151,-0.000214
 32,-0.00016734,-0.00008173,-0.00004673,0.00001361,0.00010862,0.0000851
 8,0.00005696,0.00000609,0.00004755,0.00005326,-0.00010088,0.00010439,0
 .00004416,0.00013394,0.00000742,-0.00000260,0.04574399,0.20914749,0.45
 729628,0.00087525,0.00050532,-0.00002428,-0.00002346,0.00046900,-0.000
 06588,-0.00313633,0.00276888,0.00178123,0.00312965,-0.00218953,-0.0030
 6645,-0.00072421,-0.00002910,0.00076929,-0.00093262,0.00150848,0.00119
 449,-0.00041450,0.00007709,0.00008462,0.00007646,-0.00027943,-0.000123
 51,-0.00001592,-0.00004952,0.00001628,0.00010670,0.00008165,0.00002246
 ,0.00005185,0.00012053,0.00003984,-0.00022491,0.00017401,0.00008497,0.
 00002310,-0.00001020,-0.00003410,-0.00421142,-0.01924613,-0.04485079,0
 .00542038,0.00250819,-0.00109992,0.00165570,0.00020342,-0.00001804,0.0
 0000687,-0.00396524,-0.00536710,-0.01652581,-0.00153089,-0.00395256,0.
 00003987,0.00069571,0.00095404,0.00077612,0.00086717,0.00051871,0.0001
 4288,-0.00092424,0.00033634,0.00000002,0.00007117,0.00006901,0.0000453
 2,0.00005764,-0.00000197,-0.00000917,0.00019664,-0.00000236,0.00005481
 ,0.00004210,-0.00004805,0.00002372,-0.00000033,-0.00000605,-0.00002614
 ,-0.00003550,0.00000763,-0.00001157,-0.01428478,-0.11430011,-0.1782551
 3,0.01609896,0.12291042,0.00311993,-0.00028553,0.00126959,0.00011550,0
 .00005569,-0.00013552,-0.00273869,0.01293732,0.00325296,-0.00322531,0.
 00019140,-0.00000473,0.00100201,0.00009161,0.00043579,0.00119256,-0.00
 049395,-0.00095323,-0.00016058,-0.00009234,-0.00002102,0.00006696,0.00
 002711,-0.00002807,0.00008407,0.00002076,-0.00001159,-0.00001950,-0.00
 001433,-0.00001014,0.00001438,-0.00001699,0.00001814,-0.00001843,-0.00
 004184,0.00001112,0.00000631,0.00002355,-0.00002186,-0.04361104,-0.204
 48498,-0.43706472,0.04417184,0.19208251,0.43326330\\0.00255362,0.00588
 534,-0.00040645,0.00006203,-0.00019732,0.00004565,0.00149316,-0.040472
 98,0.01060385,-0.00080777,-0.00116207,0.00017591,-0.00148218,0.0011977
 4,-0.00113593,0.00016728,0.00085674,-0.00027828,0.00018054,0.00030660,
 -0.00015571,-0.00014241,0.00008059,-0.00007818,0.00002845,0.00001018,-
 0.00000382,0.00003214,0.00001546,-0.00000851,-0.00001353,0.00000233,0.
 00000166,-0.00001815,0.00000688,-0.00000906,-0.00002003,0.00000553,-0.
 00000137,-0.00222351,0.03267819,-0.00894396,0.00019034,0.00078677,0.00
 019418\\\@


 I think that all right-thinking people in this
 country are sick and tired of being told that
 ordinary, decent people are fed up in this country
 with being sick and tired.  I'm certainly not!
 But I'm sick and tired of being told that I am!
                               -- Monty Python
 Job cpu time:       0 days  0 hours 54 minutes 33.4 seconds.
 Elapsed time:       0 days  0 hours  2 minutes 16.7 seconds.
 File lengths (MBytes):  RWF=    153 Int=      0 D2E=      0 Chk=      6 Scr=      1
 Normal termination of Gaussian 16 at Sat Aug 16 20:27:24 2025.
