 Entering Gaussian System, Link 0=g16
 Initial command:
 /opt/g16/l1.exe "/home/aayush/scratches/g16/Gau-59176.inp" -scrdir="/home/aayush/scratches/g16/"
 Entering Link 1 = /opt/g16/l1.exe PID=     59179.
  
 Copyright (c) 1988,1990,1992,1993,1995,1998,2003,2009,2016,
            Gaussian, Inc.  All Rights Reserved.
  
 This is part of the Gaussian(R) 16 program.  It is based on
 the Gaussian(R) 09 system (copyright 2009, Gaussian, Inc.),
 the Gaussian(R) 03 system (copyright 2003, Gaussian, Inc.),
 the Gaussian(R) 98 system (copyright 1998, Gaussian, Inc.),
 the Gaussian(R) 94 system (copyright 1995, Gaussian, Inc.),
 the Gaussian 92(TM) system (copyright 1992, Gaussian, Inc.),
 the Gaussian 90(TM) system (copyright 1990, Gaussian, Inc.),
 the Gaussian 88(TM) system (copyright 1988, Gaussian, Inc.),
 the Gaussian 86(TM) system (copyright 1986, Carnegie Mellon
 University), and the Gaussian 82(TM) system (copyright 1983,
 Carnegie Mellon University). Gaussian is a federally registered
 trademark of Gaussian, Inc.
  
 This software contains proprietary and confidential information,
 including trade secrets, belonging to Gaussian, Inc.
  
 This software is provided under written license and may be
 used, copied, transmitted, or stored only in accord with that
 written license.
  
 The following legend is applicable only to US Government
 contracts under FAR:
  
                    RESTRICTED RIGHTS LEGEND
  
 Use, reproduction and disclosure by the US Government is
 subject to restrictions as set forth in subparagraphs (a)
 and (c) of the Commercial Computer Software - Restricted
 Rights clause in FAR 52.227-19.
  
 Gaussian, Inc.
 340 Quinnipiac St., Bldg. 40, Wallingford CT 06492
  
  
 ---------------------------------------------------------------
 Warning -- This program may not be used in any manner that
 competes with the business of Gaussian, Inc. or will provide
 assistance to any competitor of Gaussian, Inc.  The licensee
 of this program is prohibited from giving any competitor of
 Gaussian, Inc. access to this program.  By using this program,
 the user acknowledges that Gaussian, Inc. is engaged in the
 business of creating and licensing software in the field of
 computational chemistry and represents and warrants to the
 licensee that it is not a competitor of Gaussian, Inc. and that
 it will not use this program in any manner prohibited above.
 ---------------------------------------------------------------
  

 Cite this work as:
 Gaussian 16, Revision A.03,
 M. J. Frisch, G. W. Trucks, H. B. Schlegel, G. E. Scuseria, 
 M. A. Robb, J. R. Cheeseman, G. Scalmani, V. Barone, 
 G. A. Petersson, H. Nakatsuji, X. Li, M. Caricato, A. V. Marenich, 
 J. Bloino, B. G. Janesko, R. Gomperts, B. Mennucci, H. P. Hratchian, 
 J. V. Ortiz, A. F. Izmaylov, J. L. Sonnenberg, D. Williams-Young, 
 F. Ding, F. Lipparini, F. Egidi, J. Goings, B. Peng, A. Petrone, 
 T. Henderson, D. Ranasinghe, V. G. Zakrzewski, J. Gao, N. Rega, 
 G. Zheng, W. Liang, M. Hada, M. Ehara, K. Toyota, R. Fukuda, 
 J. Hasegawa, M. Ishida, T. Nakajima, Y. Honda, O. Kitao, H. Nakai, 
 T. Vreven, K. Throssell, J. A. Montgomery, Jr., J. E. Peralta, 
 F. Ogliaro, M. J. Bearpark, J. J. Heyd, E. N. Brothers, K. N. Kudin, 
 V. N. Staroverov, T. A. Keith, R. Kobayashi, J. Normand, 
 K. Raghavachari, A. P. Rendell, J. C. Burant, S. S. Iyengar, 
 J. Tomasi, M. Cossi, J. M. Millam, M. Klene, C. Adamo, R. Cammi, 
 J. W. Ochterski, R. L. Martin, K. Morokuma, O. Farkas, 
 J. B. Foresman, and D. J. Fox, Gaussian, Inc., Wallingford CT, 2016.
 
 ******************************************
 Gaussian 16:  ES64L-G16RevA.03 25-Dec-2016
                23-Jun-2025 
 ******************************************
 %nprocshared=24
 Will use up to   24 processors via shared memory.
 %mem=12GB
 %chk=ethyl_propiolate_ts1.chk
 --------------------------
 # freq 6-311++g(d,p) m062x
 --------------------------
 1/10=4,30=1,38=1/1,3;
 2/12=2,17=6,18=5,40=1/2;
 3/5=4,6=6,7=1111,11=2,25=1,30=1,71=2,74=-55,140=1/1,2,3;
 4//1;
 5/5=2,38=5,98=1/2;
 8/6=4,10=90,11=11/1;
 11/6=1,8=1,9=11,15=111,16=1/1,2,10;
 10/6=1/2;
 6/7=2,8=2,9=2,10=2,28=1/1;
 7/8=1,10=1,25=1/1,2,3,16;
 1/10=4,30=1/3;
 99//99;
 -------------------
 Title Card Required
 -------------------
 Symbolic Z-matrix:
 Charge =  0 Multiplicity = 2
 C                    -2.8041   -0.43693  -0.39869 
 H                    -3.84742  -0.47518  -0.61045 
 C                    -1.63065  -0.32056  -0.13049 
 C                    -0.22062  -0.60281   0.15781 
 O                     0.14416  -1.16314   1.1501 
 O                     0.56017  -0.184    -0.83548 
 C                     1.97944  -0.3342   -0.62486 
 C                     2.50334   0.76028   0.28342 
 H                     2.40437  -0.27022  -1.62496 
 H                     2.16929  -1.32532  -0.21145 
 H                     3.58601   0.66466   0.38624 
 H                     2.2785    1.74223  -0.13516 
 H                     2.05364   0.68533   1.27372 
 O                    -1.46081   1.66784   0.39798 
 H                    -1.55704   2.01827  -0.5019 
 

 GradGradGradGradGradGradGradGradGradGradGradGradGradGradGradGradGradGrad
 Berny optimization.
 Initialization pass.
 Trust Radius=3.00D-01 FncErr=1.00D-07 GrdErr=1.00D-07 EigMax=2.50D+02 EigMin=1.00D-04
 Number of steps in this run=      2 maximum allowed number of steps=      2.
 GradGradGradGradGradGradGradGradGradGradGradGradGradGradGradGradGradGrad

                          Input orientation:                          
 ---------------------------------------------------------------------
 Center     Atomic      Atomic             Coordinates (Angstroms)
 Number     Number       Type             X           Y           Z
 ---------------------------------------------------------------------
      1          6           0       -2.804103   -0.436930   -0.398689
      2          1           0       -3.847418   -0.475176   -0.610452
      3          6           0       -1.630645   -0.320564   -0.130493
      4          6           0       -0.220619   -0.602805    0.157808
      5          8           0        0.144158   -1.163136    1.150104
      6          8           0        0.560173   -0.184001   -0.835481
      7          6           0        1.979444   -0.334203   -0.624860
      8          6           0        2.503339    0.760275    0.283424
      9          1           0        2.404373   -0.270220   -1.624961
     10          1           0        2.169291   -1.325319   -0.211448
     11          1           0        3.586014    0.664663    0.386236
     12          1           0        2.278495    1.742225   -0.135156
     13          1           0        2.053641    0.685329    1.273721
     14          8           0       -1.460813    1.667836    0.397978
     15          1           0       -1.557038    2.018274   -0.501896
 ---------------------------------------------------------------------
                    Distance matrix (angstroms):
                    1          2          3          4          5
     1  C    0.000000
     2  H    1.065276   0.000000
     3  C    1.209328   2.273400   0.000000
     4  C    2.647941   3.709472   1.466612   0.000000
     5  O    3.408574   4.416506   2.345161   1.196530   0.000000
     6  O    3.401928   4.422927   2.305502   1.331036   2.252625
     7  C    4.789992   5.828585   3.643807   2.350530   2.684381
     8  C    5.483386   6.531268   4.292944   3.048559   3.164866
     9  H    5.353481   6.336886   4.303178   3.190527   3.688747
    10  H    5.055585   6.089559   3.931361   2.523895   2.445668
    11  H    6.531708   7.586075   5.333968   4.018595   3.971236
    12  H    5.536332   6.532196   4.420011   3.439559   3.827324
    13  H    5.258716   6.302331   4.069103   2.841973   2.660494
    14  O    2.620906   3.362338   2.064427   2.598379   3.340064
    15  H    2.755694   3.387465   2.369287   3.015175   3.967939
                    6          7          8          9         10
     6  O    0.000000
     7  C    1.442655   0.000000
     8  C    2.433002   1.515694   0.000000
     9  H    2.007931   1.088513   2.171094   0.000000
    10  H    2.069127   1.090533   2.169375   1.779471   0.000000
    11  H    3.371726   2.145021   1.091740   2.513005   2.514828
    12  H    2.674590   2.154250   1.090867   2.507050   3.070435
    13  H    2.726704   2.156284   1.090199   3.072205   2.502360
    14  O    3.005845   4.109711   4.068328   4.773678   4.744263
    15  H    3.073089   4.249232   4.322725   4.710760   5.014928
                   11         12         13         14         15
    11  H    0.000000
    12  H    1.772737   0.000000
    13  H    1.770939   1.775535   0.000000
    14  O    5.145576   3.777855   3.752817   0.000000
    15  H    5.391848   3.862902   4.238698   0.970484   0.000000
 Stoichiometry    C5H7O3(2)
 Framework group  C1[X(C5H7O3)]
 Deg. of freedom    39
 Full point group                 C1      NOp   1
 Largest Abelian subgroup         C1      NOp   1
 Largest concise Abelian subgroup C1      NOp   1
                         Standard orientation:                         
 ---------------------------------------------------------------------
 Center     Atomic      Atomic             Coordinates (Angstroms)
 Number     Number       Type             X           Y           Z
 ---------------------------------------------------------------------
      1          6           0       -2.804103   -0.436930   -0.398689
      2          1           0       -3.847418   -0.475177   -0.610452
      3          6           0       -1.630645   -0.320564   -0.130493
      4          6           0       -0.220619   -0.602805    0.157808
      5          8           0        0.144158   -1.163136    1.150104
      6          8           0        0.560173   -0.184001   -0.835481
      7          6           0        1.979444   -0.334203   -0.624860
      8          6           0        2.503339    0.760275    0.283424
      9          1           0        2.404373   -0.270220   -1.624961
     10          1           0        2.169291   -1.325319   -0.211448
     11          1           0        3.586014    0.664663    0.386236
     12          1           0        2.278495    1.742225   -0.135156
     13          1           0        2.053641    0.685329    1.273721
     14          8           0       -1.460813    1.667836    0.397978
     15          1           0       -1.557038    2.018274   -0.501896
 ---------------------------------------------------------------------
 Rotational constants (GHZ):           3.5870430           1.3073952           1.1713753
 Standard basis: 6-311++G(d,p) (5D, 7F)
 There are   233 symmetry adapted cartesian basis functions of A   symmetry.
 There are   225 symmetry adapted basis functions of A   symmetry.
   225 basis functions,   351 primitive gaussians,   233 cartesian basis functions
    31 alpha electrons       30 beta electrons
       nuclear repulsion energy       361.5758581258 Hartrees.
 NAtoms=   15 NActive=   15 NUniq=   15 SFac= 1.00D+00 NAtFMM=   60 NAOKFM=F Big=F
 Integral buffers will be    131072 words long.
 Raffenetti 2 integral format.
 Two-electron integral symmetry is turned on.
 One-electron integrals computed using PRISM.
 NBasis=   225 RedAO= T EigKep=  1.74D-06  NBF=   225
 NBsUse=   225 1.00D-06 EigRej= -1.00D+00 NBFU=   225
 ExpMin= 3.60D-02 ExpMax= 8.59D+03 ExpMxC= 1.30D+03 IAcc=3 IRadAn=         5 AccDes= 0.00D+00
 Harris functional with IExCor= 1009 and IRadAn=       5 diagonalized for initial guess.
 HarFok:  IExCor= 1009 AccDes= 0.00D+00 IRadAn=         5 IDoV= 1 UseB2=F ITyADJ=14
 ICtDFT=  3500011 ScaDFX=  1.000000  1.000000  1.000000  1.000000
 FoFCou: FMM=F IPFlag=           0 FMFlag=      100000 FMFlg1=           0
         NFxFlg=           0 DoJE=T BraDBF=F KetDBF=T FulRan=T
         wScrn=  0.000000 ICntrl=       500 IOpCl=  0 I1Cent=   200000004 NGrid=           0
         NMat0=    1 NMatS0=      1 NMatT0=    0 NMatD0=    1 NMtDS0=    0 NMtDT0=    0
 Petite list used in FoFCou.
 Initial guess <Sx>= 0.0000 <Sy>= 0.0000 <Sz>= 0.5000 <S**2>= 0.7500 S= 0.5000
 Requested convergence on RMS density matrix=1.00D-08 within 128 cycles.
 Requested convergence on MAX density matrix=1.00D-06.
 Requested convergence on             energy=1.00D-06.
 No special actions if energy rises.
 Restarting incremental Fock formation.
 SCF Done:  E(UM062X) =  -420.202484884     A.U. after   23 cycles
            NFock= 23  Conv=0.69D-08     -V/T= 2.0032
 <Sx>= 0.0000 <Sy>= 0.0000 <Sz>= 0.5000 <S**2>= 0.7682 S= 0.5091
 <L.S>=  0.00000000000    
 Annihilation of the first spin contaminant:
 S**2 before annihilation     0.7682,   after     0.7501
 DoSCS=F DFT=T ScalE2(SS,OS)=  1.000000  1.000000
 Range of M.O.s used for correlation:     1   225
 NBasis=   225 NAE=    31 NBE=    30 NFC=     0 NFV=     0
 NROrb=    225 NOA=    31 NOB=    30 NVA=   194 NVB=   195

 **** Warning!!: The largest alpha MO coefficient is  0.17259358D+03


 **** Warning!!: The largest beta MO coefficient is  0.19783916D+03

 Symmetrizing basis deriv contribution to polar:
 IMax=3 JMax=2 DiffMx= 0.00D+00
 G2DrvN: will do    16 centers at a time, making    1 passes.
 Calling FoFCou, ICntrl=  3107 FMM=F I1Cent=   0 AccDes= 0.00D+00.
 End of G2Drv F.D. properties file   721 does not exist.
 End of G2Drv F.D. properties file   722 does not exist.
 End of G2Drv F.D. properties file   788 does not exist.
          IDoAtm=111111111111111
          Differentiating once with respect to electric field.
                with respect to dipole field.
          Differentiating once with respect to nuclear coordinates.
 Keep R1 and R2 ints in memory in canonical form, NReq=671901991.
          There are    48 degrees of freedom in the 1st order CPHF.  IDoFFX=6 NUNeed=     3.
     45 vectors produced by pass  0 Test12= 2.47D-14 2.08D-09 XBig12= 9.38D+01 3.40D+00.
 AX will form    45 AO Fock derivatives at one time.
     45 vectors produced by pass  1 Test12= 2.47D-14 2.08D-09 XBig12= 1.95D+01 6.50D-01.
     45 vectors produced by pass  2 Test12= 2.47D-14 2.08D-09 XBig12= 7.06D-01 1.31D-01.
     45 vectors produced by pass  3 Test12= 2.47D-14 2.08D-09 XBig12= 1.03D-02 1.45D-02.
     45 vectors produced by pass  4 Test12= 2.47D-14 2.08D-09 XBig12= 9.68D-05 1.50D-03.
     45 vectors produced by pass  5 Test12= 2.47D-14 2.08D-09 XBig12= 9.83D-07 9.62D-05.
     39 vectors produced by pass  6 Test12= 2.47D-14 2.08D-09 XBig12= 9.93D-09 1.14D-05.
     22 vectors produced by pass  7 Test12= 2.47D-14 2.08D-09 XBig12= 6.16D-11 7.23D-07.
      5 vectors produced by pass  8 Test12= 2.47D-14 2.08D-09 XBig12= 5.10D-13 5.58D-08.
      3 vectors produced by pass  9 Test12= 2.47D-14 2.08D-09 XBig12= 5.68D-15 7.53D-09.
      2 vectors produced by pass 10 Test12= 2.47D-14 2.08D-09 XBig12= 1.54D-15 6.89D-09.
      1 vectors produced by pass 11 Test12= 2.47D-14 2.08D-09 XBig12= 3.05D-16 2.12D-09.
 InvSVY:  IOpt=1 It=  1 EMax= 5.33D-15
 Solved reduced A of dimension   342 with    48 vectors.
 Isotropic polarizability for W=    0.000000       74.31 Bohr**3.
 End of Minotr F.D. properties file   721 does not exist.
 End of Minotr F.D. properties file   722 does not exist.
 End of Minotr F.D. properties file   788 does not exist.

 **********************************************************************

            Population analysis using the SCF density.

 **********************************************************************

 Orbital symmetries:
 Alpha Orbitals:
       Occupied  (A) (A) (A) (A) (A) (A) (A) (A) (A) (A) (A) (A)
                 (A) (A) (A) (A) (A) (A) (A) (A) (A) (A) (A) (A)
                 (A) (A) (A) (A) (A) (A) (A)
       Virtual   (A) (A) (A) (A) (A) (A) (A) (A) (A) (A) (A) (A)
                 (A) (A) (A) (A) (A) (A) (A) (A) (A) (A) (A) (A)
                 (A) (A) (A) (A) (A) (A) (A) (A) (A) (A) (A) (A)
                 (A) (A) (A) (A) (A) (A) (A) (A) (A) (A) (A) (A)
                 (A) (A) (A) (A) (A) (A) (A) (A) (A) (A) (A) (A)
                 (A) (A) (A) (A) (A) (A) (A) (A) (A) (A) (A) (A)
                 (A) (A) (A) (A) (A) (A) (A) (A) (A) (A) (A) (A)
                 (A) (A) (A) (A) (A) (A) (A) (A) (A) (A) (A) (A)
                 (A) (A) (A) (A) (A) (A) (A) (A) (A) (A) (A) (A)
                 (A) (A) (A) (A) (A) (A) (A) (A) (A) (A) (A) (A)
                 (A) (A) (A) (A) (A) (A) (A) (A) (A) (A) (A) (A)
                 (A) (A) (A) (A) (A) (A) (A) (A) (A) (A) (A) (A)
                 (A) (A) (A) (A) (A) (A) (A) (A) (A) (A) (A) (A)
                 (A) (A) (A) (A) (A) (A) (A) (A) (A) (A) (A) (A)
                 (A) (A) (A) (A) (A) (A) (A) (A) (A) (A) (A) (A)
                 (A) (A) (A) (A) (A) (A) (A) (A) (A) (A) (A) (A)
                 (A) (A)
 Beta  Orbitals:
       Occupied  (A) (A) (A) (A) (A) (A) (A) (A) (A) (A) (A) (A)
                 (A) (A) (A) (A) (A) (A) (A) (A) (A) (A) (A) (A)
                 (A) (A) (A) (A) (A) (A)
       Virtual   (A) (A) (A) (A) (A) (A) (A) (A) (A) (A) (A) (A)
                 (A) (A) (A) (A) (A) (A) (A) (A) (A) (A) (A) (A)
                 (A) (A) (A) (A) (A) (A) (A) (A) (A) (A) (A) (A)
                 (A) (A) (A) (A) (A) (A) (A) (A) (A) (A) (A) (A)
                 (A) (A) (A) (A) (A) (A) (A) (A) (A) (A) (A) (A)
                 (A) (A) (A) (A) (A) (A) (A) (A) (A) (A) (A) (A)
                 (A) (A) (A) (A) (A) (A) (A) (A) (A) (A) (A) (A)
                 (A) (A) (A) (A) (A) (A) (A) (A) (A) (A) (A) (A)
                 (A) (A) (A) (A) (A) (A) (A) (A) (A) (A) (A) (A)
                 (A) (A) (A) (A) (A) (A) (A) (A) (A) (A) (A) (A)
                 (A) (A) (A) (A) (A) (A) (A) (A) (A) (A) (A) (A)
                 (A) (A) (A) (A) (A) (A) (A) (A) (A) (A) (A) (A)
                 (A) (A) (A) (A) (A) (A) (A) (A) (A) (A) (A) (A)
                 (A) (A) (A) (A) (A) (A) (A) (A) (A) (A) (A) (A)
                 (A) (A) (A) (A) (A) (A) (A) (A) (A) (A) (A) (A)
                 (A) (A) (A) (A) (A) (A) (A) (A) (A) (A) (A) (A)
                 (A) (A) (A)
 The electronic state is 2-A.
 Alpha  occ. eigenvalues --  -19.68275 -19.66159 -19.63165 -10.70669 -10.60580
 Alpha  occ. eigenvalues --  -10.58881 -10.58292 -10.53616  -1.25724  -1.16478
 Alpha  occ. eigenvalues --   -1.12214  -0.91008  -0.87530  -0.78217  -0.70747
 Alpha  occ. eigenvalues --   -0.64609  -0.62041  -0.58693  -0.56953  -0.54384
 Alpha  occ. eigenvalues --   -0.53361  -0.50180  -0.48738  -0.46220  -0.45256
 Alpha  occ. eigenvalues --   -0.41992  -0.41860  -0.39158  -0.38488  -0.36833
 Alpha  occ. eigenvalues --   -0.34489
 Alpha virt. eigenvalues --   -0.00768  -0.00505   0.00488   0.01352   0.02202
 Alpha virt. eigenvalues --    0.02796   0.03496   0.04511   0.05449   0.06063
 Alpha virt. eigenvalues --    0.07123   0.07852   0.07944   0.10166   0.10553
 Alpha virt. eigenvalues --    0.10685   0.11497   0.12662   0.13164   0.13438
 Alpha virt. eigenvalues --    0.13946   0.14551   0.15144   0.15491   0.15694
 Alpha virt. eigenvalues --    0.17148   0.17377   0.18176   0.19574   0.20630
 Alpha virt. eigenvalues --    0.20661   0.22317   0.22727   0.23600   0.24667
 Alpha virt. eigenvalues --    0.25088   0.26831   0.28751   0.29835   0.30103
 Alpha virt. eigenvalues --    0.30907   0.32408   0.32549   0.32919   0.34268
 Alpha virt. eigenvalues --    0.34823   0.36358   0.36760   0.37251   0.40307
 Alpha virt. eigenvalues --    0.41961   0.42735   0.44848   0.46879   0.49667
 Alpha virt. eigenvalues --    0.50546   0.52974   0.54788   0.56935   0.58223
 Alpha virt. eigenvalues --    0.59951   0.60918   0.63344   0.65651   0.67195
 Alpha virt. eigenvalues --    0.69834   0.70212   0.70443   0.72038   0.72705
 Alpha virt. eigenvalues --    0.73859   0.75521   0.77622   0.77928   0.79764
 Alpha virt. eigenvalues --    0.84537   0.86952   0.91072   0.94503   0.98085
 Alpha virt. eigenvalues --    1.01325   1.02661   1.06277   1.08590   1.10820
 Alpha virt. eigenvalues --    1.15949   1.18177   1.18818   1.20458   1.23494
 Alpha virt. eigenvalues --    1.24529   1.26800   1.30254   1.32607   1.33758
 Alpha virt. eigenvalues --    1.35703   1.36737   1.37854   1.40263   1.44818
 Alpha virt. eigenvalues --    1.47333   1.50435   1.51151   1.51793   1.56137
 Alpha virt. eigenvalues --    1.58598   1.59776   1.61008   1.62384   1.64779
 Alpha virt. eigenvalues --    1.66565   1.66739   1.70538   1.72636   1.75230
 Alpha virt. eigenvalues --    1.76466   1.81589   1.84113   1.86955   1.88472
 Alpha virt. eigenvalues --    1.91316   1.95755   1.99093   2.03329   2.05299
 Alpha virt. eigenvalues --    2.09634   2.11017   2.14020   2.21070   2.31504
 Alpha virt. eigenvalues --    2.35525   2.37914   2.46225   2.51692   2.53565
 Alpha virt. eigenvalues --    2.54359   2.56462   2.61024   2.62332   2.63441
 Alpha virt. eigenvalues --    2.65363   2.66343   2.72082   2.73454   2.75500
 Alpha virt. eigenvalues --    2.80544   2.82558   2.85237   2.90334   2.92046
 Alpha virt. eigenvalues --    2.94598   2.96911   2.99068   3.03450   3.05895
 Alpha virt. eigenvalues --    3.10921   3.11865   3.15847   3.17913   3.20784
 Alpha virt. eigenvalues --    3.26096   3.26748   3.31584   3.36377   3.38089
 Alpha virt. eigenvalues --    3.45081   3.50195   3.65777   3.75519   3.85518
 Alpha virt. eigenvalues --    3.86036   3.88398   3.91414   4.03039   4.12714
 Alpha virt. eigenvalues --    4.19219   4.28256   5.12619   5.12830   5.18039
 Alpha virt. eigenvalues --    5.20254   5.32496   5.47696   5.57869   5.73411
 Alpha virt. eigenvalues --    5.94672  23.61416  23.93018  23.94332  24.05913
 Alpha virt. eigenvalues --   25.05772  49.96731  50.00821  50.11456
  Beta  occ. eigenvalues --  -19.68280 -19.64702 -19.63184 -10.70648 -10.60580
  Beta  occ. eigenvalues --  -10.58915 -10.58086 -10.53617  -1.25730  -1.16517
  Beta  occ. eigenvalues --   -1.06015  -0.90490  -0.87097  -0.78009  -0.70533
  Beta  occ. eigenvalues --   -0.64524  -0.61584  -0.58622  -0.56675  -0.53481
  Beta  occ. eigenvalues --   -0.51715  -0.49147  -0.46677  -0.45287  -0.41981
  Beta  occ. eigenvalues --   -0.40737  -0.38793  -0.38251  -0.37255  -0.36426
  Beta virt. eigenvalues --   -0.09425  -0.00412   0.00138   0.00626   0.01672
  Beta virt. eigenvalues --    0.02288   0.02920   0.03466   0.04637   0.05543
  Beta virt. eigenvalues --    0.06049   0.07214   0.07711   0.08018   0.10310
  Beta virt. eigenvalues --    0.10673   0.10864   0.11758   0.12641   0.13207
  Beta virt. eigenvalues --    0.13601   0.14020   0.14697   0.15224   0.15696
  Beta virt. eigenvalues --    0.15878   0.17021   0.17546   0.18237   0.20031
  Beta virt. eigenvalues --    0.20586   0.20736   0.22520   0.23022   0.23689
  Beta virt. eigenvalues --    0.24313   0.25119   0.26894   0.28716   0.29845
  Beta virt. eigenvalues --    0.30086   0.30942   0.32422   0.32640   0.32923
  Beta virt. eigenvalues --    0.34252   0.34836   0.36384   0.36822   0.37235
  Beta virt. eigenvalues --    0.40300   0.42120   0.42693   0.44860   0.46902
  Beta virt. eigenvalues --    0.49683   0.50654   0.53062   0.54847   0.57027
  Beta virt. eigenvalues --    0.58709   0.60326   0.61239   0.63476   0.65655
  Beta virt. eigenvalues --    0.67214   0.69840   0.70270   0.70560   0.72107
  Beta virt. eigenvalues --    0.72590   0.73900   0.75513   0.77615   0.77955
  Beta virt. eigenvalues --    0.79766   0.84582   0.86961   0.91121   0.94853
  Beta virt. eigenvalues --    0.98100   1.01397   1.03408   1.06569   1.08642
  Beta virt. eigenvalues --    1.12860   1.16325   1.18588   1.19277   1.20896
  Beta virt. eigenvalues --    1.23595   1.24795   1.27177   1.30526   1.33217
  Beta virt. eigenvalues --    1.34892   1.36007   1.36922   1.38087   1.40932
  Beta virt. eigenvalues --    1.45392   1.47671   1.50587   1.51435   1.52688
  Beta virt. eigenvalues --    1.56677   1.58670   1.59796   1.61066   1.62385
  Beta virt. eigenvalues --    1.64780   1.66589   1.66770   1.70540   1.72828
  Beta virt. eigenvalues --    1.75234   1.76816   1.81677   1.84381   1.87045
  Beta virt. eigenvalues --    1.88744   1.91427   1.96428   1.99115   2.03442
  Beta virt. eigenvalues --    2.05418   2.09855   2.12101   2.14036   2.21093
  Beta virt. eigenvalues --    2.31521   2.35540   2.38157   2.46308   2.51699
  Beta virt. eigenvalues --    2.53638   2.54371   2.56473   2.61505   2.62514
  Beta virt. eigenvalues --    2.63841   2.65602   2.66405   2.72383   2.73499
  Beta virt. eigenvalues --    2.75809   2.81272   2.82640   2.87646   2.90779
  Beta virt. eigenvalues --    2.94022   2.95324   2.97556   2.99538   3.04840
  Beta virt. eigenvalues --    3.07255   3.11652   3.14947   3.16137   3.19694
  Beta virt. eigenvalues --    3.22115   3.26596   3.28312   3.31630   3.36879
  Beta virt. eigenvalues --    3.38031   3.45040   3.50841   3.65757   3.75629
  Beta virt. eigenvalues --    3.85533   3.86094   3.90089   3.92750   4.03058
  Beta virt. eigenvalues --    4.12681   4.19155   4.28254   5.13556   5.16581
  Beta virt. eigenvalues --    5.20506   5.23065   5.32495   5.47685   5.60318
  Beta virt. eigenvalues --    5.73411   5.94661  23.61480  23.93023  23.94338
  Beta virt. eigenvalues --   24.05913  25.06135  49.96256  50.00780  50.11479
          Condensed to atoms (all electrons):
               1          2          3          4          5          6
     1  C   25.821557   0.703390  -8.257162 -11.299323   0.043474   0.140354
     2  H    0.703390   0.434418  -0.223854  -0.099467  -0.001974  -0.001492
     3  C   -8.257162  -0.223854  15.553477  -2.167983   0.275968  -0.234573
     4  C  -11.299323  -0.099467  -2.167983  20.027838   0.087908  -0.078115
     5  O    0.043474  -0.001974   0.275968   0.087908   7.970319  -0.144958
     6  O    0.140354  -0.001492  -0.234573  -0.078115  -0.144958   8.281299
     7  C   -0.172749  -0.000830  -0.374118   0.408795   0.041647   0.148601
     8  C    0.152186   0.000253   0.174424  -0.421760  -0.067480  -0.035882
     9  H    0.000994   0.000085   0.001191   0.007824   0.005236  -0.090483
    10  H   -0.040683  -0.000254  -0.086144   0.117410  -0.020913  -0.013009
    11  H    0.005527   0.000041   0.013483  -0.014619  -0.001867   0.016384
    12  H   -0.002326   0.000067  -0.016651   0.019953   0.000834  -0.000952
    13  H    0.010000  -0.000200   0.015081  -0.053963   0.007159  -0.018337
    14  O   -0.295672  -0.005693   0.424206  -0.240512  -0.006027   0.032074
    15  H   -0.136740  -0.003099   0.116948   0.038632   0.000208  -0.002819
               7          8          9         10         11         12
     1  C   -0.172749   0.152186   0.000994  -0.040683   0.005527  -0.002326
     2  H   -0.000830   0.000253   0.000085  -0.000254   0.000041   0.000067
     3  C   -0.374118   0.174424   0.001191  -0.086144   0.013483  -0.016651
     4  C    0.408795  -0.421760   0.007824   0.117410  -0.014619   0.019953
     5  O    0.041647  -0.067480   0.005236  -0.020913  -0.001867   0.000834
     6  O    0.148601  -0.035882  -0.090483  -0.013009   0.016384  -0.000952
     7  C    5.457441   0.004508   0.445340   0.414771  -0.051765  -0.034126
     8  C    0.004508   5.488936  -0.062873  -0.033115   0.401662   0.414510
     9  H    0.445340  -0.062873   0.537217  -0.037344   0.000480  -0.011780
    10  H    0.414771  -0.033115  -0.037344   0.520110  -0.005952   0.006115
    11  H   -0.051765   0.401662   0.000480  -0.005952   0.532535  -0.033993
    12  H   -0.034126   0.414510  -0.011780   0.006115  -0.033993   0.546411
    13  H    0.002579   0.381632   0.011337  -0.011660  -0.032993  -0.046233
    14  O   -0.017538   0.026936   0.000135  -0.002202   0.002195  -0.001814
    15  H    0.003008   0.000146   0.000428  -0.000460   0.000080  -0.001110
              13         14         15
     1  C    0.010000  -0.295672  -0.136740
     2  H   -0.000200  -0.005693  -0.003099
     3  C    0.015081   0.424206   0.116948
     4  C   -0.053963  -0.240512   0.038632
     5  O    0.007159  -0.006027   0.000208
     6  O   -0.018337   0.032074  -0.002819
     7  C    0.002579  -0.017538   0.003008
     8  C    0.381632   0.026936   0.000146
     9  H    0.011337   0.000135   0.000428
    10  H   -0.011660  -0.002202  -0.000460
    11  H   -0.032993   0.002195   0.000080
    12  H   -0.046233  -0.001814  -0.001110
    13  H    0.540078  -0.000579   0.000601
    14  O   -0.000579   8.054452   0.253560
    15  H    0.000601   0.253560   0.509636
          Atomic-Atomic Spin Densities.
               1          2          3          4          5          6
     1  C    2.219665   0.057779  -0.734414  -0.768354  -0.003149  -0.053757
     2  H    0.057779  -0.008711  -0.040015  -0.018895   0.000017  -0.000549
     3  C   -0.734414  -0.040015   0.517519   0.131608  -0.004450  -0.002787
     4  C   -0.768354  -0.018895   0.131608   0.403394   0.011018   0.042746
     5  O   -0.003149   0.000017  -0.004450   0.011018  -0.012688  -0.000467
     6  O   -0.053757  -0.000549  -0.002787   0.042746  -0.000467   0.004519
     7  C   -0.052721  -0.000448  -0.041186   0.061098  -0.000686   0.006999
     8  C    0.026926   0.000180   0.029014  -0.035377   0.000577  -0.004753
     9  H   -0.002422  -0.000025  -0.003033   0.003359   0.000011   0.000233
    10  H    0.002729   0.000004   0.003781  -0.005671   0.000125   0.000011
    11  H    0.000674   0.000006   0.000707  -0.000732   0.000011  -0.000144
    12  H   -0.002887  -0.000020  -0.002733   0.004883  -0.000094   0.000282
    13  H   -0.008509  -0.000030  -0.015146   0.019379  -0.000413   0.000376
    14  O   -0.344931  -0.003922   0.013101   0.193371   0.001770   0.004723
    15  H    0.026584   0.000294  -0.004862  -0.017921  -0.000090  -0.000087
               7          8          9         10         11         12
     1  C   -0.052721   0.026926  -0.002422   0.002729   0.000674  -0.002887
     2  H   -0.000448   0.000180  -0.000025   0.000004   0.000006  -0.000020
     3  C   -0.041186   0.029014  -0.003033   0.003781   0.000707  -0.002733
     4  C    0.061098  -0.035377   0.003359  -0.005671  -0.000732   0.004883
     5  O   -0.000686   0.000577   0.000011   0.000125   0.000011  -0.000094
     6  O    0.006999  -0.004753   0.000233   0.000011  -0.000144   0.000282
     7  C    0.028282  -0.016223   0.002176  -0.001800  -0.000783   0.001163
     8  C   -0.016223   0.008785  -0.001353   0.001090   0.000879  -0.000960
     9  H    0.002176  -0.001353   0.000456  -0.000046  -0.000048   0.000058
    10  H   -0.001800   0.001090  -0.000046  -0.000438   0.000121  -0.000014
    11  H   -0.000783   0.000879  -0.000048   0.000121  -0.000053  -0.000154
    12  H    0.001163  -0.000960   0.000058  -0.000014  -0.000154   0.000236
    13  H    0.005483  -0.003329   0.000492  -0.000030  -0.000323  -0.000069
    14  O    0.009034  -0.004324   0.000418   0.000038  -0.000180  -0.000116
    15  H   -0.001408   0.000904  -0.000121   0.000019   0.000042  -0.000055
              13         14         15
     1  C   -0.008509  -0.344931   0.026584
     2  H   -0.000030  -0.003922   0.000294
     3  C   -0.015146   0.013101  -0.004862
     4  C    0.019379   0.193371  -0.017921
     5  O   -0.000413   0.001770  -0.000090
     6  O    0.000376   0.004723  -0.000087
     7  C    0.005483   0.009034  -0.001408
     8  C   -0.003329  -0.004324   0.000904
     9  H    0.000492   0.000418  -0.000121
    10  H   -0.000030   0.000038   0.000019
    11  H   -0.000323  -0.000180   0.000042
    12  H   -0.000069  -0.000116  -0.000055
    13  H    0.000598   0.000476  -0.000308
    14  O    0.000476   0.932723   0.009343
    15  H   -0.000308   0.009343  -0.031856
 Mulliken charges and spin densities:
               1          2
     1  C   -0.672826   0.363212
     2  H    0.198610  -0.014337
     3  C    0.785708  -0.152898
     4  C   -0.332619   0.023906
     5  O   -0.189533  -0.008508
     6  O    0.001910  -0.002653
     7  C   -0.275564  -0.001020
     8  C   -0.424082   0.002035
     9  H    0.192213   0.000153
    10  H    0.193329  -0.000079
    11  H    0.168804   0.000022
    12  H    0.161095  -0.000481
    13  H    0.195496  -0.001353
    14  O   -0.223521   0.811523
    15  H    0.220980  -0.019522
 Sum of Mulliken charges =  -0.00000   1.00000
 Mulliken charges and spin densities with hydrogens summed into heavy atoms:
               1          2
     1  C   -0.474216   0.348876
     3  C    0.785708  -0.152898
     4  C   -0.332619   0.023906
     5  O   -0.189533  -0.008508
     6  O    0.001910  -0.002653
     7  C    0.109978  -0.000946
     8  C    0.101313   0.000223
    14  O   -0.002541   0.792001
 APT charges:
               1
     1  C   -0.145279
     2  H    0.236695
     3  C   -0.480109
     4  C    1.460169
     5  O   -0.768281
     6  O   -0.939253
     7  C    0.533034
     8  C   -0.042322
     9  H   -0.014619
    10  H   -0.010231
    11  H    0.010560
    12  H    0.010811
    13  H    0.031158
    14  O   -0.134326
    15  H    0.251991
 Sum of APT charges =   0.00000
 APT charges with hydrogens summed into heavy atoms:
               1
     1  C    0.091416
     3  C   -0.480109
     4  C    1.460169
     5  O   -0.768281
     6  O   -0.939253
     7  C    0.508184
     8  C    0.010207
    14  O    0.117665
 Electronic spatial extent (au):  <R**2>=           1071.0339
 Charge=             -0.0000 electrons
 Dipole moment (field-independent basis, Debye):
    X=              0.1038    Y=              0.5377    Z=             -3.0831  Tot=              3.1314
 Quadrupole moment (field-independent basis, Debye-Ang):
   XX=            -33.0411   YY=            -48.2893   ZZ=            -51.1887
   XY=              1.3304   XZ=              3.2662   YZ=             -0.3442
 Traceless Quadrupole moment (field-independent basis, Debye-Ang):
   XX=             11.1319   YY=             -4.1163   ZZ=             -7.0157
   XY=              1.3304   XZ=              3.2662   YZ=             -0.3442
 Octapole moment (field-independent basis, Debye-Ang**2):
  XXX=            -27.7619  YYY=              9.6499  ZZZ=             -1.2028  XYY=              1.4793
  XXY=             -6.7057  XXZ=            -15.0357  XZZ=              3.2557  YZZ=              4.9735
  YYZ=             -9.6593  XYZ=              5.2305
 Hexadecapole moment (field-independent basis, Debye-Ang**3):
 XXXX=           -760.0130 YYYY=           -257.3496 ZZZZ=           -166.6554 XXXY=             13.8721
 XXXZ=             35.5553 YYYX=            -19.9834 YYYZ=            -12.0486 ZZZX=             -7.5107
 ZZZY=              0.5809 XXYY=           -212.8759 XXZZ=           -189.3411 YYZZ=            -77.2682
 XXYZ=             -5.0447 YYXZ=              8.7125 ZZXY=             -4.0416
 N-N= 3.615758581258D+02 E-N=-1.707949730121D+03  KE= 4.188558457680D+02
  Exact polarizability:  91.330   7.070  72.943   5.425   1.419  58.651
 Approx polarizability:  97.907   6.210  77.945   9.211  -2.821  75.378
                          Isotropic Fermi Contact Couplings
        Atom                 a.u.       MegaHertz       Gauss      10(-4) cm-1
     1  C(13)              0.04508      50.67768      18.08306      16.90426
     2  H(1)              -0.00518     -23.17353      -8.26889      -7.72986
     3  C(13)              0.01486      16.70608       5.96115       5.57255
     4  C(13)              0.01332      14.97715       5.34422       4.99584
     5  O(17)             -0.00320       1.93828       0.69163       0.64654
     6  O(17)             -0.00031       0.18837       0.06722       0.06283
     7  C(13)              0.00001       0.01057       0.00377       0.00352
     8  C(13)             -0.00051      -0.57487      -0.20513      -0.19176
     9  H(1)               0.00002       0.09971       0.03558       0.03326
    10  H(1)              -0.00005      -0.24308      -0.08674      -0.08108
    11  H(1)              -0.00001      -0.03989      -0.01423      -0.01331
    12  H(1)               0.00001       0.03707       0.01323       0.01236
    13  H(1)               0.00001       0.03482       0.01242       0.01161
    14  O(17)              0.13521     -81.96612     -29.24755     -27.34095
    15  H(1)              -0.01385     -61.89897     -22.08709     -20.64727
 --------------------------------------------------------
       Center         ----  Spin Dipole Couplings  ----
                      3XX-RR        3YY-RR        3ZZ-RR
 --------------------------------------------------------
     1   Atom       -0.197839      0.315488     -0.117649
     2   Atom        0.026911     -0.005661     -0.021250
     3   Atom        0.057088     -0.014247     -0.042841
     4   Atom        0.004837      0.011259     -0.016096
     5   Atom        0.018832     -0.021607      0.002775
     6   Atom        0.007907     -0.014028      0.006121
     7   Atom        0.002559     -0.000777     -0.001781
     8   Atom        0.003225     -0.001534     -0.001691
     9   Atom        0.001241     -0.000649     -0.000592
    10   Atom        0.001122      0.000088     -0.001210
    11   Atom        0.001674     -0.000777     -0.000896
    12   Atom        0.004270     -0.002179     -0.002091
    13   Atom        0.003588     -0.001663     -0.001925
    14   Atom       -0.972432      2.164142     -1.191711
    15   Atom       -0.100856     -0.017509      0.118366
 --------------------------------------------------------
                        XY            XZ            YZ
 --------------------------------------------------------
     1   Atom       -0.007193     -0.013420      0.102156
     2   Atom        0.005118      0.011286      0.005406
     3   Atom       -0.010150      0.020423      0.006667
     4   Atom       -0.018372     -0.000311      0.003422
     5   Atom       -0.040467     -0.018767     -0.025484
     6   Atom       -0.008815     -0.008633      0.001196
     7   Atom       -0.002404     -0.001009      0.000565
     8   Atom       -0.001362     -0.000184      0.000053
     9   Atom       -0.000973     -0.001084      0.000512
    10   Atom       -0.001493     -0.000220      0.000222
    11   Atom       -0.000471      0.000029      0.000023
    12   Atom        0.000046     -0.000928      0.000075
    13   Atom       -0.001657      0.001510     -0.000356
    14   Atom        1.533089      0.521404      1.280706
    15   Atom        0.015535      0.028764     -0.075128
 --------------------------------------------------------


 ---------------------------------------------------------------------------------
              Anisotropic Spin Dipole Couplings in Principal Axis System
 ---------------------------------------------------------------------------------

       Atom             a.u.   MegaHertz   Gauss  10(-4) cm-1        Axes

              Baa    -0.2002   -26.871    -9.588    -8.963  0.9817 -0.0237  0.1888
     1 C(13)  Bbb    -0.1383   -18.560    -6.623    -6.191 -0.1894 -0.2185  0.9573
              Bcc     0.3386    45.431    16.211    15.154 -0.0186  0.9755  0.2190
 
              Baa    -0.0247   -13.183    -4.704    -4.397 -0.1873 -0.2213  0.9570
     2 H(1)   Bbb    -0.0058    -3.083    -1.100    -1.028 -0.2127  0.9603  0.1805
              Bcc     0.0305    16.266     5.804     5.426  0.9590  0.1697  0.2269
 
              Baa    -0.0490    -6.572    -2.345    -2.192 -0.2057 -0.2422  0.9482
     3 C(13)  Bbb    -0.0131    -1.761    -0.628    -0.587  0.0637  0.9635  0.2599
              Bcc     0.0621     8.333     2.973     2.779  0.9765 -0.1139  0.1828
 
              Baa    -0.0169    -2.267    -0.809    -0.756 -0.1881 -0.2386  0.9527
     4 C(13)  Bbb    -0.0100    -1.341    -0.478    -0.447  0.7456  0.5968  0.2966
              Bcc     0.0269     3.608     1.287     1.203 -0.6393  0.7661  0.0656
 
              Baa    -0.0620     4.486     1.601     1.496  0.4817  0.7590  0.4381
     5 O(17)  Bbb     0.0179    -1.298    -0.463    -0.433 -0.1547 -0.4185  0.8950
              Bcc     0.0441    -3.189    -1.138    -1.064  0.8626 -0.4989 -0.0842
 
              Baa    -0.0173     1.250     0.446     0.417  0.3545  0.9313  0.0832
     6 O(17)  Bbb    -0.0002     0.015     0.005     0.005  0.5425 -0.2774  0.7929
              Bcc     0.0175    -1.265    -0.451    -0.422  0.7616 -0.2360 -0.6036
 
              Baa    -0.0021    -0.276    -0.099    -0.092  0.2837  0.7794 -0.5586
     7 C(13)  Bbb    -0.0020    -0.267    -0.095    -0.089  0.4062  0.4300  0.8063
              Bcc     0.0040     0.543     0.194     0.181  0.8686 -0.4557 -0.1946
 
              Baa    -0.0019    -0.255    -0.091    -0.085  0.2563  0.9664 -0.0191
     8 C(13)  Bbb    -0.0017    -0.228    -0.081    -0.076  0.0398  0.0092  0.9992
              Bcc     0.0036     0.482     0.172     0.161  0.9658 -0.2569 -0.0361
 
              Baa    -0.0011    -0.607    -0.217    -0.203  0.1164 -0.5984  0.7927
     9 H(1)   Bbb    -0.0010    -0.552    -0.197    -0.184  0.5257  0.7143  0.4620
              Bcc     0.0022     1.159     0.414     0.387  0.8427 -0.3629 -0.3977
 
              Baa    -0.0012    -0.666    -0.238    -0.222 -0.0400 -0.2073  0.9775
    10 H(1)   Bbb    -0.0010    -0.515    -0.184    -0.172  0.5844  0.7886  0.1912
              Bcc     0.0022     1.181     0.421     0.394  0.8105 -0.5789 -0.0896
 
              Baa    -0.0009    -0.487    -0.174    -0.162 -0.0993 -0.4923  0.8648
    11 H(1)   Bbb    -0.0008    -0.453    -0.162    -0.151  0.1533  0.8511  0.5021
              Bcc     0.0018     0.940     0.335     0.313  0.9832 -0.1824  0.0090
 
              Baa    -0.0023    -1.219    -0.435    -0.407  0.1158 -0.6052  0.7876
    12 H(1)   Bbb    -0.0021    -1.130    -0.403    -0.377  0.0815  0.7960  0.5997
              Bcc     0.0044     2.349     0.838     0.784  0.9899  0.0053 -0.1415
 
              Baa    -0.0023    -1.244    -0.444    -0.415 -0.3128 -0.2945  0.9030
    13 H(1)   Bbb    -0.0021    -1.127    -0.402    -0.376  0.1717  0.9175  0.3587
              Bcc     0.0044     2.371     0.846     0.791  0.9342 -0.2672  0.2364
 
              Baa    -1.6249   117.578    41.955    39.220 -0.0954 -0.2839  0.9541
    14 O(17)  Bbb    -1.5973   115.578    41.241    38.553  0.9280 -0.3721 -0.0179
              Bcc     3.2222  -233.156   -83.196   -77.772  0.3601  0.8837  0.2990
 
              Baa    -0.1131   -60.353   -21.535   -20.132  0.9212 -0.3217 -0.2189
    15 H(1)   Bbb    -0.0402   -21.446    -7.652    -7.154  0.3809  0.8604  0.3386
              Bcc     0.1533    81.799    29.188    27.285  0.0794 -0.3953  0.9151
 

 ---------------------------------------------------------------------------------

 Calling FoFJK, ICntrl=    100127 FMM=F ISym2X=0 I1Cent= 0 IOpClX= 1 NMat=1 NMatS=1 NMatT=0.
 Full mass-weighted force constant matrix:
 Low frequencies --- -393.7612  -55.5190  -29.6535  -10.9444   -0.0004   -0.0002
 Low frequencies ---    0.0002   27.5844   54.9153
 ******    2 imaginary frequencies (negative Signs) ****** 
 Diagonal vibrational polarizability:
      272.6925641      84.2578055      24.2152542
 Harmonic frequencies (cm**-1), IR intensities (KM/Mole), Raman scattering
 activities (A**4/AMU), depolarization ratios for plane and unpolarized
 incident light, reduced masses (AMU), force constants (mDyne/A),
 and normal coordinates:
                      1                      2                      3
                      A                      A                      A
 Frequencies --   -393.7610               -25.3303                52.9938
 Red. masses --     12.0386                 4.0755                 4.4746
 Frc consts  --      1.0997                 0.0015                 0.0074
 IR Inten    --     48.1435                 4.8536                 2.4774
  Atom  AN      X      Y      Z        X      Y      Z        X      Y      Z
     1   6     0.06  -0.03   0.01     0.03   0.00  -0.19    -0.03   0.10   0.04
     2   1     0.08  -0.28  -0.06     0.04  -0.02  -0.26    -0.04   0.20   0.07
     3   6     0.03   0.73   0.21     0.01   0.01  -0.11    -0.01  -0.01   0.00
     4   6     0.01   0.10   0.03    -0.01   0.04  -0.01    -0.02  -0.10  -0.03
     5   8    -0.05  -0.03  -0.03    -0.05   0.19   0.09    -0.04  -0.11  -0.03
     6   8     0.01  -0.01  -0.01     0.03  -0.12  -0.05    -0.02  -0.13  -0.03
     7   6     0.01  -0.02  -0.01     0.02  -0.09   0.03    -0.01   0.06   0.06
     8   6    -0.00  -0.01  -0.01    -0.01   0.06  -0.13    -0.23   0.23  -0.01
     9   1     0.01  -0.02  -0.00     0.06  -0.26   0.04     0.04   0.02   0.09
    10   1     0.01  -0.02  -0.01     0.00  -0.03   0.20     0.09   0.13   0.17
    11   1    -0.00  -0.01   0.00    -0.01   0.06  -0.07    -0.23   0.38   0.11
    12   1    -0.01  -0.01  -0.01     0.02  -0.01  -0.31    -0.32   0.15  -0.13
    13   1    -0.01  -0.00  -0.01    -0.05   0.23  -0.14    -0.31   0.28  -0.04
    14   8    -0.05  -0.52  -0.14     0.02  -0.09   0.27     0.31  -0.05  -0.02
    15   1    -0.04  -0.13   0.03    -0.45   0.17   0.43     0.31  -0.04  -0.01
                      4                      5                      6
                      A                      A                      A
 Frequencies --    106.4757               138.9274               158.4867
 Red. masses --      2.7143                 2.1844                 4.2500
 Frc consts  --      0.0181                 0.0248                 0.0629
 IR Inten    --     20.1902                16.9578                13.5464
  Atom  AN      X      Y      Z        X      Y      Z        X      Y      Z
     1   6    -0.02  -0.07   0.10     0.02  -0.03  -0.15    -0.08  -0.22   0.02
     2   1    -0.04  -0.15   0.19     0.05  -0.01  -0.31    -0.09  -0.41   0.06
     3   6     0.00   0.00  -0.03    -0.03  -0.05   0.04    -0.09  -0.04  -0.06
     4   6     0.02   0.05  -0.06    -0.02   0.02   0.07    -0.07   0.06  -0.01
     5   8     0.04   0.17  -0.00     0.05   0.09   0.08    -0.12  -0.01  -0.03
     6   8     0.00  -0.06  -0.11    -0.09   0.04   0.02    -0.03   0.19   0.09
     7   6     0.00   0.02  -0.05    -0.07   0.05  -0.08    -0.04   0.03   0.06
     8   6    -0.11  -0.11   0.17    -0.01  -0.05   0.01     0.16   0.01  -0.04
     9   1     0.05   0.22  -0.02    -0.14   0.18  -0.11    -0.06  -0.11   0.04
    10   1     0.05  -0.05  -0.22    -0.02   0.00  -0.22    -0.17   0.03   0.12
    11   1    -0.10  -0.03   0.14     0.00  -0.02  -0.15     0.14  -0.22  -0.01
    12   1    -0.21  -0.05   0.37    -0.11  -0.00   0.17     0.38   0.02  -0.14
    13   1    -0.10  -0.35   0.16     0.12  -0.21   0.05     0.11   0.20  -0.05
    14   8     0.10  -0.01  -0.02     0.09  -0.06   0.02     0.26  -0.04  -0.04
    15   1    -0.56   0.10   0.09     0.73  -0.16  -0.09    -0.46   0.08   0.09
                      7                      8                      9
                      A                      A                      A
 Frequencies --    184.3562               224.7588               248.7184
 Red. masses --      1.6093                 1.5985                 2.5034
 Frc consts  --      0.0322                 0.0476                 0.0912
 IR Inten    --     27.6604                 3.3799                11.1026
  Atom  AN      X      Y      Z        X      Y      Z        X      Y      Z
     1   6    -0.05  -0.01   0.10    -0.06   0.06   0.06    -0.04   0.22  -0.01
     2   1    -0.08   0.02   0.24    -0.09   0.15   0.19    -0.05   0.49   0.00
     3   6    -0.01  -0.03  -0.07    -0.02  -0.04  -0.09    -0.01  -0.13  -0.00
     4   6    -0.01   0.03  -0.07    -0.02  -0.01  -0.03     0.01  -0.04   0.02
     5   8    -0.01   0.09  -0.03    -0.08   0.03   0.01     0.07   0.03   0.05
     6   8     0.03   0.02  -0.05     0.04  -0.00   0.02    -0.03   0.03   0.03
     7   6     0.02  -0.02   0.04     0.04   0.01   0.03    -0.02   0.06  -0.03
     8   6     0.01  -0.01   0.03     0.08   0.02  -0.01     0.05  -0.00   0.01
     9   1     0.08  -0.08   0.06     0.03   0.01   0.02    -0.06   0.11  -0.04
    10   1    -0.05  -0.01   0.09     0.06   0.02   0.03     0.00   0.04  -0.09
    11   1    -0.03  -0.20   0.29     0.15   0.33  -0.47     0.01  -0.27   0.23
    12   1     0.29  -0.01  -0.13    -0.37   0.02   0.22     0.37   0.03  -0.07
    13   1    -0.23   0.18  -0.06     0.50  -0.24   0.16    -0.15   0.14  -0.07
    14   8    -0.03  -0.06   0.04    -0.01  -0.08  -0.01    -0.00  -0.17  -0.07
    15   1     0.72  -0.13  -0.07     0.10  -0.05  -0.01    -0.53  -0.10   0.01
                     10                     11                     12
                      A                      A                      A
 Frequencies --    338.8947               427.0168               557.1835
 Red. masses --      2.9179                 3.8533                 4.0316
 Frc consts  --      0.1974                 0.4140                 0.7374
 IR Inten    --     11.8688                 1.2678                 5.8783
  Atom  AN      X      Y      Z        X      Y      Z        X      Y      Z
     1   6    -0.00   0.04  -0.03     0.09   0.02   0.05    -0.17   0.01  -0.06
     2   1     0.01   0.09  -0.10     0.06   0.06   0.22    -0.11   0.01  -0.38
     3   6    -0.02  -0.05   0.07     0.13  -0.03  -0.15    -0.21  -0.07   0.26
     4   6     0.01   0.05  -0.03     0.07   0.06   0.06    -0.01   0.09  -0.02
     5   8     0.19   0.03  -0.11    -0.09  -0.02   0.08    -0.04   0.02  -0.05
     6   8    -0.03   0.13  -0.03     0.07   0.20   0.14     0.15   0.03   0.02
     7   6    -0.09  -0.15   0.16     0.03  -0.11  -0.12     0.26  -0.07  -0.07
     8   6    -0.08  -0.03   0.00    -0.20  -0.08  -0.09     0.00  -0.01  -0.02
     9   1     0.08  -0.45   0.22    -0.04  -0.09  -0.15     0.17   0.03  -0.11
    10   1    -0.36  -0.09   0.42    -0.05  -0.15  -0.16     0.28  -0.10  -0.16
    11   1    -0.04   0.20  -0.22    -0.21   0.24   0.18    -0.00   0.32   0.27
    12   1    -0.36  -0.11  -0.04    -0.42  -0.16  -0.17    -0.21  -0.09  -0.09
    13   1     0.13  -0.03   0.09    -0.44  -0.17  -0.21    -0.25  -0.10  -0.14
    14   8     0.01  -0.04  -0.01     0.00  -0.05  -0.01     0.01   0.00   0.01
    15   1    -0.09  -0.06  -0.01    -0.01   0.01   0.01    -0.05  -0.29  -0.10
                     13                     14                     15
                      A                      A                      A
 Frequencies --    598.2075               697.3818               712.0874
 Red. masses --      4.4638                 1.1681                 1.3050
 Frc consts  --      0.9411                 0.3347                 0.3899
 IR Inten    --      8.4397                99.8780                 3.0999
  Atom  AN      X      Y      Z        X      Y      Z        X      Y      Z
     1   6    -0.23  -0.02  -0.03     0.01  -0.07   0.02     0.00  -0.12  -0.06
     2   1    -0.27  -0.18   0.17     0.03   0.49  -0.15    -0.13   0.79   0.39
     3   6    -0.15   0.13  -0.25     0.00  -0.03   0.06    -0.01   0.06  -0.01
     4   6    -0.04  -0.05   0.09     0.00  -0.01  -0.02    -0.01  -0.02  -0.01
     5   8     0.27  -0.02  -0.00    -0.03   0.01   0.00     0.02   0.01  -0.00
     6   8     0.02  -0.05   0.17     0.00   0.02  -0.02    -0.00   0.00   0.02
     7   6     0.06  -0.03  -0.01     0.01   0.00  -0.01     0.00  -0.00   0.00
     8   6    -0.00  -0.01  -0.01     0.00   0.00   0.00     0.00  -0.00  -0.00
     9   1    -0.11   0.14  -0.07     0.03  -0.03   0.00    -0.02   0.02  -0.00
    10   1     0.21  -0.06  -0.15    -0.01   0.01   0.02     0.01  -0.01  -0.02
    11   1    -0.01   0.10   0.09     0.00   0.01   0.01     0.00   0.01   0.00
    12   1    -0.06  -0.05  -0.08    -0.01   0.00   0.01    -0.01  -0.01  -0.01
    13   1    -0.09   0.01  -0.05    -0.01  -0.02  -0.01    -0.00   0.01  -0.00
    14   8    -0.00   0.01  -0.01    -0.01  -0.02  -0.04     0.01   0.03   0.02
    15   1     0.15   0.61   0.20     0.15   0.79   0.26    -0.10  -0.39  -0.13
                     16                     17                     18
                      A                      A                      A
 Frequencies --    729.1876               769.9848               802.5072
 Red. masses --      1.3488                 8.3928                 1.2116
 Frc consts  --      0.4225                 2.9317                 0.4597
 IR Inten    --     38.0079                51.2378                 5.3023
  Atom  AN      X      Y      Z        X      Y      Z        X      Y      Z
     1   6     0.03   0.04  -0.13     0.00  -0.02  -0.01     0.03   0.01   0.01
     2   1    -0.16  -0.29   0.88    -0.05   0.34   0.20     0.04  -0.02  -0.01
     3   6    -0.01  -0.03   0.09     0.01  -0.14  -0.09     0.02  -0.01   0.03
     4   6     0.00  -0.00  -0.01     0.04   0.65   0.32    -0.02  -0.02  -0.05
     5   8    -0.01   0.00   0.00    -0.01  -0.16  -0.13    -0.01   0.03  -0.04
     6   8     0.00   0.01  -0.01    -0.01  -0.19  -0.05     0.01   0.00   0.04
     7   6     0.01  -0.00  -0.00    -0.04  -0.01   0.03    -0.03  -0.04   0.06
     8   6     0.00   0.00   0.00    -0.02   0.01   0.02    -0.01  -0.03   0.02
     9   1     0.02  -0.02  -0.00    -0.05   0.23   0.04    -0.08   0.52   0.07
    10   1    -0.01   0.00   0.01     0.13  -0.05  -0.14     0.11  -0.22  -0.44
    11   1     0.00   0.01   0.01    -0.01  -0.10  -0.12     0.02   0.07  -0.17
    12   1    -0.00   0.00   0.01     0.08  -0.01  -0.08    -0.06  -0.21  -0.40
    13   1    -0.01  -0.01  -0.00     0.13   0.18   0.09     0.12   0.42   0.11
    14   8    -0.00  -0.01  -0.01     0.00  -0.06  -0.01    -0.00  -0.00  -0.00
    15   1     0.06   0.27   0.09     0.04   0.07   0.03     0.01   0.02   0.01
                     19                     20                     21
                      A                      A                      A
 Frequencies --    896.3028               925.8261              1075.1629
 Red. masses --      3.2565                 2.7209                 4.1215
 Frc consts  --      1.5414                 1.3741                 2.8071
 IR Inten    --     15.2388                 5.7950                23.3222
  Atom  AN      X      Y      Z        X      Y      Z        X      Y      Z
     1   6     0.05   0.01   0.01    -0.11  -0.01  -0.03     0.07   0.00   0.02
     2   1     0.06   0.01  -0.02    -0.12  -0.01  -0.03     0.08   0.00   0.04
     3   6     0.02  -0.03   0.06    -0.07   0.02   0.00     0.04  -0.00  -0.03
     4   6    -0.05   0.03  -0.11     0.14  -0.02   0.04    -0.15  -0.00   0.04
     5   8    -0.00   0.08  -0.15    -0.01  -0.06   0.12     0.02   0.00  -0.02
     6   8     0.13  -0.09   0.22     0.14   0.06  -0.10    -0.22   0.03  -0.03
     7   6    -0.08   0.08   0.04    -0.03   0.09   0.04     0.32   0.12   0.16
     8   6    -0.12  -0.04  -0.11    -0.15  -0.08  -0.05    -0.07  -0.14  -0.12
     9   1    -0.24  -0.01  -0.03     0.33   0.17   0.20     0.34   0.25   0.19
    10   1     0.26   0.22   0.22    -0.03   0.10   0.06     0.40   0.19   0.25
    11   1    -0.14  -0.53  -0.23    -0.14  -0.50  -0.51    -0.07  -0.23  -0.18
    12   1     0.19   0.18   0.26     0.15  -0.05  -0.13    -0.05  -0.18  -0.19
    13   1     0.03  -0.33  -0.07     0.22   0.13   0.12    -0.07  -0.25  -0.14
    14   8    -0.00  -0.01  -0.00    -0.00   0.01   0.00     0.00  -0.01  -0.00
    15   1     0.02   0.02   0.00     0.00  -0.01  -0.00    -0.02   0.01   0.00
                     22                     23                     24
                      A                      A                      A
 Frequencies --   1128.4534              1203.4918              1280.1492
 Red. masses --      2.0991                 1.7785                 4.3829
 Frc consts  --      1.5749                 1.5177                 4.2318
 IR Inten    --     22.0468                 7.0565               564.6100
  Atom  AN      X      Y      Z        X      Y      Z        X      Y      Z
     1   6    -0.01  -0.00  -0.00    -0.02  -0.00  -0.00    -0.09  -0.01  -0.02
     2   1    -0.02  -0.00  -0.01    -0.02  -0.00  -0.01    -0.10  -0.01  -0.05
     3   6    -0.01   0.00   0.01    -0.00   0.00  -0.00    -0.01   0.00   0.01
     4   6     0.03   0.01  -0.00     0.07  -0.00  -0.01     0.42   0.05  -0.16
     5   8    -0.00  -0.01   0.00    -0.01  -0.02   0.03    -0.05   0.00  -0.00
     6   8     0.06  -0.04  -0.02    -0.01   0.04  -0.07    -0.20  -0.05   0.09
     7   6    -0.11   0.18   0.09    -0.03  -0.10   0.16     0.11   0.04   0.03
     8   6     0.11  -0.14  -0.07     0.03   0.07  -0.12    -0.02  -0.03   0.06
     9   1    -0.09   0.08   0.10    -0.33   0.37   0.07    -0.66  -0.20  -0.29
    10   1    -0.21   0.16   0.07     0.29  -0.21  -0.26    -0.01   0.08   0.18
    11   1     0.10   0.40   0.30    -0.03  -0.13   0.26     0.00  -0.00  -0.14
    12   1    -0.41  -0.32  -0.22    -0.01   0.25   0.34     0.00  -0.15  -0.22
    13   1    -0.37  -0.14  -0.28    -0.08  -0.42  -0.19     0.01   0.08   0.07
    14   8    -0.00   0.00   0.00    -0.00   0.00   0.00    -0.00   0.01   0.00
    15   1     0.00  -0.00  -0.00     0.01  -0.00  -0.00     0.04   0.01   0.00
                     25                     26                     27
                      A                      A                      A
 Frequencies --   1345.1039              1401.3510              1430.8261
 Red. masses --      1.2061                 1.2717                 1.3706
 Frc consts  --      1.2857                 1.4714                 1.6532
 IR Inten    --     71.4668                21.2153                12.4463
  Atom  AN      X      Y      Z        X      Y      Z        X      Y      Z
     1   6     0.01   0.00   0.00    -0.01  -0.00  -0.00    -0.01  -0.00  -0.00
     2   1     0.01   0.00   0.01    -0.01  -0.00  -0.01    -0.01  -0.00  -0.01
     3   6     0.00   0.00  -0.00    -0.00   0.00   0.00     0.00  -0.00   0.00
     4   6    -0.05  -0.01   0.02     0.05   0.00  -0.01     0.05   0.00  -0.01
     5   8     0.01  -0.01   0.02    -0.01   0.01  -0.01    -0.01   0.01  -0.01
     6   8     0.04   0.04  -0.06    -0.04   0.00   0.03    -0.04   0.01   0.03
     7   6    -0.03  -0.01   0.00    -0.05  -0.03  -0.03    -0.08  -0.07  -0.06
     8   6    -0.00  -0.04   0.04    -0.02  -0.09  -0.07     0.08   0.06   0.06
     9   1    -0.54  -0.17  -0.22     0.33   0.21   0.15     0.44   0.23   0.18
    10   1     0.67   0.22   0.24     0.27   0.14   0.22     0.42   0.17   0.27
    11   1     0.01   0.07  -0.03    -0.00   0.41   0.30     0.06  -0.30  -0.17
    12   1    -0.02  -0.10  -0.09     0.18   0.16   0.38    -0.33  -0.13  -0.17
    13   1     0.02   0.17   0.07     0.22   0.37   0.08    -0.30  -0.15  -0.13
    14   8     0.00  -0.00  -0.00    -0.00   0.00   0.00    -0.00   0.00   0.00
    15   1    -0.01  -0.00  -0.00     0.00  -0.00  -0.00     0.01  -0.00  -0.00
                     28                     29                     30
                      A                      A                      A
 Frequencies --   1491.3365              1502.3175              1514.5885
 Red. masses --      1.0406                 1.0543                 1.0914
 Frc consts  --      1.3636                 1.4020                 1.4752
 IR Inten    --     10.6968                 1.4321                20.2112
  Atom  AN      X      Y      Z        X      Y      Z        X      Y      Z
     1   6     0.00  -0.00  -0.00    -0.00  -0.00  -0.00     0.00   0.00   0.00
     2   1     0.00   0.00   0.00    -0.00  -0.00  -0.00     0.01   0.00   0.00
     3   6    -0.00   0.00   0.00     0.00  -0.00  -0.00    -0.00  -0.00  -0.00
     4   6    -0.00   0.00  -0.00     0.01  -0.00   0.00    -0.03   0.00  -0.00
     5   8     0.00  -0.00   0.00    -0.00   0.00  -0.01     0.01  -0.01   0.01
     6   8     0.00   0.00  -0.00    -0.01   0.00   0.00     0.02  -0.00  -0.01
     7   6    -0.02  -0.02   0.01    -0.00   0.03   0.03     0.05  -0.04  -0.02
     8   6    -0.02  -0.01   0.04     0.03  -0.03   0.00     0.02  -0.02  -0.00
     9   1    -0.00   0.14   0.03     0.12  -0.40   0.05    -0.28   0.46  -0.12
    10   1    -0.00   0.01   0.07     0.18  -0.12  -0.38    -0.38   0.06   0.40
    11   1     0.08   0.47  -0.44     0.04  -0.04  -0.34     0.03  -0.13  -0.20
    12   1     0.57   0.08  -0.08    -0.12   0.12   0.40    -0.19   0.08   0.32
    13   1    -0.33  -0.28  -0.14    -0.39   0.38  -0.15    -0.25   0.33  -0.09
    14   8     0.00  -0.00  -0.00    -0.00   0.00   0.00     0.00  -0.00  -0.00
    15   1    -0.00  -0.00  -0.00     0.00   0.00   0.00    -0.00   0.00   0.00
                     31                     32                     33
                      A                      A                      A
 Frequencies --   1854.1668              2175.0058              3075.6837
 Red. masses --     12.0652                 6.1217                 1.0354
 Frc consts  --     24.4390                17.0624                 5.7712
 IR Inten    --    346.2733                86.1206                 9.4037
  Atom  AN      X      Y      Z        X      Y      Z        X      Y      Z
     1   6    -0.08  -0.00  -0.02    -0.38  -0.03  -0.09    -0.00   0.00  -0.00
     2   1    -0.12  -0.02  -0.00    -0.71  -0.06  -0.15    -0.00   0.00  -0.00
     3   6     0.06   0.01  -0.00     0.53  -0.01   0.11    -0.00   0.00   0.00
     4   6     0.24  -0.37   0.65    -0.11   0.03  -0.04     0.00   0.00  -0.00
     5   8    -0.17   0.24  -0.43     0.01  -0.01   0.01     0.00   0.00   0.00
     6   8     0.01   0.03  -0.06    -0.00  -0.00   0.00    -0.00  -0.00   0.00
     7   6     0.03  -0.01   0.02     0.00   0.00  -0.00    -0.00   0.00   0.00
     8   6    -0.01   0.01   0.00    -0.00  -0.00  -0.00    -0.02  -0.04  -0.02
     9   1    -0.17   0.10  -0.06     0.01  -0.00  -0.00     0.00  -0.00  -0.01
    10   1    -0.13  -0.04   0.08     0.00  -0.00  -0.00     0.00  -0.02   0.01
    11   1    -0.00  -0.02  -0.06     0.00   0.00   0.00     0.62  -0.06   0.06
    12   1     0.04   0.01  -0.01     0.00  -0.00  -0.00    -0.13   0.53  -0.23
    13   1    -0.04  -0.05  -0.01     0.00   0.00   0.00    -0.22  -0.04   0.46
    14   8     0.00   0.01  -0.00     0.00   0.01   0.00    -0.00  -0.00  -0.00
    15   1    -0.02   0.02   0.01    -0.00   0.00   0.00    -0.00  -0.00  -0.00
                     34                     35                     36
                      A                      A                      A
 Frequencies --   3107.1601              3150.7455              3155.2699
 Red. masses --      1.0608                 1.1018                 1.1046
 Frc consts  --      6.0339                 6.4445                 6.4794
 IR Inten    --     19.5338                14.0756                 3.5726
  Atom  AN      X      Y      Z        X      Y      Z        X      Y      Z
     1   6    -0.00  -0.00  -0.00    -0.00  -0.00  -0.00    -0.00  -0.00  -0.00
     2   1     0.00   0.00   0.00     0.00  -0.00  -0.00    -0.00   0.00   0.00
     3   6     0.00  -0.00  -0.00     0.00   0.00   0.00     0.00  -0.00  -0.00
     4   6    -0.00  -0.00   0.00    -0.00  -0.00   0.00     0.00  -0.00   0.00
     5   8    -0.00   0.00  -0.00     0.00   0.00  -0.00    -0.00   0.00  -0.00
     6   8     0.00   0.00  -0.00    -0.00   0.00  -0.00    -0.00  -0.00  -0.00
     7   6     0.03  -0.06  -0.02     0.01   0.01  -0.03    -0.01  -0.03   0.04
     8   6    -0.01   0.01  -0.00     0.06  -0.06   0.03     0.06   0.00  -0.05
     9   1    -0.21  -0.05   0.50    -0.14  -0.02   0.33     0.16   0.03  -0.39
    10   1    -0.14   0.74  -0.32     0.02  -0.07   0.03    -0.06   0.34  -0.14
    11   1     0.13  -0.01   0.01    -0.59   0.04  -0.05    -0.47   0.04  -0.05
    12   1     0.01  -0.06   0.03    -0.14   0.63  -0.27     0.02  -0.05   0.02
    13   1     0.01   0.00  -0.02     0.05  -0.00  -0.08    -0.27  -0.05   0.61
    14   8     0.00  -0.00  -0.00     0.00  -0.00  -0.00     0.00  -0.00  -0.00
    15   1    -0.00   0.00   0.00    -0.00  -0.00   0.00    -0.00  -0.00   0.00
                     37                     38                     39
                      A                      A                      A
 Frequencies --   3175.0859              3480.7152              3810.2231
 Red. masses --      1.1071                 1.1569                 1.0674
 Frc consts  --      6.5755                 8.2585                 9.1299
 IR Inten    --     14.4847                69.5741                43.2162
  Atom  AN      X      Y      Z        X      Y      Z        X      Y      Z
     1   6    -0.00  -0.00  -0.00    -0.11  -0.01  -0.02     0.00  -0.00   0.00
     2   1     0.00   0.00   0.00     0.97   0.04   0.20    -0.00  -0.00  -0.00
     3   6     0.00  -0.00   0.00     0.03   0.00   0.01    -0.00  -0.00  -0.00
     4   6    -0.00   0.00  -0.00    -0.00   0.00  -0.00    -0.00   0.00  -0.00
     5   8     0.00  -0.00   0.00     0.00   0.00  -0.00     0.00  -0.00   0.00
     6   8     0.00  -0.00   0.00     0.00   0.00  -0.00     0.00   0.00  -0.00
     7   6     0.01   0.03  -0.06    -0.00  -0.00   0.00    -0.00   0.00   0.00
     8   6     0.02   0.03  -0.05     0.00  -0.00   0.00     0.00  -0.00  -0.00
     9   1    -0.24  -0.04   0.58     0.00   0.00  -0.00     0.00  -0.00  -0.00
    10   1     0.07  -0.38   0.15     0.00   0.00   0.00     0.00  -0.00   0.00
    11   1    -0.09   0.01  -0.02     0.00   0.00   0.00     0.00   0.00   0.00
    12   1     0.08  -0.34   0.14    -0.00   0.00  -0.00    -0.00   0.00  -0.00
    13   1    -0.22  -0.03   0.48    -0.00  -0.00  -0.00    -0.00  -0.00  -0.00
    14   8    -0.00   0.00  -0.00     0.00   0.00   0.00    -0.01   0.02  -0.06
    15   1     0.00  -0.00   0.00    -0.00  -0.00   0.00     0.10  -0.36   0.93

 -------------------
 - Thermochemistry -
 -------------------
 Temperature   298.150 Kelvin.  Pressure   1.00000 Atm.
 Atom     1 has atomic number  6 and mass  12.00000
 Atom     2 has atomic number  1 and mass   1.00783
 Atom     3 has atomic number  6 and mass  12.00000
 Atom     4 has atomic number  6 and mass  12.00000
 Atom     5 has atomic number  8 and mass  15.99491
 Atom     6 has atomic number  8 and mass  15.99491
 Atom     7 has atomic number  6 and mass  12.00000
 Atom     8 has atomic number  6 and mass  12.00000
 Atom     9 has atomic number  1 and mass   1.00783
 Atom    10 has atomic number  1 and mass   1.00783
 Atom    11 has atomic number  1 and mass   1.00783
 Atom    12 has atomic number  1 and mass   1.00783
 Atom    13 has atomic number  1 and mass   1.00783
 Atom    14 has atomic number  8 and mass  15.99491
 Atom    15 has atomic number  1 and mass   1.00783
 Molecular mass:   115.03952 amu.
 Principal axes and moments of inertia in atomic units:
                           1         2         3
     Eigenvalues --   503.127851380.409801540.70276
           X            0.99989   0.01231   0.00828
           Y           -0.01247   0.99973   0.01936
           Z           -0.00804  -0.01946   0.99978
 This molecule is an asymmetric top.
 Rotational symmetry number  1.
 Warning -- assumption of classical behavior for rotation
           may cause significant error
 Rotational temperatures (Kelvin)      0.17215     0.06275     0.05622
 Rotational constants (GHZ):           3.58704     1.30740     1.17138
    2 imaginary frequencies ignored.
 Zero-point vibrational energy     292643.3 (Joules/Mol)
                                   69.94342 (Kcal/Mol)
 Warning -- explicit consideration of  11 degrees of freedom as
           vibrations may cause significant error
 Vibrational temperatures:     76.25   153.19   199.89   228.03   265.25
          (Kelvin)            323.38   357.85   487.59   614.38   801.66
                              860.69  1003.38  1024.53  1049.14  1107.84
                             1154.63  1289.58  1332.06  1546.92  1623.59
                             1731.56  1841.85  1935.30  2016.23  2058.64
                             2145.70  2161.50  2179.16  2667.73  3129.35
                             4425.22  4470.51  4533.22  4539.73  4568.24
                             5007.97  5482.06
 
 Zero-point correction=                           0.111462 (Hartree/Particle)
 Thermal correction to Energy=                    0.120447
 Thermal correction to Enthalpy=                  0.121391
 Thermal correction to Gibbs Free Energy=         0.076597
 Sum of electronic and zero-point Energies=           -420.091023
 Sum of electronic and thermal Energies=              -420.082038
 Sum of electronic and thermal Enthalpies=            -420.081094
 Sum of electronic and thermal Free Energies=         -420.125887
 
                     E (Thermal)             CV                S
                      KCal/Mol        Cal/Mol-Kelvin    Cal/Mol-Kelvin
 Total                   75.582             30.519             94.277
 Electronic               0.000              0.000              1.377
 Translational            0.889              2.981             40.136
 Rotational               0.889              2.981             28.461
 Vibrational             73.804             24.557             24.303
 Vibration     1          0.596              1.976              4.702
 Vibration     2          0.605              1.944              3.332
 Vibration     3          0.615              1.914              2.819
 Vibration     4          0.621              1.893              2.568
 Vibration     5          0.631              1.861              2.284
 Vibration     6          0.649              1.803              1.920
 Vibration     7          0.662              1.765              1.740
 Vibration     8          0.719              1.598              1.217
 Vibration     9          0.789              1.411              0.868
 Vibration    10          0.913              1.124              0.529
 Vibration    11          0.956              1.036              0.453
                       Q            Log10(Q)             Ln(Q)
 Total Bot       0.585693D-35        -35.232330        -81.125438
 Total V=0       0.108782D+17         16.036556         36.925534
 Vib (Bot)       0.163067D-48        -48.787633       -112.337676
 Vib (Bot)    1  0.389972D+01          0.591034          1.360906
 Vib (Bot)    2  0.192497D+01          0.284424          0.654911
 Vib (Bot)    3  0.146403D+01          0.165550          0.381194
 Vib (Bot)    4  0.127619D+01          0.105915          0.243878
 Vib (Bot)    5  0.108781D+01          0.036555          0.084171
 Vib (Bot)    6  0.878298D+00         -0.056358         -0.129769
 Vib (Bot)    7  0.785184D+00         -0.105028         -0.241837
 Vib (Bot)    8  0.548295D+00         -0.260986         -0.600941
 Vib (Bot)    9  0.408984D+00         -0.388293         -0.894078
 Vib (Bot)   10  0.279707D+00         -0.553296         -1.274012
 Vib (Bot)   11  0.250072D+00         -0.601936         -1.386008
 Vib (V=0)       0.302868D+03          2.481253          5.713296
 Vib (V=0)    1  0.443165D+01          0.646565          1.488771
 Vib (V=0)    2  0.248885D+01          0.395998          0.911819
 Vib (V=0)    3  0.204706D+01          0.311130          0.716404
 Vib (V=0)    4  0.187064D+01          0.271991          0.626282
 Vib (V=0)    5  0.169722D+01          0.229739          0.528993
 Vib (V=0)    6  0.151065D+01          0.179163          0.412538
 Vib (V=0)    7  0.143087D+01          0.155599          0.358281
 Vib (V=0)    8  0.124204D+01          0.094137          0.216758
 Vib (V=0)    9  0.114596D+01          0.059171          0.136245
 Vib (V=0)   10  0.107292D+01          0.030567          0.070383
 Vib (V=0)   11  0.105905D+01          0.024916          0.057371
 Electronic      0.200000D+01          0.301030          0.693147
 Translational   0.484981D+08          7.685724         17.697035
 Rotational      0.370295D+06          5.568548         12.822056
 ***** Axes restored to original set *****
 -------------------------------------------------------------------
 Center     Atomic                   Forces (Hartrees/Bohr)
 Number     Number              X              Y              Z
 -------------------------------------------------------------------
      1        6          -0.001052387    0.000366145   -0.000218592
      2        1          -0.000037217    0.000265919    0.000064509
      3        6           0.000089715   -0.008196202   -0.002223188
      4        6          -0.000144642   -0.001107276   -0.000280072
      5        8           0.000645335    0.000427654    0.000433667
      6        8          -0.000076825    0.000269242    0.000131170
      7        6          -0.000083882    0.000143184    0.000069706
      8        6           0.000070032    0.000050020    0.000028298
      9        1          -0.000006962    0.000006309    0.000001534
     10        1          -0.000016578    0.000008996    0.000007102
     11        1           0.000007012    0.000003377   -0.000000330
     12        1           0.000010746    0.000005041    0.000003838
     13        1           0.000010436    0.000003887    0.000000771
     14        8           0.000570635    0.007697409    0.001862129
     15        1           0.000014582    0.000056294    0.000119460
 -------------------------------------------------------------------
 Cartesian Forces:  Max     0.008196202 RMS     0.001756289

 GradGradGradGradGradGradGradGradGradGradGradGradGradGradGradGradGradGrad
 Berny optimization.
 Search for a local minimum.
 Step number   1 out of a maximum of    2
 All quantities printed in internal units (Hartrees-Bohrs-Radians)
 Second derivative matrix not updated -- analytic derivatives used.
 ITU=  0
     Eigenvalues ---   -0.07728  -0.00016   0.00045   0.00123   0.00175
     Eigenvalues ---    0.00365   0.00586   0.00730   0.01127   0.01884
     Eigenvalues ---    0.02786   0.03272   0.03485   0.05155   0.06343
     Eigenvalues ---    0.07577   0.07758   0.08668   0.09280   0.10218
     Eigenvalues ---    0.11489   0.14154   0.17002   0.17526   0.19847
     Eigenvalues ---    0.28516   0.29439   0.43533   0.49467   0.62645
     Eigenvalues ---    0.70589   0.76466   0.79343   0.86334   0.88400
     Eigenvalues ---    0.91558   0.96496   1.75480   2.52948
 Eigenvalue     1 is  -7.73D-02 should be greater than     0.000000 Eigenvector:
                          Y3        Y14       Z3        Z14       Y4
   1                    0.72451  -0.61376   0.19761  -0.18022   0.08631
                          Y15       Y2        X14       X5        X1
   1                   -0.05578  -0.05189  -0.05153  -0.04944   0.03865
 Eigenvalue     2 is  -1.64D-04 should be greater than     0.000000 Eigenvector:
                          Z15       X15       Z14       Z12       Y9
   1                    0.47199  -0.34762   0.32353  -0.30555  -0.26898
                          Z2        Y13       Z10       Z1        Y15
   1                   -0.26365   0.23342   0.21878  -0.19696   0.16670
 Angle between quadratic step and forces=  46.29 degrees.
 Linear search not attempted -- first point.
 B after Tr=    -0.001097    0.007698    0.002106
         Rot=    1.000000    0.000520    0.000112    0.000032 Ang=   0.06 deg.
 Variable       Old X    -DE/DX   Delta X   Delta X   Delta X     New X
                                 (Linear)    (Quad)   (Total)
    X1       -5.29899  -0.00105   0.00000  -0.00004  -0.00102  -5.30001
    Y1       -0.82568   0.00037   0.00000  -0.01470  -0.00746  -0.83314
    Z1       -0.75341  -0.00022   0.00000  -0.01391  -0.01211  -0.76553
    X2       -7.27057  -0.00004   0.00000   0.00493   0.00403  -7.26653
    Y2       -0.89795   0.00027   0.00000  -0.04993  -0.04300  -0.94095
    Z2       -1.15359   0.00006   0.00000  -0.02089  -0.01942  -1.17301
    X3       -3.08147   0.00009   0.00000  -0.00285  -0.00393  -3.08540
    Y3       -0.60578  -0.00820   0.00000  -0.10013  -0.09252  -0.69830
    Z3       -0.24660  -0.00222   0.00000  -0.03232  -0.03017  -0.27676
    X4       -0.41691  -0.00014   0.00000   0.00049  -0.00074  -0.41765
    Y4       -1.13914  -0.00111   0.00000   0.01005   0.01809  -1.12105
    Z4        0.29821  -0.00028   0.00000   0.00115   0.00434   0.30256
    X5        0.27242   0.00065   0.00000   0.00868   0.00695   0.27937
    Y5       -2.19801   0.00043   0.00000   0.03191   0.04186  -2.15615
    Z5        2.17338   0.00043   0.00000   0.01185   0.01627   2.18965
    X6        1.05857  -0.00008   0.00000   0.00294   0.00218   1.06075
    Y6       -0.34771   0.00027   0.00000   0.02313   0.02913  -0.31859
    Z6       -1.57883   0.00013   0.00000   0.00612   0.00881  -1.57003
    X7        3.74061  -0.00008   0.00000   0.00147   0.00060   3.74121
    Y7       -0.63155   0.00014   0.00000  -0.00546   0.00077  -0.63078
    Z7       -1.18081   0.00007   0.00000  -0.00369  -0.00009  -1.18090
    X8        4.73063   0.00007   0.00000   0.03104   0.02991   4.76054
    Y8        1.43671   0.00005   0.00000  -0.02341  -0.01545   1.42126
    Z8        0.53559   0.00003   0.00000   0.00001   0.00171   0.53731
    X9        4.54361  -0.00001   0.00000  -0.00268  -0.00312   4.54049
    Y9       -0.51064   0.00001   0.00000  -0.00852  -0.00431  -0.51495
    Z9       -3.07073   0.00000   0.00000  -0.00603  -0.00237  -3.07310
   X10        4.09937  -0.00002   0.00000  -0.01486  -0.01603   4.08334
   Y10       -2.50449   0.00001   0.00000  -0.01263  -0.00561  -2.51010
   Z10       -0.39958   0.00001   0.00000  -0.01198  -0.00634  -0.40592
   X11        6.77658   0.00001   0.00000   0.03008   0.02890   6.80548
   Y11        1.25603   0.00000   0.00000  -0.04479  -0.03677   1.21926
   Z11        0.72988  -0.00000   0.00000  -0.01068  -0.00832   0.72156
   X12        4.30573   0.00001   0.00000   0.04574   0.04491   4.35064
   Y12        3.29233   0.00001   0.00000  -0.01631  -0.00914   3.28319
   Z12       -0.25541   0.00000   0.00000   0.00869   0.00836  -0.24705
   X13        3.88082   0.00001   0.00000   0.03819   0.03663   3.91745
   Y13        1.29508   0.00000   0.00000  -0.02305  -0.01309   1.28199
   Z13        2.40698   0.00000   0.00000   0.00304   0.00470   2.41168
   X14       -2.76054   0.00057   0.00000  -0.04400  -0.04507  -2.80560
   Y14        3.15175   0.00770   0.00000   0.11210   0.12079   3.27255
   Z14        0.75207   0.00186   0.00000   0.03683   0.03492   0.78699
   X15       -2.94238   0.00001   0.00000  -0.08356  -0.08421  -3.02658
   Y15        3.81399   0.00006   0.00000   0.00982   0.01673   3.83071
   Z15       -0.94845   0.00012   0.00000   0.00225  -0.00029  -0.94874
         Item               Value     Threshold  Converged?
 Maximum Force            0.008196     0.000450     NO 
 RMS     Force            0.001756     0.000300     NO 
 Maximum Displacement     0.120795     0.001800     NO 
 RMS     Displacement     0.032642     0.001200     NO 
 Predicted change in Energy=-2.670071D-03
 GradGradGradGradGradGradGradGradGradGradGradGradGradGradGradGradGradGrad


 ----------------------------------------------------------------------

 Electric dipole moment (input orientation):
 (Debye = 10**-18 statcoulomb cm , SI units = C m)
                  (au)            (Debye)         (10**-30 SI)
   Tot        0.123199D+01      0.313139D+01      0.104452D+02
   x          0.408301D-01      0.103780D+00      0.346172D+00
   y          0.211554D+00      0.537717D+00      0.179363D+01
   z         -0.121300D+01     -0.308313D+01     -0.102842D+02

 Dipole polarizability, Alpha (input orientation).
 (esu units = cm**3 , SI units = C**2 m**2 J**-1)
 Alpha(0;0):
               (au)            (10**-24 esu)      (10**-40 SI)
   iso        0.743083D+02      0.110114D+02      0.122518D+02
   aniso      0.323945D+02      0.480037D+01      0.534113D+01
   xx         0.913303D+02      0.135338D+02      0.150583D+02
   yx         0.706957D+01      0.104760D+01      0.116561D+01
   yy         0.729431D+02      0.108090D+02      0.120267D+02
   zx         0.542533D+01      0.803951D+00      0.894516D+00
   zy         0.141916D+01      0.210297D+00      0.233987D+00
   zz         0.586515D+02      0.869125D+01      0.967032D+01

 ----------------------------------------------------------------------

 Dipole orientation:
     6         -5.31865564          0.92758929          0.42440034
     1         -7.30219928          1.06185331          0.74065474
     6         -3.08620249          0.63028602          0.03664721
     6         -0.40352882          1.06980674         -0.50304544
     8          0.35060102          1.79292253         -2.50829597
     8          1.00665963          0.61669455          1.52987271
     6          3.70121362          0.83566235          1.17813736
     6          4.74163750         -1.49377034         -0.12384893
     1          4.44078680          1.04338420          3.08630317
     1          4.09103625          2.54764843          0.09921442
     1          6.79342150         -1.34326990         -0.27836071
     1          4.28544273         -3.18720519          0.95952341
     1          3.95472900         -1.67803577         -2.01888215
     8         -2.74312180         -3.24198446         -0.29075466
     1         -2.98311710         -3.60288895          1.49124401

 Electric dipole moment (dipole orientation):
 (Debye = 10**-18 statcoulomb cm , SI units = C m)
                  (au)            (Debye)         (10**-30 SI)
   Tot        0.123199D+01      0.313139D+01      0.104452D+02
   x          0.000000D+00      0.000000D+00      0.000000D+00
   y          0.000000D+00      0.000000D+00      0.000000D+00
   z          0.123199D+01      0.313139D+01      0.104452D+02

 Dipole polarizability, Alpha (dipole orientation).
 (esu units = cm**3 , SI units = C**2 m**2 J**-1)
 Alpha(0;0):
               (au)            (10**-24 esu)      (10**-40 SI)
   iso        0.743083D+02      0.110114D+02      0.122518D+02
   aniso      0.323945D+02      0.480037D+01      0.534113D+01
   xx         0.916129D+02      0.135756D+02      0.151049D+02
   yx        -0.780293D+01     -0.115627D+01     -0.128653D+01
   yy         0.729567D+02      0.108111D+02      0.120289D+02
   zx        -0.303269D+01     -0.449399D+00     -0.500023D+00
   zy        -0.135341D+01     -0.200554D+00     -0.223147D+00
   zz         0.583553D+02      0.864737D+01      0.962149D+01

 ----------------------------------------------------------------------
 1\1\GINC-AJ\Freq\UM062X\6-311++G(d,p)\C5H7O3(2)\AAYUSH\23-Jun-2025\0\\
 # freq 6-311++g(d,p) m062x\\Title Card Required\\0,2\C,-2.804103,-0.43
 693,-0.398689\H,-3.847418,-0.475176,-0.610452\C,-1.630645,-0.320564,-0
 .130493\C,-0.220619,-0.602805,0.157808\O,0.144158,-1.163136,1.150104\O
 ,0.560173,-0.184001,-0.835481\C,1.979444,-0.334203,-0.62486\C,2.503339
 ,0.760275,0.283424\H,2.404373,-0.27022,-1.624961\H,2.169291,-1.325319,
 -0.211448\H,3.586014,0.664663,0.386236\H,2.278495,1.742225,-0.135156\H
 ,2.053641,0.685329,1.273721\O,-1.460813,1.667836,0.397978\H,-1.557038,
 2.018274,-0.501896\\Version=ES64L-G16RevA.03\State=2-A\HF=-420.2024849
 \S2=0.768242\S2-1=0.\S2A=0.750141\RMSD=6.872e-09\RMSF=1.756e-03\ZeroPo
 int=0.1114619\Thermal=0.1204472\Dipole=0.0408301,0.2115542,-1.2129987\
 DipoleDeriv=-0.2213368,0.4295617,0.0553311,0.049814,-0.0934135,0.01575
 21,-0.0581489,0.0868631,-0.1210857,0.27962,0.0251808,0.0115213,0.01905
 71,0.2050981,-0.0000711,0.0275564,-0.0032154,0.2253665,-0.5387602,-0.4
 171996,-0.1415407,-0.1248421,-0.746002,-0.1218641,-0.0531432,-0.228063
 2,-0.1555637,2.1118149,-0.2983792,-0.12731,0.0895222,0.7991282,-0.5504
 65,-0.4632354,-0.6175737,1.4695652,-0.811849,0.2115376,-0.1918306,0.02
 76982,-0.5822421,0.3396839,0.0015736,0.3982297,-0.9107531,-1.6147639,-
 0.1206749,0.3429006,-0.1659241,-0.3921326,0.1805531,0.4925811,0.195805
 ,-0.8108615,0.9946439,0.0878432,-0.0568087,0.0055979,0.2904291,0.07661
 89,0.0570564,0.0248419,0.3140295,-0.0658312,-0.0306868,0.0299889,-0.04
 68451,-0.0197776,-0.0842123,-0.0322547,-0.0554517,-0.0413561,-0.022887
 2,-0.0079757,0.0261667,-0.0226747,0.0674879,0.0008158,0.065404,-0.0247
 443,-0.0884581,-0.0178567,-0.0376467,0.0125202,0.0352679,-0.0676377,0.
 0005651,-0.0585445,0.0393821,0.0548018,-0.1293084,-0.0007429,-0.019784
 2,0.0141883,0.0683963,-0.0044956,-0.0193222,-0.0167351,0.0925935,0.080
 5542,0.0536656,-0.0309634,0.0060289,-0.0720084,0.0275884,-0.032562,0.0
 567308,0.0238869,0.0772209,0.0022523,0.0693882,-0.0139207,0.0451714,0.
 0121543,0.048141,-0.0147864,-0.0289193,-0.4097016,0.140416,0.0332116,0
 .1310786,0.1556094,0.0720907,0.0654691,0.2148566,-0.1488848,0.288441,-
 0.0371513,-0.012791,-0.0040464,0.3418934,0.0352858,-0.0405709,-0.05613
 92,0.1256389\Polar=91.3302923,7.0695653,72.9430625,5.4253272,1.4191563
 ,58.6514809\Quadrupole=8.2763196,-3.0603327,-5.2159869,0.9891416,2.428
 3506,-0.2558703\PG=C01 [X(C5H7O3)]\NImag=2\\1.40360540,0.08734164,0.06
 335239,0.29600647,0.02026436,0.11880637,-0.40715828,-0.01609058,-0.078
 52268,0.39746477,-0.00859546,-0.02510810,-0.00174243,0.01467128,0.0158
 0034,-0.07616123,-0.00329832,-0.04152813,0.07787696,0.00272120,0.03176
 058,-0.99490458,-0.07185352,-0.21561994,0.00956789,-0.00609509,-0.0002
 6537,1.30989224,-0.01609222,-0.01901039,-0.00049820,0.00151351,0.00611
 385,0.00125877,-0.02390880,-0.00107312,-0.20422620,-0.01135707,-0.0783
 1508,0.00143857,-0.00029747,0.00466130,0.24444949,-0.04351127,0.150127
 96,0.01558039,0.00592977,0.00377449,-0.00084626,0.00040072,-0.00207641
 ,-0.25359048,0.01351383,-0.03860965,0.66085783,-0.01800201,-0.00051229
 ,-0.00438173,-0.00053397,0.00416771,-0.00011672,0.03955141,-0.05370276
 ,0.00588872,-0.09583843,0.39272941,-0.00557660,0.00100735,0.00185233,-
 0.00096886,0.00002988,0.00535340,-0.01805870,0.00035443,-0.06337222,0.
 10866148,-0.32295087,0.80388244,-0.00525024,0.00002048,-0.00088802,0.0
 0032143,-0.00058409,0.00153726,-0.02103732,0.02776255,-0.04106348,-0.1
 8049000,0.10866161,-0.18476810,0.17793082,0.00244923,0.00095385,0.0003
 0469,0.00012213,-0.00039965,-0.00080313,0.02094062,0.00352247,0.023450
 82,0.10174739,-0.23199149,0.26805634,-0.11773742,0.22631535,0.00030778
 ,-0.00046317,0.00088085,0.00010250,-0.00047012,0.00008745,-0.03451312,
 0.02311344,-0.01684241,-0.17657477,0.26777892,-0.55214134,0.19517760,-
 0.34243966,0.65036839,-0.00850041,0.00025029,-0.00271637,0.00085708,0.
 00042528,-0.00099574,-0.05150135,-0.00454046,0.03533232,-0.18772994,-0
 .03592713,0.08978304,0.02790998,-0.01126131,0.02557881,0.49426148,0.00
 003250,0.00063306,0.00027816,0.00002138,-0.00033417,0.00011765,0.00008
 956,0.01045230,0.00033098,-0.02548355,-0.09497566,0.06022424,-0.013053
 67,0.00448374,0.05412662,0.02155037,0.14787102,0.00148704,0.00038085,0
 .00049653,-0.00010186,-0.00011292,-0.00062739,0.00952061,-0.00029532,0
 .00445802,0.06831815,0.06125313,-0.19989302,0.02505516,0.05383198,-0.0
 8120989,-0.09027532,-0.12830862,0.35998737,0.00230014,-0.00009666,0.00
 074587,-0.00035448,-0.00001429,-0.00003211,0.00222366,-0.00246710,-0.0
 0072302,-0.05309585,-0.01170273,0.03418931,-0.00103913,0.00971987,-0.0
 1772898,-0.17770316,0.01717514,-0.01406203,0.44974822,0.00077606,-0.00
 006739,-0.00005698,0.00005518,-0.00011926,-0.00003891,-0.00141803,0.00
 307038,0.00274175,-0.01211007,0.00617921,-0.00968553,0.00210345,-0.005
 60880,0.00045057,0.02535589,-0.07560944,0.01642908,-0.00971091,0.58047
 361,0.00141348,-0.00009691,0.00057516,0.00000597,-0.00009021,0.0002360
 1,0.00390923,0.00247004,-0.00280550,0.03385424,-0.00711230,0.00816562,
 0.00156914,-0.00111715,-0.00380367,-0.03537311,0.01648264,-0.09039829,
 -0.06051605,-0.04961001,0.61563006,-0.00019689,-0.00003260,-0.00004192
 ,0.00008929,-0.00002293,-0.00002256,-0.00055197,0.00125061,0.00097780,
 0.00174285,0.00091465,-0.00899578,0.00079159,-0.00213737,0.00220563,-0
 .03836058,-0.03007309,-0.02373175,-0.08133570,-0.02175247,-0.01430334,
 0.57565784,0.00024939,-0.00004539,0.00009983,-0.00000852,0.00000673,-0
 .00001416,-0.00025770,-0.00037512,-0.00036871,-0.00104676,-0.00128710,
 0.00295038,-0.00085071,0.00046610,-0.00159721,0.00111205,0.00718138,0.
 00102400,-0.03191482,-0.16056570,-0.06110312,-0.02645931,0.53866984,0.
 00003883,-0.00001822,-0.00005378,0.00000556,-0.00001752,-0.00000160,-0
 .00038825,0.00028029,0.00018020,0.00135828,0.00024432,0.00319425,-0.00
 145183,-0.00131355,-0.00117238,-0.00727668,-0.00183326,-0.00141373,-0.
 02140517,-0.05971538,-0.13401639,-0.02281667,-0.04048066,0.55536929,-0
 .00069519,0.00006173,-0.00027603,0.00003890,0.00003465,-0.00003778,-0.
 00111344,-0.00049508,0.00111521,-0.00380370,0.00466296,-0.00475409,0.0
 0156634,-0.00084173,0.00114889,-0.03333593,-0.00503492,0.03478252,-0.0
 8113307,-0.00512127,0.08813945,0.00687466,0.00145618,-0.01190170,0.107
 36893,0.00002090,-0.00001920,0.00000045,0.00001114,-0.00000783,0.00000
 871,0.00020977,0.00022568,-0.00002902,0.00053887,-0.00140913,0.0024808
 5,-0.00193744,0.00085700,-0.00039199,0.00440220,0.00124366,-0.00470720
 ,-0.00814814,-0.05511000,0.02067792,0.00960187,0.00173929,-0.02483505,
 0.00846075,0.05329683,-0.00005616,0.00002001,-0.00003010,-0.00001473,0
 .00000386,-0.00002517,-0.00014636,-0.00022350,0.00018257,-0.00234653,0
 .00050491,-0.00022951,0.00103318,-0.00047476,0.00072535,-0.00447335,0.
 00008168,0.00822201,0.10141976,0.01935282,-0.28903946,0.00596547,0.001
 53027,-0.01662557,-0.10297224,-0.01765843,0.30525962,-0.00025057,0.000
 06407,-0.00001322,0.00002645,0.00004023,-0.00001544,-0.00014385,-0.000
 61878,-0.00004773,0.00254824,0.00505170,-0.00774495,0.00042176,-0.0018
 4600,0.00358130,-0.02735829,0.03382786,-0.01320120,-0.05472437,0.03017
 722,-0.01064638,0.00393089,-0.01152053,0.00524989,0.00407139,-0.011684
 59,0.00361209,0.07160802,-0.00016446,0.00000109,-0.00003091,-0.0000088
 2,0.00000984,0.00002044,0.00019874,-0.00007545,-0.00021845,-0.00089872
 ,-0.00076584,0.00348146,-0.00255497,0.00083765,-0.00051533,0.00655502,
 0.00138341,0.00006232,0.04012598,-0.27540456,0.09345891,0.00239305,-0.
 02064339,0.00870369,-0.00108756,0.00077837,-0.00003807,-0.04259876,0.2
 9460933,-0.00009390,-0.00005301,-0.00003534,0.00002348,-0.00000229,0.0
 0000771,-0.00023609,0.00050010,0.00004130,0.00244298,-0.00057417,0.000
 56163,0.00111953,-0.00036863,-0.00122650,-0.00562892,0.00273592,-0.001
 62213,-0.01702902,0.09669464,-0.09261876,0.00379647,-0.02069199,0.0089
 6950,-0.00482603,0.02608849,-0.00899938,0.02124761,-0.10206730,0.09583
 523,-0.00006552,0.00001476,-0.00001673,0.00003487,0.00000502,0.0000107
 5,-0.00012273,0.00013257,0.00004178,0.00144583,0.00076926,-0.00127136,
 -0.00005848,-0.00051025,0.00033932,-0.00080309,-0.00275289,-0.00097476
 ,-0.01072698,0.00330554,0.00114033,-0.31435296,0.02383820,-0.02523813,
 0.00028269,-0.00007479,-0.00037198,0.00022458,-0.00044085,0.00008754,0
 .34064766,-0.00024039,-0.00000569,-0.00008089,0.00001311,-0.00000715,-
 0.00000335,0.00000785,0.00047248,0.00039666,0.00090780,0.00048482,-0.0
 0223788,0.00010210,-0.00058833,0.00067083,-0.00557962,-0.00396413,-0.0
 0315899,-0.02265794,0.00422058,0.00122899,0.02541407,-0.04959210,0.001
 36470,0.00056342,0.00088233,0.00003978,0.00055834,0.00024358,0.0010256
 2,-0.02573228,0.04983700,-0.00011823,0.00001292,-0.00001715,0.00000932
 ,-0.00000117,-0.00000456,-0.00006383,0.00011783,0.00019436,0.00052945,
 0.00065935,-0.00321752,0.00060651,-0.00005934,0.00127976,-0.00521336,-
 0.00446373,-0.00120168,-0.01818635,0.00537383,-0.00116735,-0.02376340,
 0.00095852,-0.04863806,0.00056817,0.00081384,0.00006345,0.00034465,0.0
 0006776,0.00068956,0.02827922,-0.00040030,0.04905474,-0.00014403,-0.00
 001522,-0.00003379,-0.00002566,-0.00000744,-0.00000151,0.00021385,0.00
 025893,0.00005956,-0.00023430,-0.00076105,0.00137059,-0.00053217,0.000
 13615,-0.00067243,0.00217001,0.00053733,0.00055769,0.00058147,-0.01229
 174,0.00431861,-0.05890063,0.05246575,-0.02152136,0.00012926,0.0008030
 9,0.00021641,-0.00028634,-0.00203751,-0.00156723,-0.00477650,0.0293117
 5,-0.01247031,0.05901728,-0.00019133,0.00000857,-0.00004208,-0.0000036
 1,-0.00000457,0.00000375,0.00008030,0.00020567,0.00006383,0.00014135,-
 0.00064488,0.00065495,-0.00030570,0.00024690,-0.00040847,0.00052362,0.
 00263262,0.00057361,0.00593721,-0.02422111,0.00955866,0.05041570,-0.26
 558482,0.09591800,0.00013725,0.00093626,-0.00009266,-0.00183557,-0.001
 82752,-0.00375464,0.00013808,-0.00076852,0.00002441,-0.05492741,0.2899
 9003,0.00016057,0.00000548,0.00003525,0.00000471,0.00000468,0.00000101
 ,-0.00011147,-0.00034503,-0.00009307,-0.00048304,0.00048922,-0.0002900
 2,0.00054070,0.00026866,0.00043064,0.00180523,0.00148735,0.00063786,0.
 00504135,-0.02239073,0.00862302,-0.02252091,0.09813390,-0.09129448,0.0
 0063772,0.00056165,0.00102715,-0.00227531,-0.00314526,-0.00240380,0.00
 004851,0.00156893,-0.00234217,0.02543597,-0.10253103,0.09519829,0.0000
 5184,-0.00002524,0.00003100,-0.00002988,-0.00001019,-0.00001087,0.0000
 8144,0.00007962,0.00000461,-0.00090173,-0.00033656,-0.00120699,-0.0006
 5210,-0.00079061,0.00055804,0.00136541,0.00102816,0.00096919,0.0045016
 6,0.00078361,-0.01321887,-0.09541246,-0.00715237,0.10538433,-0.0001921
 1,-0.00225271,-0.00192193,0.00004188,0.00053155,0.00067661,-0.01161620
 ,-0.00268198,0.02942261,0.00275431,-0.00006296,-0.00820111,0.09977796,
 0.00023645,0.00000587,0.00005062,-0.00000418,0.00000245,-0.00001476,-0
 .00022162,-0.00043383,0.00002852,-0.00095007,0.00144058,-0.00233164,0.
 00043454,-0.00108922,0.00146064,0.00002608,0.00082131,0.00283226,0.013
 18985,0.00152053,-0.02557294,-0.00953945,-0.04998454,0.02176271,-0.002
 57676,-0.00344895,-0.00297841,0.00060486,0.00094748,0.00041593,0.00127
 347,-0.00113321,-0.00304798,-0.01338914,-0.00089109,0.02578892,0.01100
 983,0.05216068,-0.00001723,-0.00000445,0.00001616,-0.00002498,0.000006
 14,-0.00001498,0.00004960,-0.00013258,0.00003685,-0.00075834,0.0002373
 6,-0.00181217,0.00112865,0.00074603,0.00105675,-0.00035055,0.00082421,
 0.00192326,0.00871835,0.00041310,-0.01953705,0.10319995,0.01936426,-0.
 27431513,-0.00162062,-0.00302510,-0.00052931,-0.00019854,0.00030570,0.
 00078059,-0.00209440,-0.00034967,0.00526608,0.00444910,0.00011676,-0.0
 0962382,-0.11258422,-0.01841412,0.29680193,-0.00445257,-0.00498629,-0.
 00286526,0.00009828,0.00026298,0.00013041,0.00265081,0.00500155,0.0006
 5231,-0.00471194,0.00146368,0.00235500,0.00080588,0.00014656,-0.000324
 99,-0.00028915,0.00369413,0.00047823,0.00118073,-0.00015659,-0.0004065
 5,-0.00006208,-0.00018643,0.00008174,-0.00003589,-0.00000034,0.0000436
 3,-0.00020757,0.00007016,-0.00003856,-0.00016669,0.00013387,0.00001619
 ,0.00025197,0.00013030,-0.00016757,0.00021154,-0.00011192,0.00013488,0
 .01138069,-0.04731685,-0.01964836,-0.01440115,0.00053149,-0.00015634,0
 .00021544,0.04190701,0.05457163,0.01706917,0.01063909,-0.01751614,-0.0
 0358921,-0.00106969,0.00154373,-0.00011755,-0.00146416,-0.00221027,0.0
 0037831,-0.00044926,0.00096636,0.00077791,0.00014666,-0.00004319,-0.00
 004167,-0.00012836,0.00005078,-0.00007087,-0.00002989,-0.00009346,0.00
 011845,0.00007653,-0.00001332,-0.00000846,-0.00008146,-0.00006596,0.00
 005549,-0.00013912,0.00003585,-0.00008897,-0.02081474,0.05822952,-0.01
 520067,-0.00571750,-0.00365669,0.00006956,-0.00004574,0.00012270,0.013
 48068,0.02349198,0.00056906,0.00440933,-0.00228267,-0.00240695,-0.0003
 7934,0.00019767,0.00128810,-0.00104187,-0.00242328,0.00149527,-0.00031
 155,-0.00004023,0.00015972,0.00001250,0.00021622,-0.00016024,-0.000073
 27,0.00004061,0.00001190,0.00012818,-0.00009460,0.00003093,0.00000525,
 -0.00006885,0.00003351,-0.00011604,-0.00012030,0.00007031,0.00010204,0
 .00002499,-0.00002486,0.04960092,-0.17467919,0.45470429,0.00008051,-0.
 00058263,0.00043612,-0.00008439,-0.00051067,0.00006361,-0.00166417,-0.
 00139073,0.00059844,0.00322907,0.00202662,-0.00301398,-0.00068836,-0.0
 0013726,0.00081442,-0.00098206,-0.00155831,0.00117832,-0.00042313,0.00
 000413,0.00011386,0.00008614,0.00027558,-0.00011884,-0.00002283,0.0000
 4942,0.00001275,0.00009777,-0.00008284,0.00002554,0.00005353,-0.000120
 09,0.00003936,-0.00021852,-0.00017724,0.00008467,0.00001845,0.00001808
 ,-0.00003167,-0.00665401,0.01819274,-0.05068573,0.00717202,-0.00050346
 ,-0.00053803,0.00023626,-0.00028955,0.00003616,-0.00005661,0.00076950,
 -0.00396380,0.00581156,0.00250878,-0.00219644,0.00155526,-0.00099102,0
 .00045070,-0.00119752,-0.00142814,0.00039117,-0.00018249,0.00101383,0.
 00027559,0.00004758,-0.00011939,0.00005803,-0.00001840,-0.00009125,-0.
 00001509,0.00000335,-0.00019014,-0.00000055,-0.00006711,-0.00004237,-0
 .00006833,-0.00004748,-0.00000204,-0.00001158,0.00004777,0.00001897,0.
 00004607,0.00000134,0.01535308,-0.07565084,0.16150089,-0.01600680,0.08
 118694,0.00203605,-0.00068232,0.00097360,0.00009645,0.00001410,-0.0000
 2832,-0.00200646,-0.00658098,0.00097667,-0.00249968,0.00036254,0.00035
 308,0.00078305,-0.00027997,0.00027890,0.00084586,0.00033943,-0.0008541
 9,-0.00012035,0.00008198,-0.00000312,0.00003851,-0.00002154,-0.0000218
 8,0.00006982,-0.00002572,-0.00001354,-0.00002094,0.00000965,-0.0000105
 4,0.00001466,0.00000442,0.00000704,-0.00002526,0.00003522,0.00002384,-
 0.00000446,-0.00000474,-0.00002430,-0.04969039,0.17438232,-0.45223704,
 0.05048315,-0.16763439,0.45057980\\0.00105239,-0.00036614,0.00021859,0
 .00003722,-0.00026592,-0.00006451,-0.00008971,0.00819620,0.00222319,0.
 00014464,0.00110728,0.00028007,-0.00064533,-0.00042765,-0.00043367,0.0
 0007683,-0.00026924,-0.00013117,0.00008388,-0.00014318,-0.00006971,-0.
 00007003,-0.00005002,-0.00002830,0.00000696,-0.00000631,-0.00000153,0.
 00001658,-0.00000900,-0.00000710,-0.00000701,-0.00000338,0.00000033,-0
 .00001075,-0.00000504,-0.00000384,-0.00001044,-0.00000389,-0.00000077,
 -0.00057063,-0.00769741,-0.00186213,-0.00001458,-0.00005629,-0.0001194
 6\\\@


 THE MOST BEAUTIFUL EXPERIENCE WE CAN HAVE IS THE MYSTERIOUS.
 IT IS THE FUNDAMENTAL EMOTION WHICH STANDS AT AT THE CRADLE 
 OF TRUE ART AND TRUE SCIENCE.

                                    -- ALBERT EINSTEIN
 Job cpu time:       0 days  0 hours 59 minutes 38.8 seconds.
 Elapsed time:       0 days  0 hours  2 minutes 29.4 seconds.
 File lengths (MBytes):  RWF=    153 Int=      0 D2E=      0 Chk=      9 Scr=      1
 Normal termination of Gaussian 16 at Mon Jun 23 04:46:55 2025.
