 Entering Gaussian System, Link 0=g16
 Initial command:
 /opt/g16/l1.exe "/home/aayush/scratches/g16/Gau-62116.inp" -scrdir="/home/aayush/scratches/g16/"
 Entering Link 1 = /opt/g16/l1.exe PID=     62119.
  
 Copyright (c) 1988,1990,1992,1993,1995,1998,2003,2009,2016,
            Gaussian, Inc.  All Rights Reserved.
  
 This is part of the Gaussian(R) 16 program.  It is based on
 the Gaussian(R) 09 system (copyright 2009, Gaussian, Inc.),
 the Gaussian(R) 03 system (copyright 2003, Gaussian, Inc.),
 the Gaussian(R) 98 system (copyright 1998, Gaussian, Inc.),
 the Gaussian(R) 94 system (copyright 1995, Gaussian, Inc.),
 the Gaussian 92(TM) system (copyright 1992, Gaussian, Inc.),
 the Gaussian 90(TM) system (copyright 1990, Gaussian, Inc.),
 the Gaussian 88(TM) system (copyright 1988, Gaussian, Inc.),
 the Gaussian 86(TM) system (copyright 1986, Carnegie Mellon
 University), and the Gaussian 82(TM) system (copyright 1983,
 Carnegie Mellon University). Gaussian is a federally registered
 trademark of Gaussian, Inc.
  
 This software contains proprietary and confidential information,
 including trade secrets, belonging to Gaussian, Inc.
  
 This software is provided under written license and may be
 used, copied, transmitted, or stored only in accord with that
 written license.
  
 The following legend is applicable only to US Government
 contracts under FAR:
  
                    RESTRICTED RIGHTS LEGEND
  
 Use, reproduction and disclosure by the US Government is
 subject to restrictions as set forth in subparagraphs (a)
 and (c) of the Commercial Computer Software - Restricted
 Rights clause in FAR 52.227-19.
  
 Gaussian, Inc.
 340 Quinnipiac St., Bldg. 40, Wallingford CT 06492
  
  
 ---------------------------------------------------------------
 Warning -- This program may not be used in any manner that
 competes with the business of Gaussian, Inc. or will provide
 assistance to any competitor of Gaussian, Inc.  The licensee
 of this program is prohibited from giving any competitor of
 Gaussian, Inc. access to this program.  By using this program,
 the user acknowledges that Gaussian, Inc. is engaged in the
 business of creating and licensing software in the field of
 computational chemistry and represents and warrants to the
 licensee that it is not a competitor of Gaussian, Inc. and that
 it will not use this program in any manner prohibited above.
 ---------------------------------------------------------------
  

 Cite this work as:
 Gaussian 16, Revision A.03,
 M. J. Frisch, G. W. Trucks, H. B. Schlegel, G. E. Scuseria, 
 M. A. Robb, J. R. Cheeseman, G. Scalmani, V. Barone, 
 G. A. Petersson, H. Nakatsuji, X. Li, M. Caricato, A. V. Marenich, 
 J. Bloino, B. G. Janesko, R. Gomperts, B. Mennucci, H. P. Hratchian, 
 J. V. Ortiz, A. F. Izmaylov, J. L. Sonnenberg, D. Williams-Young, 
 F. Ding, F. Lipparini, F. Egidi, J. Goings, B. Peng, A. Petrone, 
 T. Henderson, D. Ranasinghe, V. G. Zakrzewski, J. Gao, N. Rega, 
 G. Zheng, W. Liang, M. Hada, M. Ehara, K. Toyota, R. Fukuda, 
 J. Hasegawa, M. Ishida, T. Nakajima, Y. Honda, O. Kitao, H. Nakai, 
 T. Vreven, K. Throssell, J. A. Montgomery, Jr., J. E. Peralta, 
 F. Ogliaro, M. J. Bearpark, J. J. Heyd, E. N. Brothers, K. N. Kudin, 
 V. N. Staroverov, T. A. Keith, R. Kobayashi, J. Normand, 
 K. Raghavachari, A. P. Rendell, J. C. Burant, S. S. Iyengar, 
 J. Tomasi, M. Cossi, J. M. Millam, M. Klene, C. Adamo, R. Cammi, 
 J. W. Ochterski, R. L. Martin, K. Morokuma, O. Farkas, 
 J. B. Foresman, and D. J. Fox, Gaussian, Inc., Wallingford CT, 2016.
 
 ******************************************
 Gaussian 16:  ES64L-G16RevA.03 25-Dec-2016
                23-Jun-2025 
 ******************************************
 %nprocshared=24
 Will use up to   24 processors via shared memory.
 %mem=12GB
 %chk=ethyl_propiolate_ts1.chk
 --------------------------
 # freq 6-311++g(d,p) m062x
 --------------------------
 1/10=4,30=1,38=1/1,3;
 2/12=2,17=6,18=5,40=1/2;
 3/5=4,6=6,7=1111,11=2,25=1,30=1,71=2,74=-55,140=1/1,2,3;
 4//1;
 5/5=2,38=5,98=1/2;
 8/6=4,10=90,11=11/1;
 11/6=1,8=1,9=11,15=111,16=1/1,2,10;
 10/6=1/2;
 6/7=2,8=2,9=2,10=2,28=1/1;
 7/8=1,10=1,25=1/1,2,3,16;
 1/10=4,30=1/3;
 99//99;
 -------------------
 Title Card Required
 -------------------
 Symbolic Z-matrix:
 Charge =  0 Multiplicity = 2
 C                    -2.80268  -0.43669  -0.40088 
 H                    -3.8455   -0.47942  -0.6147 
 C                    -1.6298   -0.29995  -0.12656 
 C                    -0.22031  -0.60137   0.15584 
 O                     0.14293  -1.16835   1.1447 
 O                     0.56043  -0.18088  -0.83629 
 C                     1.97978  -0.3317   -0.62592 
 C                     2.50306   0.75926   0.28701 
 H                     2.40487  -0.26342  -1.62565 
 H                     2.16977  -1.32449  -0.21665 
 H                     3.58571   0.66331   0.38976 
 H                     2.27807   1.74286  -0.12753 
 H                     2.0531    0.68025   1.27689 
 O                    -1.46203   1.65265   0.4009 
 H                    -1.55704   2.01618  -0.49351 
 

 GradGradGradGradGradGradGradGradGradGradGradGradGradGradGradGradGradGrad
 Berny optimization.
 Initialization pass.
 Trust Radius=3.00D-01 FncErr=1.00D-07 GrdErr=1.00D-07 EigMax=2.50D+02 EigMin=1.00D-04
 Number of steps in this run=      2 maximum allowed number of steps=      2.
 GradGradGradGradGradGradGradGradGradGradGradGradGradGradGradGradGradGrad

                          Input orientation:                          
 ---------------------------------------------------------------------
 Center     Atomic      Atomic             Coordinates (Angstroms)
 Number     Number       Type             X           Y           Z
 ---------------------------------------------------------------------
      1          6           0       -2.802681   -0.436694   -0.400884
      2          1           0       -3.845501   -0.479418   -0.614701
      3          6           0       -1.629798   -0.299951   -0.126558
      4          6           0       -0.220310   -0.601366    0.155840
      5          8           0        0.142934   -1.168348    1.144700
      6          8           0        0.560432   -0.180877   -0.836290
      7          6           0        1.979780   -0.331698   -0.625919
      8          6           0        2.503059    0.759259    0.287010
      9          1           0        2.404870   -0.263416   -1.625650
     10          1           0        2.169767   -1.324489   -0.216646
     11          1           0        3.585712    0.663311    0.389758
     12          1           0        2.278066    1.742860   -0.127528
     13          1           0        2.053101    0.680250    1.276885
     14          8           0       -1.462026    1.652653    0.400898
     15          1           0       -1.557035    2.016175   -0.493506
 ---------------------------------------------------------------------
                    Distance matrix (angstroms):
                    1          2          3          4          5
     1  C    0.000000
     2  H    1.065372   0.000000
     3  C    1.212274   2.275924   0.000000
     4  C    2.646828   3.708182   1.468760   0.000000
     5  O    3.405994   4.413358   2.347933   1.196352   0.000000
     6  O    3.400816   4.421592   2.305430   1.330673   2.252493
     7  C    4.788904   5.827164   3.644094   2.350375   2.684973
     8  C    5.482187   6.530821   4.286429   3.047170   3.165674
     9  H    5.352445   6.335283   4.304318   3.190531   3.689186
    10  H    5.054440   6.087367   3.936304   2.524702   2.446568
    11  H    6.530443   7.585361   5.328790   4.017453   3.972107
    12  H    5.535266   6.532529   4.409589   3.437670   3.827856
    13  H    5.257480   6.302098   4.061304   2.840366   2.661489
    14  O    2.608751   3.355312   2.029537   2.585056   3.329742
    15  H    2.752595   3.388178   2.346143   3.009984   3.964190
                    6          7          8          9         10
     6  O    0.000000
     7  C    1.442758   0.000000
     8  C    2.432994   1.515733   0.000000
     9  H    2.007948   1.088497   2.171123   0.000000
    10  H    2.069243   1.090520   2.169507   1.779450   0.000000
    11  H    3.371671   2.144915   1.091742   2.512982   2.514751
    12  H    2.674579   2.154335   1.090841   2.507108   3.070554
    13  H    2.726740   2.156404   1.090210   3.072288   2.502643
    14  O    2.997132   4.103417   4.066082   4.767715   4.736524
    15  H    3.070538   4.247246   4.321274   4.709031   5.012558
                   11         12         13         14         15
    11  H    0.000000
    12  H    1.772836   0.000000
    13  H    1.770926   1.775423   0.000000
    14  O    5.143790   3.778314   3.750872   0.000000
    15  H    5.390570   3.862207   4.236987   0.970120   0.000000
 Stoichiometry    C5H7O3(2)
 Framework group  C1[X(C5H7O3)]
 Deg. of freedom    39
 Full point group                 C1      NOp   1
 Largest Abelian subgroup         C1      NOp   1
 Largest concise Abelian subgroup C1      NOp   1
                         Standard orientation:                         
 ---------------------------------------------------------------------
 Center     Atomic      Atomic             Coordinates (Angstroms)
 Number     Number       Type             X           Y           Z
 ---------------------------------------------------------------------
      1          6           0       -2.802681   -0.436694   -0.400884
      2          1           0       -3.845501   -0.479418   -0.614701
      3          6           0       -1.629798   -0.299951   -0.126558
      4          6           0       -0.220310   -0.601366    0.155840
      5          8           0        0.142934   -1.168348    1.144700
      6          8           0        0.560432   -0.180877   -0.836290
      7          6           0        1.979780   -0.331698   -0.625919
      8          6           0        2.503059    0.759259    0.287010
      9          1           0        2.404870   -0.263416   -1.625650
     10          1           0        2.169767   -1.324489   -0.216646
     11          1           0        3.585712    0.663311    0.389758
     12          1           0        2.278066    1.742860   -0.127528
     13          1           0        2.053101    0.680250    1.276885
     14          8           0       -1.462026    1.652653    0.400898
     15          1           0       -1.557035    2.016175   -0.493506
 ---------------------------------------------------------------------
 Rotational constants (GHZ):           3.6113927           1.3080063           1.1739681
 Standard basis: 6-311++G(d,p) (5D, 7F)
 There are   233 symmetry adapted cartesian basis functions of A   symmetry.
 There are   225 symmetry adapted basis functions of A   symmetry.
   225 basis functions,   351 primitive gaussians,   233 cartesian basis functions
    31 alpha electrons       30 beta electrons
       nuclear repulsion energy       361.9450040405 Hartrees.
 NAtoms=   15 NActive=   15 NUniq=   15 SFac= 1.00D+00 NAtFMM=   60 NAOKFM=F Big=F
 Integral buffers will be    131072 words long.
 Raffenetti 2 integral format.
 Two-electron integral symmetry is turned on.
 One-electron integrals computed using PRISM.
 NBasis=   225 RedAO= T EigKep=  2.02D-06  NBF=   225
 NBsUse=   225 1.00D-06 EigRej= -1.00D+00 NBFU=   225
 ExpMin= 3.60D-02 ExpMax= 8.59D+03 ExpMxC= 1.30D+03 IAcc=3 IRadAn=         5 AccDes= 0.00D+00
 Harris functional with IExCor= 1009 and IRadAn=       5 diagonalized for initial guess.
 HarFok:  IExCor= 1009 AccDes= 0.00D+00 IRadAn=         5 IDoV= 1 UseB2=F ITyADJ=14
 ICtDFT=  3500011 ScaDFX=  1.000000  1.000000  1.000000  1.000000
 FoFCou: FMM=F IPFlag=           0 FMFlag=      100000 FMFlg1=           0
         NFxFlg=           0 DoJE=T BraDBF=F KetDBF=T FulRan=T
         wScrn=  0.000000 ICntrl=       500 IOpCl=  0 I1Cent=   200000004 NGrid=           0
         NMat0=    1 NMatS0=      1 NMatT0=    0 NMatD0=    1 NMtDS0=    0 NMtDT0=    0
 Petite list used in FoFCou.
 Initial guess <Sx>= 0.0000 <Sy>= 0.0000 <Sz>= 0.5000 <S**2>= 0.7500 S= 0.5000
 Requested convergence on RMS density matrix=1.00D-08 within 128 cycles.
 Requested convergence on MAX density matrix=1.00D-06.
 Requested convergence on             energy=1.00D-06.
 No special actions if energy rises.
 Restarting incremental Fock formation.
 SCF Done:  E(UM062X) =  -420.202028990     A.U. after   23 cycles
            NFock= 23  Conv=0.50D-08     -V/T= 2.0033
 <Sx>= 0.0000 <Sy>= 0.0000 <Sz>= 0.5000 <S**2>= 0.7717 S= 0.5108
 <L.S>=  0.00000000000    
 Annihilation of the first spin contaminant:
 S**2 before annihilation     0.7717,   after     0.7502
 DoSCS=F DFT=T ScalE2(SS,OS)=  1.000000  1.000000
 Range of M.O.s used for correlation:     1   225
 NBasis=   225 NAE=    31 NBE=    30 NFC=     0 NFV=     0
 NROrb=    225 NOA=    31 NOB=    30 NVA=   194 NVB=   195

 **** Warning!!: The largest alpha MO coefficient is  0.16429438D+03


 **** Warning!!: The largest beta MO coefficient is  0.17201851D+03

 Symmetrizing basis deriv contribution to polar:
 IMax=3 JMax=2 DiffMx= 0.00D+00
 G2DrvN: will do    16 centers at a time, making    1 passes.
 Calling FoFCou, ICntrl=  3107 FMM=F I1Cent=   0 AccDes= 0.00D+00.
 End of G2Drv F.D. properties file   721 does not exist.
 End of G2Drv F.D. properties file   722 does not exist.
 End of G2Drv F.D. properties file   788 does not exist.
          IDoAtm=111111111111111
          Differentiating once with respect to electric field.
                with respect to dipole field.
          Differentiating once with respect to nuclear coordinates.
 Keep R1 and R2 ints in memory in canonical form, NReq=671901991.
          There are    48 degrees of freedom in the 1st order CPHF.  IDoFFX=6 NUNeed=     3.
     45 vectors produced by pass  0 Test12= 2.47D-14 2.08D-09 XBig12= 9.33D+01 3.26D+00.
 AX will form    45 AO Fock derivatives at one time.
     45 vectors produced by pass  1 Test12= 2.47D-14 2.08D-09 XBig12= 1.89D+01 5.97D-01.
     45 vectors produced by pass  2 Test12= 2.47D-14 2.08D-09 XBig12= 7.11D-01 1.13D-01.
     45 vectors produced by pass  3 Test12= 2.47D-14 2.08D-09 XBig12= 1.05D-02 1.25D-02.
     45 vectors produced by pass  4 Test12= 2.47D-14 2.08D-09 XBig12= 1.00D-04 1.34D-03.
     45 vectors produced by pass  5 Test12= 2.47D-14 2.08D-09 XBig12= 1.04D-06 1.04D-04.
     39 vectors produced by pass  6 Test12= 2.47D-14 2.08D-09 XBig12= 9.87D-09 1.09D-05.
     22 vectors produced by pass  7 Test12= 2.47D-14 2.08D-09 XBig12= 6.17D-11 7.34D-07.
      4 vectors produced by pass  8 Test12= 2.47D-14 2.08D-09 XBig12= 5.01D-13 4.87D-08.
      3 vectors produced by pass  9 Test12= 2.47D-14 2.08D-09 XBig12= 5.26D-15 6.77D-09.
      1 vectors produced by pass 10 Test12= 2.47D-14 2.08D-09 XBig12= 3.36D-16 3.15D-09.
 InvSVY:  IOpt=1 It=  1 EMax= 7.11D-15
 Solved reduced A of dimension   339 with    48 vectors.
 Isotropic polarizability for W=    0.000000       74.78 Bohr**3.
 End of Minotr F.D. properties file   721 does not exist.
 End of Minotr F.D. properties file   722 does not exist.
 End of Minotr F.D. properties file   788 does not exist.

 **********************************************************************

            Population analysis using the SCF density.

 **********************************************************************

 Orbital symmetries:
 Alpha Orbitals:
       Occupied  (A) (A) (A) (A) (A) (A) (A) (A) (A) (A) (A) (A)
                 (A) (A) (A) (A) (A) (A) (A) (A) (A) (A) (A) (A)
                 (A) (A) (A) (A) (A) (A) (A)
       Virtual   (A) (A) (A) (A) (A) (A) (A) (A) (A) (A) (A) (A)
                 (A) (A) (A) (A) (A) (A) (A) (A) (A) (A) (A) (A)
                 (A) (A) (A) (A) (A) (A) (A) (A) (A) (A) (A) (A)
                 (A) (A) (A) (A) (A) (A) (A) (A) (A) (A) (A) (A)
                 (A) (A) (A) (A) (A) (A) (A) (A) (A) (A) (A) (A)
                 (A) (A) (A) (A) (A) (A) (A) (A) (A) (A) (A) (A)
                 (A) (A) (A) (A) (A) (A) (A) (A) (A) (A) (A) (A)
                 (A) (A) (A) (A) (A) (A) (A) (A) (A) (A) (A) (A)
                 (A) (A) (A) (A) (A) (A) (A) (A) (A) (A) (A) (A)
                 (A) (A) (A) (A) (A) (A) (A) (A) (A) (A) (A) (A)
                 (A) (A) (A) (A) (A) (A) (A) (A) (A) (A) (A) (A)
                 (A) (A) (A) (A) (A) (A) (A) (A) (A) (A) (A) (A)
                 (A) (A) (A) (A) (A) (A) (A) (A) (A) (A) (A) (A)
                 (A) (A) (A) (A) (A) (A) (A) (A) (A) (A) (A) (A)
                 (A) (A) (A) (A) (A) (A) (A) (A) (A) (A) (A) (A)
                 (A) (A) (A) (A) (A) (A) (A) (A) (A) (A) (A) (A)
                 (A) (A)
 Beta  Orbitals:
       Occupied  (A) (A) (A) (A) (A) (A) (A) (A) (A) (A) (A) (A)
                 (A) (A) (A) (A) (A) (A) (A) (A) (A) (A) (A) (A)
                 (A) (A) (A) (A) (A) (A)
       Virtual   (A) (A) (A) (A) (A) (A) (A) (A) (A) (A) (A) (A)
                 (A) (A) (A) (A) (A) (A) (A) (A) (A) (A) (A) (A)
                 (A) (A) (A) (A) (A) (A) (A) (A) (A) (A) (A) (A)
                 (A) (A) (A) (A) (A) (A) (A) (A) (A) (A) (A) (A)
                 (A) (A) (A) (A) (A) (A) (A) (A) (A) (A) (A) (A)
                 (A) (A) (A) (A) (A) (A) (A) (A) (A) (A) (A) (A)
                 (A) (A) (A) (A) (A) (A) (A) (A) (A) (A) (A) (A)
                 (A) (A) (A) (A) (A) (A) (A) (A) (A) (A) (A) (A)
                 (A) (A) (A) (A) (A) (A) (A) (A) (A) (A) (A) (A)
                 (A) (A) (A) (A) (A) (A) (A) (A) (A) (A) (A) (A)
                 (A) (A) (A) (A) (A) (A) (A) (A) (A) (A) (A) (A)
                 (A) (A) (A) (A) (A) (A) (A) (A) (A) (A) (A) (A)
                 (A) (A) (A) (A) (A) (A) (A) (A) (A) (A) (A) (A)
                 (A) (A) (A) (A) (A) (A) (A) (A) (A) (A) (A) (A)
                 (A) (A) (A) (A) (A) (A) (A) (A) (A) (A) (A) (A)
                 (A) (A) (A) (A) (A) (A) (A) (A) (A) (A) (A) (A)
                 (A) (A) (A)
 The electronic state is 2-A.
 Alpha  occ. eigenvalues --  -19.68298 -19.65826 -19.63214 -10.70704 -10.60594
 Alpha  occ. eigenvalues --  -10.59276 -10.58528 -10.53617  -1.25763  -1.16519
 Alpha  occ. eigenvalues --   -1.11922  -0.91114  -0.87601  -0.78255  -0.70793
 Alpha  occ. eigenvalues --   -0.64654  -0.62153  -0.58740  -0.57008  -0.54227
 Alpha  occ. eigenvalues --   -0.53330  -0.50072  -0.48697  -0.46196  -0.45267
 Alpha  occ. eigenvalues --   -0.42002  -0.41689  -0.39092  -0.38493  -0.36934
 Alpha  occ. eigenvalues --   -0.34153
 Alpha virt. eigenvalues --   -0.00719  -0.00508   0.00479   0.01365   0.02207
 Alpha virt. eigenvalues --    0.02768   0.03429   0.04488   0.05458   0.06050
 Alpha virt. eigenvalues --    0.07104   0.07832   0.07944   0.10176   0.10527
 Alpha virt. eigenvalues --    0.10676   0.11473   0.12618   0.13151   0.13419
 Alpha virt. eigenvalues --    0.13919   0.14457   0.15137   0.15319   0.15643
 Alpha virt. eigenvalues --    0.17234   0.17392   0.18169   0.19584   0.20577
 Alpha virt. eigenvalues --    0.20648   0.22213   0.22881   0.23576   0.24704
 Alpha virt. eigenvalues --    0.25143   0.26846   0.28587   0.29829   0.30270
 Alpha virt. eigenvalues --    0.30983   0.32398   0.32579   0.33005   0.34326
 Alpha virt. eigenvalues --    0.34864   0.36342   0.36846   0.37253   0.40270
 Alpha virt. eigenvalues --    0.41864   0.42773   0.44795   0.46862   0.49592
 Alpha virt. eigenvalues --    0.50508   0.53008   0.54737   0.56768   0.58207
 Alpha virt. eigenvalues --    0.59557   0.60931   0.63267   0.65651   0.67163
 Alpha virt. eigenvalues --    0.69564   0.70156   0.70389   0.71766   0.72644
 Alpha virt. eigenvalues --    0.73776   0.75489   0.77688   0.78142   0.79567
 Alpha virt. eigenvalues --    0.84363   0.86709   0.91103   0.94249   0.97967
 Alpha virt. eigenvalues --    1.01029   1.02671   1.06233   1.08370   1.11252
 Alpha virt. eigenvalues --    1.16253   1.18436   1.18640   1.20642   1.23513
 Alpha virt. eigenvalues --    1.24515   1.26914   1.30470   1.32587   1.33681
 Alpha virt. eigenvalues --    1.35636   1.36643   1.37914   1.40772   1.44981
 Alpha virt. eigenvalues --    1.47460   1.50555   1.51174   1.52023   1.56494
 Alpha virt. eigenvalues --    1.58660   1.59773   1.60992   1.62384   1.64798
 Alpha virt. eigenvalues --    1.66573   1.66676   1.70532   1.72571   1.75170
 Alpha virt. eigenvalues --    1.76381   1.81519   1.84134   1.86905   1.88452
 Alpha virt. eigenvalues --    1.91228   1.95574   1.99061   2.03412   2.05299
 Alpha virt. eigenvalues --    2.09680   2.11391   2.14012   2.20996   2.31466
 Alpha virt. eigenvalues --    2.35421   2.36877   2.45696   2.51693   2.53619
 Alpha virt. eigenvalues --    2.54339   2.56506   2.60603   2.62274   2.63420
 Alpha virt. eigenvalues --    2.65334   2.66414   2.72059   2.73554   2.75372
 Alpha virt. eigenvalues --    2.80318   2.82443   2.85292   2.90122   2.91481
 Alpha virt. eigenvalues --    2.94589   2.96870   2.99113   3.03671   3.05568
 Alpha virt. eigenvalues --    3.10904   3.13729   3.16025   3.18279   3.21175
 Alpha virt. eigenvalues --    3.26382   3.27650   3.31447   3.36300   3.37874
 Alpha virt. eigenvalues --    3.45183   3.49394   3.65597   3.75408   3.85532
 Alpha virt. eigenvalues --    3.86031   3.88676   3.91417   4.02931   4.12342
 Alpha virt. eigenvalues --    4.19073   4.28223   5.12810   5.13569   5.18169
 Alpha virt. eigenvalues --    5.20472   5.32371   5.47683   5.58467   5.73356
 Alpha virt. eigenvalues --    5.94652  23.60935  23.92889  23.94301  24.05887
 Alpha virt. eigenvalues --   25.03213  49.97190  50.00884  50.11335
  Beta  occ. eigenvalues --  -19.68303 -19.64414 -19.63233 -10.70679 -10.60593
  Beta  occ. eigenvalues --  -10.59327 -10.58289 -10.53618  -1.25768  -1.16560
  Beta  occ. eigenvalues --   -1.06105  -0.90518  -0.87120  -0.78017  -0.70542
  Beta  occ. eigenvalues --   -0.64552  -0.61648  -0.58668  -0.56731  -0.53482
  Beta  occ. eigenvalues --   -0.51620  -0.49125  -0.46682  -0.45293  -0.41986
  Beta  occ. eigenvalues --   -0.40882  -0.38829  -0.38346  -0.37040  -0.36467
  Beta virt. eigenvalues --   -0.09623  -0.00406   0.00218   0.00650   0.01680
  Beta virt. eigenvalues --    0.02303   0.02903   0.03400   0.04616   0.05549
  Beta virt. eigenvalues --    0.06022   0.07199   0.07677   0.08017   0.10323
  Beta virt. eigenvalues --    0.10665   0.10855   0.11742   0.12596   0.13193
  Beta virt. eigenvalues --    0.13566   0.13996   0.14608   0.15234   0.15656
  Beta virt. eigenvalues --    0.15760   0.17102   0.17520   0.18217   0.20066
  Beta virt. eigenvalues --    0.20608   0.20682   0.22418   0.23149   0.23670
  Beta virt. eigenvalues --    0.24436   0.25114   0.26936   0.28507   0.29907
  Beta virt. eigenvalues --    0.30197   0.31010   0.32409   0.32685   0.32995
  Beta virt. eigenvalues --    0.34309   0.34870   0.36370   0.36914   0.37248
  Beta virt. eigenvalues --    0.40266   0.42030   0.42739   0.44808   0.46888
  Beta virt. eigenvalues --    0.49611   0.50618   0.53090   0.54793   0.56850
  Beta virt. eigenvalues --    0.58693   0.59924   0.61275   0.63410   0.65659
  Beta virt. eigenvalues --    0.67153   0.69623   0.70215   0.70485   0.71825
  Beta virt. eigenvalues --    0.72517   0.73815   0.75477   0.77650   0.78147
  Beta virt. eigenvalues --    0.79558   0.84387   0.86724   0.91122   0.94601
  Beta virt. eigenvalues --    0.97968   1.01079   1.03345   1.06517   1.08413
  Beta virt. eigenvalues --    1.13193   1.16604   1.18942   1.19085   1.21202
  Beta virt. eigenvalues --    1.23652   1.24782   1.27270   1.30793   1.33197
  Beta virt. eigenvalues --    1.34938   1.35926   1.36841   1.38134   1.41486
  Beta virt. eigenvalues --    1.45629   1.47785   1.50683   1.51569   1.52881
  Beta virt. eigenvalues --    1.56989   1.58783   1.59795   1.61045   1.62375
  Beta virt. eigenvalues --    1.64803   1.66592   1.66717   1.70531   1.72743
  Beta virt. eigenvalues --    1.75175   1.76669   1.81604   1.84401   1.87002
  Beta virt. eigenvalues --    1.88679   1.91360   1.96269   1.99085   2.03534
  Beta virt. eigenvalues --    2.05445   2.09892   2.12421   2.14031   2.21022
  Beta virt. eigenvalues --    2.31484   2.35447   2.37068   2.45789   2.51700
  Beta virt. eigenvalues --    2.53768   2.54351   2.56517   2.61161   2.62435
  Beta virt. eigenvalues --    2.63811   2.65624   2.66471   2.72408   2.73587
  Beta virt. eigenvalues --    2.75660   2.81116   2.82533   2.87696   2.90821
  Beta virt. eigenvalues --    2.93296   2.94975   2.97302   2.99498   3.04590
  Beta virt. eigenvalues --    3.07685   3.11468   3.16077   3.17496   3.19974
  Beta virt. eigenvalues --    3.22354   3.26641   3.29487   3.31493   3.36814
  Beta virt. eigenvalues --    3.37812   3.45144   3.50120   3.65575   3.75502
  Beta virt. eigenvalues --    3.85545   3.86080   3.90137   3.92905   4.02950
  Beta virt. eigenvalues --    4.12296   4.18991   4.28220   5.13848   5.16797
  Beta virt. eigenvalues --    5.20883   5.23275   5.32371   5.47669   5.60945
  Beta virt. eigenvalues --    5.73359   5.94640  23.61006  23.92895  23.94307
  Beta virt. eigenvalues --   24.05887  25.03627  49.96709  50.00823  50.11359
          Condensed to atoms (all electrons):
               1          2          3          4          5          6
     1  C   23.273545   0.672669  -7.225044  -9.883778   0.028842   0.118895
     2  H    0.672669   0.432619  -0.203911  -0.090429  -0.001890  -0.001346
     3  C   -7.225044  -0.203911  14.620715  -2.153381   0.248187  -0.234139
     4  C   -9.883778  -0.090429  -2.153381  18.572681   0.133714  -0.054559
     5  O    0.028842  -0.001890   0.248187   0.133714   7.966827  -0.146844
     6  O    0.118895  -0.001346  -0.234139  -0.054559  -0.146844   8.282296
     7  C   -0.153220  -0.000804  -0.345985   0.362578   0.043807   0.147667
     8  C    0.141017   0.000260   0.171899  -0.404312  -0.068743  -0.036963
     9  H    0.001076   0.000075   0.001249   0.007137   0.005536  -0.090497
    10  H   -0.039146  -0.000237  -0.085891   0.116999  -0.020690  -0.013595
    11  H    0.004925   0.000041   0.013515  -0.013443  -0.002011   0.016374
    12  H   -0.002973   0.000066  -0.018970   0.022816   0.000765  -0.000861
    13  H    0.009677  -0.000215   0.016820  -0.055620   0.007463  -0.018381
    14  O   -0.312374  -0.006145   0.425256  -0.230431  -0.005550   0.033149
    15  H   -0.129372  -0.003172   0.117997   0.031705   0.000225  -0.003145
               7          8          9         10         11         12
     1  C   -0.153220   0.141017   0.001076  -0.039146   0.004925  -0.002973
     2  H   -0.000804   0.000260   0.000075  -0.000237   0.000041   0.000066
     3  C   -0.345985   0.171899   0.001249  -0.085891   0.013515  -0.018970
     4  C    0.362578  -0.404312   0.007137   0.116999  -0.013443   0.022816
     5  O    0.043807  -0.068743   0.005536  -0.020690  -0.002011   0.000765
     6  O    0.147667  -0.036963  -0.090497  -0.013595   0.016374  -0.000861
     7  C    5.454538   0.006564   0.445654   0.414385  -0.052648  -0.033624
     8  C    0.006564   5.486848  -0.063049  -0.034116   0.402410   0.414044
     9  H    0.445654  -0.063049   0.537576  -0.037516   0.000378  -0.011733
    10  H    0.414385  -0.034116  -0.037516   0.521054  -0.006058   0.006258
    11  H   -0.052648   0.402410   0.000378  -0.006058   0.533541  -0.034365
    12  H   -0.033624   0.414044  -0.011733   0.006258  -0.034365   0.546072
    13  H    0.002530   0.381279   0.011402  -0.011761  -0.033310  -0.046046
    14  O   -0.016561   0.026213   0.000242  -0.002296   0.002134  -0.001892
    15  H    0.002630   0.000495   0.000428  -0.000480   0.000100  -0.001128
              13         14         15
     1  C    0.009677  -0.312374  -0.129372
     2  H   -0.000215  -0.006145  -0.003172
     3  C    0.016820   0.425256   0.117997
     4  C   -0.055620  -0.230431   0.031705
     5  O    0.007463  -0.005550   0.000225
     6  O   -0.018381   0.033149  -0.003145
     7  C    0.002530  -0.016561   0.002630
     8  C    0.381279   0.026213   0.000495
     9  H    0.011402   0.000242   0.000428
    10  H   -0.011761  -0.002296  -0.000480
    11  H   -0.033310   0.002134   0.000100
    12  H   -0.046046  -0.001892  -0.001128
    13  H    0.540465  -0.000473   0.000616
    14  O   -0.000473   8.066739   0.251940
    15  H    0.000616   0.251940   0.510522
          Atomic-Atomic Spin Densities.
               1          2          3          4          5          6
     1  C    2.063877   0.059053  -0.692948  -0.600985  -0.002758  -0.049905
     2  H    0.059053  -0.010019  -0.042079  -0.018480   0.000015  -0.000589
     3  C   -0.692948  -0.042079   0.420956   0.157900  -0.005357  -0.000602
     4  C   -0.600985  -0.018480   0.157900   0.229804   0.011590   0.036080
     5  O   -0.002758   0.000015  -0.005357   0.011590  -0.013388  -0.000426
     6  O   -0.049905  -0.000589  -0.000602   0.036080  -0.000426   0.004713
     7  C   -0.048545  -0.000494  -0.034595   0.051478  -0.000757   0.006914
     8  C    0.027590   0.000208   0.027454  -0.034555   0.000703  -0.004872
     9  H   -0.001988  -0.000025  -0.002735   0.002643   0.000014   0.000226
    10  H    0.002573   0.000005   0.003670  -0.005630   0.000128   0.000088
    11  H    0.000714   0.000006   0.000637  -0.000730   0.000013  -0.000153
    12  H   -0.003083  -0.000024  -0.002901   0.005098  -0.000087   0.000307
    13  H   -0.008721  -0.000039  -0.015420   0.019338  -0.000443   0.000474
    14  O   -0.342506  -0.003946   0.006490   0.188423   0.001759   0.005303
    15  H    0.028814   0.000352  -0.005171  -0.018608  -0.000102  -0.000257
               7          8          9         10         11         12
     1  C   -0.048545   0.027590  -0.001988   0.002573   0.000714  -0.003083
     2  H   -0.000494   0.000208  -0.000025   0.000005   0.000006  -0.000024
     3  C   -0.034595   0.027454  -0.002735   0.003670   0.000637  -0.002901
     4  C    0.051478  -0.034555   0.002643  -0.005630  -0.000730   0.005098
     5  O   -0.000757   0.000703   0.000014   0.000128   0.000013  -0.000087
     6  O    0.006914  -0.004872   0.000226   0.000088  -0.000153   0.000307
     7  C    0.027083  -0.016401   0.001990  -0.001554  -0.000789   0.001353
     8  C   -0.016401   0.009511  -0.001271   0.000974   0.000935  -0.001173
     9  H    0.001990  -0.001271   0.000487  -0.000015  -0.000050   0.000065
    10  H   -0.001554   0.000974  -0.000015  -0.000521   0.000126  -0.000010
    11  H   -0.000789   0.000935  -0.000050   0.000126  -0.000081  -0.000156
    12  H    0.001353  -0.001173   0.000065  -0.000010  -0.000156   0.000273
    13  H    0.005686  -0.003548   0.000525   0.000008  -0.000329  -0.000014
    14  O    0.009286  -0.004176   0.000455   0.000045  -0.000169  -0.000138
    15  H   -0.001486   0.000871  -0.000139   0.000024   0.000038  -0.000054
              13         14         15
     1  C   -0.008721  -0.342506   0.028814
     2  H   -0.000039  -0.003946   0.000352
     3  C   -0.015420   0.006490  -0.005171
     4  C    0.019338   0.188423  -0.018608
     5  O   -0.000443   0.001759  -0.000102
     6  O    0.000474   0.005303  -0.000257
     7  C    0.005686   0.009286  -0.001486
     8  C   -0.003548  -0.004176   0.000871
     9  H    0.000525   0.000455  -0.000139
    10  H    0.000008   0.000045   0.000024
    11  H   -0.000329  -0.000169   0.000038
    12  H   -0.000014  -0.000138  -0.000054
    13  H    0.000829   0.000624  -0.000350
    14  O    0.000624   0.906959   0.008487
    15  H   -0.000350   0.008487  -0.030904
 Mulliken charges and spin densities:
               1          2
     1  C   -0.504740   0.431181
     2  H    0.202421  -0.016056
     3  C    0.651682  -0.184702
     4  C   -0.361678   0.023365
     5  O   -0.189637  -0.009095
     6  O    0.001949  -0.002698
     7  C   -0.277511  -0.000832
     8  C   -0.423847   0.002248
     9  H    0.192041   0.000184
    10  H    0.193089  -0.000087
    11  H    0.168419   0.000010
    12  H    0.161571  -0.000546
    13  H    0.195555  -0.001380
    14  O   -0.229951   0.776893
    15  H    0.220638  -0.018485
 Sum of Mulliken charges =  -0.00000   1.00000
 Mulliken charges and spin densities with hydrogens summed into heavy atoms:
               1          2
     1  C   -0.302319   0.415126
     3  C    0.651682  -0.184702
     4  C   -0.361678   0.023365
     5  O   -0.189637  -0.009095
     6  O    0.001949  -0.002698
     7  C    0.107619  -0.000735
     8  C    0.101698   0.000332
    14  O   -0.009313   0.758408
 APT charges:
               1
     1  C   -0.128427
     2  H    0.238037
     3  C   -0.501215
     4  C    1.457193
     5  O   -0.767194
     6  O   -0.937897
     7  C    0.532852
     8  C   -0.042617
     9  H   -0.014538
    10  H   -0.010195
    11  H    0.010876
    12  H    0.011313
    13  H    0.030993
    14  O   -0.129095
    15  H    0.249913
 Sum of APT charges =   0.00000
 APT charges with hydrogens summed into heavy atoms:
               1
     1  C    0.109610
     3  C   -0.501215
     4  C    1.457193
     5  O   -0.767194
     6  O   -0.937897
     7  C    0.508119
     8  C    0.010566
    14  O    0.120817
 Electronic spatial extent (au):  <R**2>=           1069.1342
 Charge=             -0.0000 electrons
 Dipole moment (field-independent basis, Debye):
    X=              0.0869    Y=              0.4463    Z=             -3.1021  Tot=              3.1353
 Quadrupole moment (field-independent basis, Debye-Ang):
   XX=            -32.9254   YY=            -48.4187   ZZ=            -51.1785
   XY=              1.5091   XZ=              3.3291   YZ=             -0.3382
 Traceless Quadrupole moment (field-independent basis, Debye-Ang):
   XX=             11.2488   YY=             -4.2445   ZZ=             -7.0043
   XY=              1.5091   XZ=              3.3291   YZ=             -0.3382
 Octapole moment (field-independent basis, Debye-Ang**2):
  XXX=            -28.0070  YYY=              9.2826  ZZZ=             -1.1832  XYY=              1.5277
  XXY=             -7.0509  XXZ=            -15.1903  XZZ=              3.2869  YZZ=              4.8041
  YYZ=             -9.7131  XYZ=              5.1830
 Hexadecapole moment (field-independent basis, Debye-Ang**3):
 XXXX=           -758.9414 YYYY=           -256.1491 ZZZZ=           -166.4411 XXXY=             14.9149
 XXXZ=             35.9825 YYYX=            -19.4475 YYYZ=            -11.9713 ZZZX=             -7.4636
 ZZZY=              0.4951 XXYY=           -212.3780 XXZZ=           -189.1799 YYZZ=            -77.1095
 XXYZ=             -4.9275 YYXZ=              8.7200 ZZXY=             -3.8009
 N-N= 3.619450040405D+02 E-N=-1.708663708238D+03  KE= 4.188393988836D+02
  Exact polarizability:  91.228   7.541  74.374   5.536   1.883  58.748
 Approx polarizability:  97.549   6.987  79.660   9.310  -2.282  75.497
                          Isotropic Fermi Contact Couplings
        Atom                 a.u.       MegaHertz       Gauss      10(-4) cm-1
     1  C(13)              0.05078      57.08105      20.36794      19.04019
     2  H(1)              -0.00601     -26.85959      -9.58417      -8.95939
     3  C(13)              0.01246      14.00564       4.99756       4.67178
     4  C(13)              0.01528      17.18213       6.13101       5.73134
     5  O(17)             -0.00341       2.06501       0.73685       0.68881
     6  O(17)             -0.00002       0.01454       0.00519       0.00485
     7  C(13)              0.00001       0.01494       0.00533       0.00498
     8  C(13)             -0.00056      -0.62439      -0.22280      -0.20827
     9  H(1)               0.00003       0.12067       0.04306       0.04025
    10  H(1)              -0.00006      -0.24918      -0.08891      -0.08312
    11  H(1)              -0.00001      -0.04935      -0.01761      -0.01646
    12  H(1)               0.00001       0.04402       0.01571       0.01468
    13  H(1)               0.00001       0.03862       0.01378       0.01288
    14  O(17)              0.13580     -82.32221     -29.37461     -27.45973
    15  H(1)              -0.01338     -59.81092     -21.34202     -19.95078
 --------------------------------------------------------
       Center         ----  Spin Dipole Couplings  ----
                      3XX-RR        3YY-RR        3ZZ-RR
 --------------------------------------------------------
     1   Atom       -0.226922      0.360777     -0.133855
     2   Atom        0.030443     -0.006492     -0.023952
     3   Atom        0.069756     -0.024165     -0.045591
     4   Atom        0.006017      0.010917     -0.016934
     5   Atom        0.019382     -0.022320      0.002937
     6   Atom        0.008168     -0.015274      0.007106
     7   Atom        0.002642     -0.000829     -0.001813
     8   Atom        0.003123     -0.001499     -0.001623
     9   Atom        0.001250     -0.000665     -0.000585
    10   Atom        0.001153      0.000048     -0.001202
    11   Atom        0.001630     -0.000760     -0.000870
    12   Atom        0.004117     -0.002097     -0.002020
    13   Atom        0.003483     -0.001619     -0.001864
    14   Atom       -0.946987      2.059381     -1.112394
    15   Atom       -0.097356     -0.014583      0.111939
 --------------------------------------------------------
                        XY            XZ            YZ
 --------------------------------------------------------
     1   Atom       -0.020047     -0.018569      0.115728
     2   Atom        0.005116      0.012649      0.005992
     3   Atom       -0.011264      0.023599      0.004926
     4   Atom       -0.019012     -0.000048      0.003511
     5   Atom       -0.045451     -0.021777     -0.026469
     6   Atom       -0.009510     -0.009508      0.001414
     7   Atom       -0.002406     -0.000984      0.000536
     8   Atom       -0.001314     -0.000180      0.000057
     9   Atom       -0.000916     -0.001055      0.000478
    10   Atom       -0.001428     -0.000208      0.000205
    11   Atom       -0.000434      0.000037      0.000025
    12   Atom        0.000092     -0.000876      0.000075
    13   Atom       -0.001564      0.001474     -0.000328
    14   Atom        1.455568      0.515345      1.277894
    15   Atom        0.014738      0.027329     -0.074561
 --------------------------------------------------------


 ---------------------------------------------------------------------------------
              Anisotropic Spin Dipole Couplings in Principal Axis System
 ---------------------------------------------------------------------------------

       Atom             a.u.   MegaHertz   Gauss  10(-4) cm-1        Axes

              Baa    -0.2305   -30.931   -11.037   -10.317  0.9810 -0.0047  0.1942
     1 C(13)  Bbb    -0.1569   -21.057    -7.514    -7.024 -0.1904 -0.2212  0.9565
              Bcc     0.3874    51.988    18.551    17.341 -0.0384  0.9752  0.2179
 
              Baa    -0.0278   -14.853    -5.300    -4.954 -0.1880 -0.2234  0.9564
     2 H(1)   Bbb    -0.0064    -3.406    -1.215    -1.136 -0.1976  0.9625  0.1860
              Bcc     0.0342    18.259     6.515     6.091  0.9621  0.1540  0.2251
 
              Baa    -0.0520    -6.984    -2.492    -2.330 -0.2064 -0.2505  0.9459
     3 C(13)  Bbb    -0.0234    -3.137    -1.119    -1.047  0.0491  0.9628  0.2657
              Bcc     0.0754    10.121     3.612     3.376  0.9772 -0.1013  0.1864
 
              Baa    -0.0178    -2.392    -0.853    -0.798 -0.1920 -0.2432  0.9508
     4 C(13)  Bbb    -0.0100    -1.338    -0.478    -0.446  0.7294  0.6127  0.3041
              Bcc     0.0278     3.730     1.331     1.244 -0.6565  0.7519  0.0597
 
              Baa    -0.0679     4.911     1.752     1.638  0.4991  0.7501  0.4339
     5 O(17)  Bbb     0.0189    -1.365    -0.487    -0.455 -0.1311 -0.4296  0.8935
              Bcc     0.0490    -3.546    -1.265    -1.183  0.8566 -0.5028 -0.1161
 
              Baa    -0.0188     1.360     0.485     0.454  0.3566  0.9308  0.0801
     6 O(17)  Bbb    -0.0003     0.018     0.007     0.006  0.5608 -0.2818  0.7785
              Bcc     0.0190    -1.378    -0.492    -0.460  0.7473 -0.2327 -0.6225
 
              Baa    -0.0021    -0.279    -0.099    -0.093  0.3165  0.8174 -0.4813
     7 C(13)  Bbb    -0.0020    -0.270    -0.096    -0.090  0.3683  0.3617  0.8565
              Bcc     0.0041     0.548     0.196     0.183  0.8742 -0.4483 -0.1866
 
              Baa    -0.0018    -0.248    -0.088    -0.083  0.2540  0.9663 -0.0408
     8 C(13)  Bbb    -0.0016    -0.219    -0.078    -0.073  0.0462  0.0300  0.9985
              Bcc     0.0035     0.467     0.166     0.156  0.9661 -0.2555 -0.0370
 
              Baa    -0.0011    -0.592    -0.211    -0.197  0.1136 -0.6100  0.7842
     9 H(1)   Bbb    -0.0010    -0.536    -0.191    -0.179  0.5135  0.7117  0.4793
              Bcc     0.0021     1.128     0.402     0.376  0.8505 -0.3482 -0.3941
 
              Baa    -0.0012    -0.659    -0.235    -0.220 -0.0249 -0.1846  0.9825
    10 H(1)   Bbb    -0.0009    -0.492    -0.175    -0.164  0.5703  0.8046  0.1656
              Bcc     0.0022     1.151     0.411     0.384  0.8211 -0.5644 -0.0852
 
              Baa    -0.0009    -0.474    -0.169    -0.158 -0.0981 -0.4959  0.8628
    11 H(1)   Bbb    -0.0008    -0.436    -0.156    -0.146  0.1433  0.8509  0.5053
              Bcc     0.0017     0.911     0.325     0.304  0.9848 -0.1732  0.0124
 
              Baa    -0.0022    -1.179    -0.421    -0.393  0.1170 -0.6137  0.7809
    12 H(1)   Bbb    -0.0020    -1.084    -0.387    -0.361  0.0749  0.7895  0.6092
              Bcc     0.0042     2.263     0.807     0.755  0.9903  0.0128 -0.1383
 
              Baa    -0.0023    -1.209    -0.431    -0.403 -0.3123 -0.2974  0.9022
    13 H(1)   Bbb    -0.0020    -1.082    -0.386    -0.361  0.1644  0.9185  0.3597
              Bcc     0.0043     2.291     0.817     0.764  0.9356 -0.2607  0.2379
 
              Baa    -1.5633   113.118    40.363    37.732 -0.0571 -0.3116  0.9485
    14 O(17)  Bbb    -1.5361   111.152    39.662    37.076  0.9325 -0.3559 -0.0608
              Bcc     3.0994  -224.270   -80.025   -74.809  0.3565  0.8810  0.3109
 
              Baa    -0.1090   -58.169   -20.756   -19.403  0.9216 -0.3187 -0.2215
    15 H(1)   Bbb    -0.0389   -20.738    -7.400    -6.917  0.3805  0.8545  0.3535
              Bcc     0.1479    78.907    28.156    26.320  0.0766 -0.4101  0.9088
 

 ---------------------------------------------------------------------------------

 Calling FoFJK, ICntrl=    100127 FMM=F ISym2X=0 I1Cent= 0 IOpClX= 1 NMat=1 NMatS=1 NMatT=0.
 Full mass-weighted force constant matrix:
 Low frequencies --- -490.0400  -41.8493  -21.2892  -10.1322   -0.0006   -0.0005
 Low frequencies ---    0.0001   26.3416   58.5994
 ******    2 imaginary frequencies (negative Signs) ****** 
 Diagonal vibrational polarizability:
     1591.0994592     365.6665740      46.8488798
 Harmonic frequencies (cm**-1), IR intensities (KM/Mole), Raman scattering
 activities (A**4/AMU), depolarization ratios for plane and unpolarized
 incident light, reduced masses (AMU), force constants (mDyne/A),
 and normal coordinates:
                      1                      2                      3
                      A                      A                      A
 Frequencies --   -490.0399               -10.1807                58.0782
 Red. masses --     12.1385                 3.7466                 4.2733
 Frc consts  --      1.7174                 0.0002                 0.0085
 IR Inten    --     62.9818                 6.9943                 2.4437
  Atom  AN      X      Y      Z        X      Y      Z        X      Y      Z
     1   6     0.05  -0.05   0.01     0.03   0.01  -0.19    -0.03   0.11   0.04
     2   1     0.07  -0.24  -0.05     0.04  -0.02  -0.25    -0.04   0.22   0.08
     3   6     0.03   0.75   0.21     0.01   0.02  -0.10    -0.00  -0.01   0.00
     4   6     0.01   0.08   0.02    -0.00   0.04  -0.01    -0.02  -0.10  -0.03
     5   8    -0.04  -0.02  -0.03    -0.05   0.17   0.08    -0.03  -0.11  -0.03
     6   8     0.00  -0.01  -0.01     0.03  -0.12  -0.05    -0.01  -0.13  -0.03
     7   6     0.01  -0.01  -0.00     0.02  -0.09   0.03    -0.01   0.06   0.07
     8   6    -0.01  -0.00  -0.00    -0.01   0.05  -0.12    -0.23   0.23  -0.01
     9   1     0.01  -0.01  -0.00     0.06  -0.24   0.03     0.05   0.01   0.09
    10   1     0.01  -0.01  -0.01     0.00  -0.03   0.19     0.09   0.12   0.18
    11   1    -0.01  -0.00   0.00    -0.02   0.06  -0.06    -0.22   0.38   0.11
    12   1    -0.01  -0.01  -0.00     0.01  -0.01  -0.28    -0.31   0.15  -0.14
    13   1    -0.01  -0.00  -0.00    -0.05   0.21  -0.13    -0.31   0.28  -0.04
    14   8    -0.04  -0.51  -0.14     0.02  -0.08   0.26     0.29  -0.04  -0.01
    15   1     0.00  -0.15   0.02    -0.52   0.17   0.42     0.31  -0.03  -0.01
                      4                      5                      6
                      A                      A                      A
 Frequencies --    103.7933               137.5619               164.6976
 Red. masses --      2.3885                 1.9325                 5.6951
 Frc consts  --      0.0152                 0.0215                 0.0910
 IR Inten    --     27.1310                21.7140                12.1859
  Atom  AN      X      Y      Z        X      Y      Z        X      Y      Z
     1   6     0.02   0.06  -0.10     0.02   0.00  -0.13    -0.08  -0.23  -0.06
     2   1     0.04   0.13  -0.20     0.04   0.04  -0.25    -0.06  -0.42  -0.11
     3   6    -0.00  -0.01   0.03    -0.01  -0.04   0.03    -0.11  -0.06  -0.03
     4   6    -0.02  -0.04   0.06    -0.01   0.01   0.06    -0.09   0.06   0.03
     5   8    -0.03  -0.13   0.01     0.06   0.10   0.08    -0.12   0.01   0.01
     6   8    -0.01   0.05   0.10    -0.07  -0.01  -0.01    -0.08   0.22   0.12
     7   6    -0.01  -0.02   0.04    -0.06   0.04  -0.08    -0.09   0.06   0.02
     8   6     0.11   0.10  -0.16    -0.05  -0.06   0.03     0.16  -0.00  -0.05
     9   1    -0.05  -0.20   0.01    -0.11   0.19  -0.10    -0.15  -0.02  -0.01
    10   1    -0.05   0.04   0.19     0.01  -0.00  -0.22    -0.18   0.05   0.03
    11   1     0.10   0.01  -0.14    -0.03   0.01  -0.10     0.15  -0.20  -0.12
    12   1     0.20   0.04  -0.33    -0.16  -0.01   0.20     0.31   0.03  -0.06
    13   1     0.10   0.31  -0.14     0.06  -0.24   0.06     0.21   0.11  -0.02
    14   8    -0.09  -0.00   0.03     0.05  -0.05   0.03     0.35  -0.07  -0.05
    15   1     0.65  -0.11  -0.09     0.76  -0.15  -0.09    -0.40   0.04   0.08
                      7                      8                      9
                      A                      A                      A
 Frequencies --    181.9295               225.5436               251.1612
 Red. masses --      1.7712                 1.5690                 2.7250
 Frc consts  --      0.0345                 0.0470                 0.1013
 IR Inten    --     17.8395                 3.8007                 7.8663
  Atom  AN      X      Y      Z        X      Y      Z        X      Y      Z
     1   6    -0.06  -0.04   0.11    -0.06   0.05   0.07    -0.05   0.24  -0.00
     2   1    -0.09  -0.04   0.27    -0.09   0.13   0.19    -0.07   0.54   0.02
     3   6    -0.02  -0.03  -0.08    -0.01  -0.03  -0.09    -0.01  -0.14  -0.01
     4   6    -0.01   0.04  -0.08    -0.02  -0.01  -0.03     0.01  -0.04   0.02
     5   8    -0.02   0.10  -0.04    -0.08   0.03   0.01     0.07   0.04   0.05
     6   8     0.03   0.03  -0.06     0.04  -0.01   0.01    -0.02   0.03   0.03
     7   6     0.02  -0.02   0.05     0.05   0.01   0.03    -0.01   0.06  -0.03
     8   6     0.02  -0.01   0.03     0.08   0.02  -0.01     0.06  -0.00   0.01
     9   1     0.09  -0.11   0.07     0.03  -0.00   0.02    -0.05   0.12  -0.04
    10   1    -0.07  -0.01   0.12     0.06   0.01   0.04     0.02   0.04  -0.09
    11   1    -0.03  -0.23   0.31     0.15   0.34  -0.47     0.01  -0.26   0.21
    12   1     0.34  -0.01  -0.15    -0.38   0.01   0.21     0.36   0.04  -0.06
    13   1    -0.24   0.21  -0.07     0.50  -0.24   0.16    -0.13   0.13  -0.06
    14   8    -0.01  -0.06   0.04    -0.01  -0.07  -0.00    -0.01  -0.18  -0.08
    15   1     0.64  -0.10  -0.05     0.11  -0.04  -0.00    -0.49  -0.12  -0.00
                     10                     11                     12
                      A                      A                      A
 Frequencies --    338.9073               427.8152               558.2572
 Red. masses --      2.9329                 3.8357                 4.0838
 Frc consts  --      0.1985                 0.4136                 0.7499
 IR Inten    --     11.7720                 1.3979                 5.5098
  Atom  AN      X      Y      Z        X      Y      Z        X      Y      Z
     1   6    -0.00   0.04  -0.03     0.09   0.02   0.05    -0.18   0.01  -0.06
     2   1     0.01   0.09  -0.10     0.06   0.07   0.21    -0.11  -0.01  -0.39
     3   6    -0.02  -0.05   0.07     0.13  -0.03  -0.15    -0.22  -0.07   0.26
     4   6     0.01   0.05  -0.03     0.07   0.06   0.06    -0.02   0.09  -0.02
     5   8     0.19   0.03  -0.11    -0.10  -0.02   0.08    -0.04   0.02  -0.05
     6   8    -0.03   0.13  -0.03     0.08   0.20   0.14     0.15   0.03   0.02
     7   6    -0.09  -0.15   0.16     0.03  -0.11  -0.12     0.26  -0.07  -0.07
     8   6    -0.08  -0.03   0.00    -0.20  -0.08  -0.09     0.00  -0.00  -0.02
     9   1     0.08  -0.45   0.21    -0.04  -0.09  -0.15     0.17   0.04  -0.11
    10   1    -0.36  -0.09   0.42    -0.04  -0.14  -0.17     0.29  -0.10  -0.16
    11   1    -0.04   0.20  -0.22    -0.20   0.24   0.18    -0.00   0.32   0.27
    12   1    -0.36  -0.11  -0.04    -0.42  -0.16  -0.17    -0.21  -0.08  -0.09
    13   1     0.13  -0.03   0.09    -0.44  -0.17  -0.21    -0.25  -0.10  -0.14
    14   8     0.01  -0.04  -0.02    -0.00  -0.05  -0.01     0.01   0.00   0.01
    15   1    -0.08  -0.06  -0.02    -0.01   0.01   0.02    -0.04  -0.26  -0.09
                     13                     14                     15
                      A                      A                      A
 Frequencies --    598.4259               691.2953               720.3847
 Red. masses --      4.9350                 1.2887                 1.2174
 Frc consts  --      1.0413                 0.3628                 0.3722
 IR Inten    --      7.6473                36.9740                45.8678
  Atom  AN      X      Y      Z        X      Y      Z        X      Y      Z
     1   6    -0.24  -0.02  -0.04     0.01  -0.15  -0.03     0.02   0.01  -0.13
     2   1    -0.29  -0.22   0.19    -0.08   0.95   0.16    -0.18  -0.12   0.83
     3   6    -0.15   0.15  -0.27    -0.01   0.03   0.02    -0.01   0.02   0.03
     4   6    -0.04  -0.06   0.09    -0.01  -0.02  -0.01    -0.00  -0.01  -0.00
     5   8     0.28  -0.03  -0.00    -0.00   0.01   0.00     0.01   0.00  -0.00
     6   8     0.02  -0.05   0.18     0.00   0.01   0.00    -0.00  -0.00   0.01
     7   6     0.05  -0.03  -0.01     0.01  -0.00  -0.00     0.00  -0.00   0.00
     8   6    -0.01  -0.01  -0.01     0.00  -0.00  -0.00     0.00  -0.00   0.00
     9   1    -0.12   0.15  -0.07     0.00  -0.00  -0.00    -0.01   0.01  -0.00
    10   1     0.21  -0.06  -0.16     0.00  -0.00  -0.00     0.01  -0.01  -0.01
    11   1    -0.01   0.09   0.09     0.00   0.02   0.01     0.00   0.00   0.00
    12   1    -0.06  -0.05  -0.09    -0.01  -0.00  -0.00    -0.00  -0.00  -0.01
    13   1    -0.09   0.02  -0.05    -0.01  -0.00  -0.01    -0.00   0.01  -0.00
    14   8    -0.00   0.03  -0.01     0.00   0.02  -0.00     0.01   0.02   0.02
    15   1     0.13   0.56   0.19     0.01   0.16   0.06    -0.09  -0.46  -0.16
                     16                     17                     18
                      A                      A                      A
 Frequencies --    740.0905               768.4645               802.3401
 Red. masses --      1.2669                 8.6310                 1.2124
 Frc consts  --      0.4088                 3.0030                 0.4598
 IR Inten    --     58.6504                48.4238                 5.4280
  Atom  AN      X      Y      Z        X      Y      Z        X      Y      Z
     1   6     0.02   0.03  -0.06     0.00  -0.02  -0.01     0.03   0.01   0.01
     2   1    -0.06  -0.20   0.39    -0.05   0.31   0.20     0.04  -0.02  -0.01
     3   6    -0.01  -0.06   0.09     0.01  -0.13  -0.09     0.02  -0.01   0.03
     4   6     0.01  -0.00  -0.01     0.05   0.66   0.33    -0.02  -0.02  -0.05
     5   8    -0.03  -0.00   0.01    -0.01  -0.17  -0.14    -0.01   0.03  -0.04
     6   8     0.00   0.01  -0.02    -0.01  -0.19  -0.05     0.01  -0.00   0.04
     7   6     0.01   0.00  -0.01    -0.04  -0.01   0.03    -0.03  -0.04   0.06
     8   6     0.00   0.00   0.00    -0.02   0.01   0.02    -0.01  -0.03   0.02
     9   1     0.03  -0.04  -0.00    -0.06   0.23   0.04    -0.08   0.51   0.08
    10   1    -0.02   0.01   0.03     0.13  -0.05  -0.14     0.11  -0.22  -0.44
    11   1     0.00   0.01   0.02    -0.01  -0.10  -0.13     0.02   0.08  -0.17
    12   1    -0.00   0.01   0.02     0.09  -0.01  -0.08    -0.06  -0.21  -0.40
    13   1    -0.01  -0.03  -0.01     0.13   0.18   0.10     0.12   0.42   0.11
    14   8    -0.01  -0.03  -0.04     0.00  -0.07  -0.02    -0.00  -0.00  -0.00
    15   1     0.17   0.82   0.28     0.04   0.04   0.02     0.01   0.05   0.02
                     19                     20                     21
                      A                      A                      A
 Frequencies --    896.1342               924.8573              1074.4517
 Red. masses --      3.2719                 2.7116                 4.1140
 Frc consts  --      1.5481                 1.3666                 2.7982
 IR Inten    --     15.5827                 5.9752                23.7218
  Atom  AN      X      Y      Z        X      Y      Z        X      Y      Z
     1   6     0.05   0.01   0.01    -0.11  -0.01  -0.03     0.07   0.00   0.02
     2   1     0.06   0.01  -0.02    -0.12  -0.01  -0.03     0.08   0.00   0.04
     3   6     0.02  -0.03   0.06    -0.07   0.02   0.00     0.04  -0.00  -0.03
     4   6    -0.05   0.03  -0.11     0.15  -0.03   0.03    -0.15   0.00   0.04
     5   8    -0.00   0.09  -0.15    -0.01  -0.06   0.11     0.02   0.00  -0.02
     6   8     0.13  -0.09   0.22     0.14   0.06  -0.10    -0.22   0.03  -0.03
     7   6    -0.08   0.08   0.04    -0.03   0.09   0.04     0.32   0.12   0.16
     8   6    -0.11  -0.04  -0.11    -0.15  -0.08  -0.06    -0.07  -0.14  -0.12
     9   1    -0.24  -0.01  -0.04     0.33   0.17   0.20     0.35   0.24   0.19
    10   1     0.26   0.22   0.22    -0.03   0.10   0.07     0.40   0.19   0.25
    11   1    -0.14  -0.53  -0.23    -0.14  -0.50  -0.51    -0.07  -0.23  -0.18
    12   1     0.19   0.18   0.26     0.15  -0.05  -0.13    -0.05  -0.18  -0.20
    13   1     0.03  -0.33  -0.07     0.22   0.12   0.12    -0.07  -0.25  -0.14
    14   8    -0.00  -0.01  -0.00     0.00   0.01   0.00     0.00  -0.01  -0.00
    15   1     0.02   0.03   0.01     0.00  -0.01  -0.00    -0.02   0.01   0.00
                     22                     23                     24
                      A                      A                      A
 Frequencies --   1128.3207              1203.3312              1278.7794
 Red. masses --      2.0981                 1.7790                 4.4154
 Frc consts  --      1.5738                 1.5177                 4.2541
 IR Inten    --     21.8223                 7.5916               561.5036
  Atom  AN      X      Y      Z        X      Y      Z        X      Y      Z
     1   6    -0.01  -0.00  -0.00    -0.02  -0.00  -0.00    -0.09  -0.01  -0.02
     2   1    -0.02  -0.00  -0.01    -0.02  -0.00  -0.01    -0.10  -0.01  -0.05
     3   6    -0.01   0.00   0.01    -0.00   0.00  -0.00    -0.01   0.00   0.01
     4   6     0.03   0.01  -0.00     0.07  -0.00  -0.01     0.42   0.05  -0.16
     5   8    -0.00  -0.01   0.00    -0.01  -0.02   0.03    -0.06   0.01  -0.01
     6   8     0.06  -0.04  -0.02    -0.01   0.04  -0.06    -0.21  -0.05   0.10
     7   6    -0.11   0.18   0.09    -0.03  -0.10   0.16     0.11   0.04   0.03
     8   6     0.11  -0.14  -0.07     0.03   0.07  -0.12    -0.02  -0.03   0.06
     9   1    -0.09   0.08   0.10    -0.33   0.37   0.07    -0.65  -0.20  -0.29
    10   1    -0.21   0.16   0.07     0.29  -0.21  -0.26    -0.01   0.09   0.18
    11   1     0.10   0.39   0.30    -0.03  -0.14   0.26     0.00  -0.00  -0.14
    12   1    -0.41  -0.32  -0.22    -0.01   0.25   0.34     0.00  -0.15  -0.23
    13   1    -0.37  -0.14  -0.28    -0.08  -0.42  -0.19     0.01   0.08   0.07
    14   8    -0.00   0.00   0.00    -0.00   0.00   0.00    -0.00   0.01   0.00
    15   1     0.00  -0.00  -0.00     0.01  -0.00  -0.00     0.04   0.01   0.00
                     25                     26                     27
                      A                      A                      A
 Frequencies --   1344.8928              1401.3263              1430.6693
 Red. masses --      1.2047                 1.2711                 1.3689
 Frc consts  --      1.2838                 1.4706                 1.6508
 IR Inten    --     69.7743                20.3929                12.7512
  Atom  AN      X      Y      Z        X      Y      Z        X      Y      Z
     1   6     0.01   0.00   0.00    -0.01  -0.00  -0.00    -0.01  -0.00  -0.00
     2   1     0.01   0.00   0.01    -0.01  -0.00  -0.01    -0.01  -0.00  -0.01
     3   6     0.00   0.00  -0.00    -0.00   0.00   0.00     0.00  -0.00   0.00
     4   6    -0.05  -0.01   0.02     0.05   0.00  -0.01     0.05   0.00  -0.01
     5   8     0.01  -0.01   0.02    -0.01   0.01  -0.01    -0.01   0.01  -0.01
     6   8     0.04   0.04  -0.06    -0.04   0.00   0.03    -0.04   0.01   0.02
     7   6    -0.03  -0.01   0.00    -0.05  -0.03  -0.03    -0.08  -0.07  -0.06
     8   6    -0.00  -0.04   0.04    -0.02  -0.09  -0.07     0.08   0.06   0.06
     9   1    -0.54  -0.17  -0.23     0.34   0.21   0.15     0.43   0.23   0.18
    10   1     0.67   0.22   0.25     0.28   0.14   0.23     0.42   0.17   0.27
    11   1     0.01   0.07  -0.03    -0.00   0.41   0.30     0.06  -0.30  -0.18
    12   1    -0.02  -0.10  -0.09     0.17   0.15   0.38    -0.33  -0.13  -0.18
    13   1     0.02   0.17   0.07     0.22   0.37   0.08    -0.30  -0.16  -0.13
    14   8     0.00  -0.00  -0.00    -0.00   0.00   0.00    -0.00   0.00   0.00
    15   1    -0.01  -0.00  -0.00     0.00  -0.00  -0.00     0.01  -0.00  -0.00
                     28                     29                     30
                      A                      A                      A
 Frequencies --   1491.2992              1502.2325              1514.5773
 Red. masses --      1.0406                 1.0539                 1.0917
 Frc consts  --      1.3635                 1.4013                 1.4755
 IR Inten    --     10.7593                 1.4203                20.1617
  Atom  AN      X      Y      Z        X      Y      Z        X      Y      Z
     1   6     0.00  -0.00  -0.00    -0.00  -0.00  -0.00     0.00   0.00   0.00
     2   1     0.00   0.00   0.00    -0.00  -0.00  -0.00     0.01   0.00   0.00
     3   6    -0.00   0.00   0.00     0.00  -0.00  -0.00    -0.00  -0.00  -0.00
     4   6    -0.00   0.00  -0.00     0.01  -0.00   0.00    -0.03   0.00  -0.00
     5   8     0.00  -0.00   0.00    -0.00   0.00  -0.01     0.01  -0.01   0.01
     6   8     0.00   0.00  -0.00    -0.01   0.00   0.00     0.02  -0.00  -0.01
     7   6    -0.01  -0.02   0.01    -0.00   0.03   0.03     0.05  -0.04  -0.02
     8   6    -0.02  -0.01   0.04     0.03  -0.03   0.00     0.02  -0.02  -0.00
     9   1    -0.00   0.14   0.03     0.12  -0.39   0.04    -0.28   0.47  -0.12
    10   1    -0.00   0.00   0.07     0.18  -0.12  -0.38    -0.38   0.06   0.40
    11   1     0.08   0.48  -0.44     0.04  -0.04  -0.34     0.03  -0.13  -0.20
    12   1     0.57   0.08  -0.07    -0.13   0.12   0.40    -0.19   0.08   0.31
    13   1    -0.34  -0.28  -0.14    -0.39   0.38  -0.15    -0.24   0.33  -0.09
    14   8     0.00  -0.00  -0.00    -0.00   0.00   0.00     0.00  -0.00  -0.00
    15   1    -0.00  -0.00  -0.00     0.00   0.00   0.00    -0.00   0.00   0.00
                     31                     32                     33
                      A                      A                      A
 Frequencies --   1854.5316              2150.0954              3075.7526
 Red. masses --     12.0489                 6.2270                 1.0354
 Frc consts  --     24.4155                16.9606                 5.7714
 IR Inten    --    348.2703                91.2654                 9.2403
  Atom  AN      X      Y      Z        X      Y      Z        X      Y      Z
     1   6    -0.08  -0.01  -0.02    -0.38  -0.04  -0.09    -0.00   0.00  -0.00
     2   1    -0.13  -0.02  -0.00    -0.70  -0.07  -0.15    -0.00  -0.00  -0.00
     3   6     0.07   0.01   0.00     0.54  -0.01   0.11    -0.00   0.00   0.00
     4   6     0.23  -0.37   0.65    -0.11   0.04  -0.04     0.00   0.00  -0.00
     5   8    -0.17   0.25  -0.43     0.01  -0.01   0.02     0.00   0.00   0.00
     6   8     0.01   0.03  -0.06    -0.00  -0.00   0.00    -0.00  -0.00   0.00
     7   6     0.03  -0.01   0.02     0.00   0.00  -0.00    -0.00   0.00   0.00
     8   6    -0.01   0.01   0.00    -0.00  -0.00  -0.00    -0.02  -0.04  -0.03
     9   1    -0.17   0.10  -0.06     0.01  -0.00  -0.00     0.00  -0.00  -0.01
    10   1    -0.13  -0.04   0.08     0.00  -0.00  -0.00     0.00  -0.02   0.01
    11   1    -0.00  -0.02  -0.06     0.00   0.00   0.00     0.62  -0.06   0.06
    12   1     0.04   0.01  -0.01     0.00  -0.00  -0.00    -0.13   0.53  -0.23
    13   1    -0.04  -0.05  -0.01     0.00   0.00   0.00    -0.22  -0.05   0.46
    14   8     0.00   0.01  -0.00     0.00   0.02   0.00    -0.00  -0.00  -0.00
    15   1    -0.02   0.02   0.01    -0.00   0.00   0.00    -0.00  -0.00  -0.00
                     34                     35                     36
                      A                      A                      A
 Frequencies --   3107.3270              3150.9654              3155.2763
 Red. masses --      1.0608                 1.1018                 1.1046
 Frc consts  --      6.0348                 6.4452                 6.4794
 IR Inten    --     19.5044                14.0517                 3.4440
  Atom  AN      X      Y      Z        X      Y      Z        X      Y      Z
     1   6    -0.00  -0.00  -0.00    -0.00  -0.00  -0.00    -0.00  -0.00  -0.00
     2   1     0.00   0.00   0.00     0.00  -0.00  -0.00    -0.00   0.00  -0.00
     3   6     0.00  -0.00  -0.00     0.00   0.00   0.00     0.00  -0.00  -0.00
     4   6    -0.00  -0.00   0.00    -0.00  -0.00   0.00     0.00  -0.00   0.00
     5   8    -0.00   0.00  -0.00     0.00   0.00  -0.00    -0.00   0.00  -0.00
     6   8     0.00   0.00  -0.00    -0.00   0.00  -0.00    -0.00  -0.00  -0.00
     7   6     0.03  -0.06  -0.02     0.01   0.01  -0.03    -0.01  -0.03   0.04
     8   6    -0.01   0.01  -0.00     0.06  -0.06   0.03     0.06   0.01  -0.05
     9   1    -0.21  -0.05   0.50    -0.14  -0.02   0.33     0.16   0.03  -0.39
    10   1    -0.14   0.74  -0.32     0.02  -0.07   0.03    -0.06   0.34  -0.14
    11   1     0.13  -0.01   0.01    -0.59   0.04  -0.05    -0.47   0.04  -0.05
    12   1     0.01  -0.06   0.03    -0.14   0.63  -0.27     0.03  -0.06   0.02
    13   1     0.01   0.00  -0.02     0.05  -0.00  -0.07    -0.27  -0.05   0.61
    14   8     0.00  -0.00  -0.00     0.00  -0.00  -0.00     0.00  -0.00  -0.00
    15   1    -0.00   0.00   0.00    -0.00  -0.00   0.00    -0.00  -0.00   0.00
                     37                     38                     39
                      A                      A                      A
 Frequencies --   3175.2076              3477.6818              3815.2932
 Red. masses --      1.1071                 1.1535                 1.0674
 Frc consts  --      6.5762                 8.2196                 9.1546
 IR Inten    --     14.4345                70.4019                45.6650
  Atom  AN      X      Y      Z        X      Y      Z        X      Y      Z
     1   6    -0.00  -0.00  -0.00    -0.11  -0.01  -0.02     0.00  -0.00   0.00
     2   1     0.00   0.00   0.00     0.97   0.04   0.20    -0.00  -0.00  -0.00
     3   6     0.00  -0.00   0.00     0.03   0.00   0.01    -0.00  -0.00  -0.00
     4   6    -0.00   0.00  -0.00    -0.00   0.00  -0.00    -0.00   0.00  -0.00
     5   8     0.00  -0.00   0.00     0.00  -0.00  -0.00     0.00  -0.00   0.00
     6   8     0.00  -0.00   0.00     0.00   0.00  -0.00     0.00   0.00  -0.00
     7   6     0.01   0.04  -0.06    -0.00  -0.00   0.00    -0.00   0.00   0.00
     8   6     0.02   0.03  -0.05     0.00  -0.00   0.00     0.00  -0.00  -0.00
     9   1    -0.24  -0.04   0.58     0.00   0.00  -0.00     0.00  -0.00  -0.00
    10   1     0.07  -0.38   0.15     0.00   0.00   0.00     0.00  -0.00   0.00
    11   1    -0.08   0.01  -0.02     0.00   0.00   0.00     0.00   0.00   0.00
    12   1     0.08  -0.34   0.14    -0.00   0.00  -0.00    -0.00   0.00  -0.00
    13   1    -0.22  -0.03   0.48    -0.00  -0.00  -0.00    -0.00  -0.00  -0.00
    14   8    -0.00   0.00  -0.00     0.00   0.00   0.00    -0.01   0.02  -0.06
    15   1     0.00  -0.00   0.00    -0.00  -0.00   0.00     0.10  -0.37   0.92

 -------------------
 - Thermochemistry -
 -------------------
 Temperature   298.150 Kelvin.  Pressure   1.00000 Atm.
 Atom     1 has atomic number  6 and mass  12.00000
 Atom     2 has atomic number  1 and mass   1.00783
 Atom     3 has atomic number  6 and mass  12.00000
 Atom     4 has atomic number  6 and mass  12.00000
 Atom     5 has atomic number  8 and mass  15.99491
 Atom     6 has atomic number  8 and mass  15.99491
 Atom     7 has atomic number  6 and mass  12.00000
 Atom     8 has atomic number  6 and mass  12.00000
 Atom     9 has atomic number  1 and mass   1.00783
 Atom    10 has atomic number  1 and mass   1.00783
 Atom    11 has atomic number  1 and mass   1.00783
 Atom    12 has atomic number  1 and mass   1.00783
 Atom    13 has atomic number  1 and mass   1.00783
 Atom    14 has atomic number  8 and mass  15.99491
 Atom    15 has atomic number  1 and mass   1.00783
 Molecular mass:   115.03952 amu.
 Principal axes and moments of inertia in atomic units:
                           1         2         3
     Eigenvalues --   499.735521379.764891537.30001
           X            0.99989   0.01234   0.00838
           Y           -0.01251   0.99971   0.02037
           Z           -0.00813  -0.02047   0.99976
 This molecule is an asymmetric top.
 Rotational symmetry number  1.
 Warning -- assumption of classical behavior for rotation
           may cause significant error
 Rotational temperatures (Kelvin)      0.17332     0.06277     0.05634
 Rotational constants (GHZ):           3.61139     1.30801     1.17397
    2 imaginary frequencies ignored.
 Zero-point vibrational energy     292617.0 (Joules/Mol)
                                   69.93715 (Kcal/Mol)
 Warning -- explicit consideration of  11 degrees of freedom as
           vibrations may cause significant error
 Vibrational temperatures:     83.56   149.34   197.92   236.96   261.76
          (Kelvin)            324.51   361.36   487.61   615.53   803.21
                              861.00   994.62  1036.47  1064.83  1105.65
                             1154.39  1289.34  1330.66  1545.90  1623.40
                             1731.33  1839.88  1935.00  2016.20  2058.41
                             2145.65  2161.38  2179.14  2668.26  3093.51
                             4425.32  4470.75  4533.54  4539.74  4568.42
                             5003.61  5489.36
 
 Zero-point correction=                           0.111452 (Hartree/Particle)
 Thermal correction to Energy=                    0.120418
 Thermal correction to Enthalpy=                  0.121362
 Thermal correction to Gibbs Free Energy=         0.076667
 Sum of electronic and zero-point Energies=           -420.090577
 Sum of electronic and thermal Energies=              -420.081611
 Sum of electronic and thermal Enthalpies=            -420.080667
 Sum of electronic and thermal Free Energies=         -420.125362
 
                     E (Thermal)             CV                S
                      KCal/Mol        Cal/Mol-Kelvin    Cal/Mol-Kelvin
 Total                   75.563             30.489             94.068
 Electronic               0.000              0.000              1.377
 Translational            0.889              2.981             40.136
 Rotational               0.889              2.981             28.451
 Vibrational             73.786             24.528             24.103
 Vibration     1          0.596              1.974              4.521
 Vibration     2          0.605              1.946              3.382
 Vibration     3          0.614              1.916              2.838
 Vibration     4          0.623              1.886              2.495
 Vibration     5          0.630              1.864              2.309
 Vibration     6          0.650              1.802              1.914
 Vibration     7          0.663              1.761              1.722
 Vibration     8          0.719              1.598              1.217
 Vibration     9          0.789              1.410              0.866
 Vibration    10          0.914              1.122              0.527
 Vibration    11          0.956              1.035              0.452
                       Q            Log10(Q)             Ln(Q)
 Total Bot       0.543857D-35        -35.264515        -81.199547
 Total V=0       0.999483D+16         15.999775         36.840844
 Vib (Bot)       0.152136D-48        -48.817767       -112.407063
 Vib (Bot)    1  0.355637D+01          0.551007          1.268742
 Vib (Bot)    2  0.197580D+01          0.295742          0.680971
 Vib (Bot)    3  0.147910D+01          0.169998          0.391435
 Vib (Bot)    4  0.122570D+01          0.088383          0.203509
 Vib (Bot)    5  0.110326D+01          0.042679          0.098273
 Vib (Bot)    6  0.874948D+00         -0.058018         -0.133591
 Vib (Bot)    7  0.776648D+00         -0.109776         -0.252768
 Vib (Bot)    8  0.548271D+00         -0.261005         -0.600986
 Vib (Bot)    9  0.407968D+00         -0.389374         -0.896566
 Vib (Bot)   10  0.278878D+00         -0.554585         -1.276980
 Vib (Bot)   11  0.249924D+00         -0.602192         -1.386597
 Vib (V=0)       0.279591D+03          2.446523          5.633328
 Vib (V=0)    1  0.409135D+01          0.611867          1.408875
 Vib (V=0)    2  0.253808D+01          0.404505          0.931408
 Vib (V=0)    3  0.206133D+01          0.314147          0.723350
 Vib (V=0)    4  0.182376D+01          0.260967          0.600899
 Vib (V=0)    5  0.171128D+01          0.233320          0.537240
 Vib (V=0)    6  0.150774D+01          0.178326          0.410610
 Vib (V=0)    7  0.142368D+01          0.153412          0.353244
 Vib (V=0)    8  0.124202D+01          0.094130          0.216743
 Vib (V=0)    9  0.114532D+01          0.058927          0.135684
 Vib (V=0)   10  0.107251D+01          0.030403          0.070006
 Vib (V=0)   11  0.105898D+01          0.024889          0.057309
 Electronic      0.200000D+01          0.301030          0.693147
 Translational   0.484981D+08          7.685724         17.697035
 Rotational      0.368551D+06          5.566498         12.817334
 ***** Axes restored to original set *****
 -------------------------------------------------------------------
 Center     Atomic                   Forces (Hartrees/Bohr)
 Number     Number              X              Y              Z
 -------------------------------------------------------------------
      1        6          -0.000578418    0.000280262   -0.000103270
      2        1          -0.000022627    0.000145626    0.000037027
      3        6           0.000056285   -0.004950658   -0.001332792
      4        6          -0.000104729   -0.000553389   -0.000139531
      5        8           0.000352690    0.000233718    0.000240871
      6        8          -0.000020481    0.000166013    0.000066156
      7        6          -0.000045360    0.000073699    0.000031903
      8        6           0.000037858    0.000019376    0.000016421
      9        1          -0.000003575   -0.000000067    0.000002086
     10        1          -0.000009098    0.000004006    0.000006415
     11        1           0.000003365    0.000003173   -0.000000969
     12        1           0.000005957    0.000002191   -0.000001336
     13        1           0.000005539    0.000003172   -0.000000119
     14        8           0.000322549    0.004523161    0.001121301
     15        1           0.000000045    0.000049718    0.000055836
 -------------------------------------------------------------------
 Cartesian Forces:  Max     0.004950658 RMS     0.001045394

 GradGradGradGradGradGradGradGradGradGradGradGradGradGradGradGradGradGrad
 Berny optimization.
 Search for a local minimum.
 Step number   1 out of a maximum of    2
 All quantities printed in internal units (Hartrees-Bohrs-Radians)
 Second derivative matrix not updated -- analytic derivatives used.
 ITU=  0
     Eigenvalues ---   -0.11971  -0.00004   0.00052   0.00119   0.00174
     Eigenvalues ---    0.00369   0.00608   0.00823   0.01182   0.01917
     Eigenvalues ---    0.02920   0.03322   0.03490   0.05157   0.06340
     Eigenvalues ---    0.07552   0.07709   0.08649   0.09340   0.10217
     Eigenvalues ---    0.11495   0.14157   0.16997   0.17547   0.19885
     Eigenvalues ---    0.28446   0.29409   0.43447   0.49457   0.62602
     Eigenvalues ---    0.70406   0.76465   0.79324   0.86307   0.88316
     Eigenvalues ---    0.91745   0.96690   1.75599   2.47535
 Eigenvalue     1 is  -1.20D-01 should be greater than     0.000000 Eigenvector:
                          Y3        Y14       Z3        Z14       Y4
   1                    0.74061  -0.60034   0.19900  -0.17971   0.06554
                          Y15       X14       X5        Z15       Y2
   1                   -0.05268  -0.04493  -0.04176   0.03874  -0.03528
 Eigenvalue     2 is  -4.31D-05 should be greater than     0.000000 Eigenvector:
                          Z15       X15       Z14       Z12       Z2
   1                    0.46033  -0.45598   0.29626  -0.28158  -0.25967
                          Y9        Y13       Z10       Z1        Y15
   1                   -0.25460   0.20841   0.20022  -0.18952   0.17863
 Angle between quadratic step and forces=  34.80 degrees.
 Linear search not attempted -- first point.
 B after Tr=     0.000118    0.001609    0.000675
         Rot=    1.000000   -0.000079   -0.000020    0.000072 Ang=  -0.01 deg.
 Variable       Old X    -DE/DX   Delta X   Delta X   Delta X     New X
                                 (Linear)    (Quad)   (Total)
    X1       -5.29630  -0.00058   0.00000   0.00020   0.00017  -5.29613
    Y1       -0.82523   0.00028   0.00000   0.00000   0.00250  -0.82273
    Z1       -0.75756  -0.00010   0.00000  -0.00811  -0.00736  -0.76492
    X2       -7.26694  -0.00002   0.00000   0.00247   0.00241  -7.26454
    Y2       -0.90597   0.00015   0.00000  -0.01185  -0.00901  -0.91498
    Z2       -1.16162   0.00004   0.00000  -0.01224  -0.01143  -1.17304
    X3       -3.07987   0.00006   0.00000  -0.00120  -0.00118  -3.08105
    Y3       -0.56683  -0.00495   0.00000  -0.03926  -0.03717  -0.60399
    Z3       -0.23916  -0.00133   0.00000  -0.01401  -0.01331  -0.25247
    X4       -0.41633  -0.00010   0.00000  -0.00065  -0.00068  -0.41701
    Y4       -1.13642  -0.00055   0.00000   0.00041   0.00203  -1.13439
    Z4        0.29449  -0.00014   0.00000  -0.00074  -0.00023   0.29427
    X5        0.27011   0.00035   0.00000   0.00092   0.00081   0.27092
    Y5       -2.20786   0.00023   0.00000   0.00899   0.01022  -2.19764
    Z5        2.16317   0.00024   0.00000   0.00409   0.00441   2.16758
    X6        1.05906  -0.00002   0.00000   0.00123   0.00124   1.06030
    Y6       -0.34181   0.00017   0.00000   0.00116   0.00286  -0.33894
    Z6       -1.58036   0.00007   0.00000   0.00001   0.00059  -1.57977
    X7        3.74124  -0.00005   0.00000   0.00060   0.00058   3.74183
    Y7       -0.62682   0.00007   0.00000  -0.00349  -0.00223  -0.62905
    Z7       -1.18282   0.00003   0.00000   0.00051   0.00094  -1.18188
    X8        4.73010   0.00004   0.00000   0.00446   0.00480   4.73490
    Y8        1.43479   0.00002   0.00000  -0.00228  -0.00144   1.43335
    Z8        0.54237   0.00002   0.00000  -0.00338  -0.00267   0.53970
    X9        4.54455  -0.00000   0.00000   0.00134   0.00127   4.54581
    Y9       -0.49778  -0.00000   0.00000  -0.00889  -0.00745  -0.50524
    Z9       -3.07203   0.00000   0.00000   0.00030   0.00072  -3.07131
   X10        4.10027  -0.00001   0.00000  -0.00248  -0.00274   4.09752
   Y10       -2.50292   0.00000   0.00000  -0.00287  -0.00179  -2.50471
   Z10       -0.40940   0.00001   0.00000   0.00391   0.00403  -0.40538
   X11        6.77601   0.00000   0.00000   0.00405   0.00438   6.78039
   Y11        1.25348   0.00000   0.00000  -0.00553  -0.00501   1.24846
   Z11        0.73654  -0.00000   0.00000  -0.00276  -0.00216   0.73438
   X12        4.30492   0.00001   0.00000   0.00771   0.00829   4.31321
   Y12        3.29353   0.00000   0.00000  -0.00314  -0.00212   3.29141
   Z12       -0.24099  -0.00000   0.00000  -0.00729  -0.00626  -0.24725
   X13        3.87980   0.00001   0.00000   0.00372   0.00412   3.88392
   Y13        1.28549   0.00000   0.00000   0.00287   0.00354   1.28902
   Z13        2.41296  -0.00000   0.00000  -0.00334  -0.00262   2.41035
   X14       -2.76283   0.00032   0.00000  -0.00358  -0.00298  -2.76580
   Y14        3.12306   0.00452   0.00000   0.03774   0.03962   3.16268
   Z14        0.75759   0.00112   0.00000   0.02199   0.02327   0.78086
   X15       -2.94237   0.00000   0.00000  -0.02112  -0.02049  -2.96286
   Y15        3.81002   0.00005   0.00000   0.00327   0.00545   3.81547
   Z15       -0.93259   0.00006   0.00000   0.01067   0.01207  -0.92053
         Item               Value     Threshold  Converged?
 Maximum Force            0.004951     0.000450     NO 
 RMS     Force            0.001045     0.000300     NO 
 Maximum Displacement     0.039621     0.001800     NO 
 RMS     Displacement     0.010555     0.001200     NO 
 Predicted change in Energy=-6.102924D-04
 GradGradGradGradGradGradGradGradGradGradGradGradGradGradGradGradGradGrad


 ----------------------------------------------------------------------

 Electric dipole moment (input orientation):
 (Debye = 10**-18 statcoulomb cm , SI units = C m)
                  (au)            (Debye)         (10**-30 SI)
   Tot        0.123351D+01      0.313526D+01      0.104581D+02
   x          0.341833D-01      0.868852D-01      0.289818D+00
   y          0.175589D+00      0.446303D+00      0.148870D+01
   z         -0.122047D+01     -0.310212D+01     -0.103475D+02

 Dipole polarizability, Alpha (input orientation).
 (esu units = cm**3 , SI units = C**2 m**2 J**-1)
 Alpha(0;0):
               (au)            (10**-24 esu)      (10**-40 SI)
   iso        0.747832D+02      0.110817D+02      0.123301D+02
   aniso      0.326309D+02      0.483540D+01      0.538011D+01
   xx         0.912281D+02      0.135186D+02      0.150415D+02
   yx         0.754062D+01      0.111741D+01      0.124328D+01
   yy         0.743736D+02      0.110210D+02      0.122626D+02
   zx         0.553638D+01      0.820407D+00      0.912826D+00
   zy         0.188289D+01      0.279016D+00      0.310447D+00
   zz         0.587478D+02      0.870553D+01      0.968621D+01

 ----------------------------------------------------------------------

 Dipole orientation:
     6         -5.31361239          0.91416302          0.48530846
     1         -7.29453308          1.04768685          0.81898865
     6         -3.08418666          0.58898906          0.07059410
     6         -0.40575033          1.08209532         -0.46468734
     8          0.33432618          1.87797914         -2.44710354
     8          1.01553657          0.56538977          1.54434510
     6          3.70826216          0.79622554          1.18476242
     6          4.74045532         -1.48800430         -0.20131301
     1          4.45864533          0.93902754          3.09463759
     1          4.09230015          2.54383640          0.16241182
     1          6.79132351         -1.33211817         -0.36253906
     1          4.29004983         -3.21714034          0.82657647
     1          3.94262063         -1.60818358         -2.09694783
     8         -2.74696043         -3.20457210         -0.38157674
     1         -2.97463299         -3.64429210          1.38354652

 Electric dipole moment (dipole orientation):
 (Debye = 10**-18 statcoulomb cm , SI units = C m)
                  (au)            (Debye)         (10**-30 SI)
   Tot        0.123351D+01      0.313526D+01      0.104581D+02
   x          0.000000D+00      0.000000D+00      0.000000D+00
   y          0.000000D+00      0.000000D+00      0.000000D+00
   z          0.123351D+01      0.313526D+01      0.104581D+02

 Dipole polarizability, Alpha (dipole orientation).
 (esu units = cm**3 , SI units = C**2 m**2 J**-1)
 Alpha(0;0):
               (au)            (10**-24 esu)      (10**-40 SI)
   iso        0.747832D+02      0.110817D+02      0.123301D+02
   aniso      0.326309D+02      0.483540D+01      0.538011D+01
   xx         0.914797D+02      0.135559D+02      0.150830D+02
   yx        -0.820453D+01     -0.121579D+01     -0.135274D+01
   yy         0.745549D+02      0.110479D+02      0.122924D+02
   zx        -0.349245D+01     -0.517527D+00     -0.575826D+00
   zy        -0.631433D+00     -0.935688D-01     -0.104109D+00
   zz         0.583149D+02      0.864138D+01      0.961483D+01

 ----------------------------------------------------------------------
 1\1\GINC-AJ\Freq\UM062X\6-311++G(d,p)\C5H7O3(2)\AAYUSH\23-Jun-2025\0\\
 # freq 6-311++g(d,p) m062x\\Title Card Required\\0,2\C,-2.802681,-0.43
 6694,-0.400884\H,-3.845501,-0.479418,-0.614701\C,-1.629798,-0.299951,-
 0.126558\C,-0.22031,-0.601366,0.15584\O,0.142934,-1.168348,1.1447\O,0.
 560432,-0.180877,-0.83629\C,1.97978,-0.331698,-0.625919\C,2.503059,0.7
 59259,0.28701\H,2.40487,-0.263416,-1.62565\H,2.169767,-1.324489,-0.216
 646\H,3.585712,0.663311,0.389758\H,2.278066,1.74286,-0.127528\H,2.0531
 01,0.68025,1.276885\O,-1.462026,1.652653,0.400898\H,-1.557035,2.016175
 ,-0.493506\\Version=ES64L-G16RevA.03\State=2-A\HF=-420.202029\S2=0.771
 688\S2-1=0.\S2A=0.750188\RMSD=5.008e-09\RMSF=1.045e-03\ZeroPoint=0.111
 4519\Thermal=0.1204178\Dipole=0.0341833,0.1755889,-1.220466\DipoleDeri
 v=-0.2097857,0.4814693,0.0723722,0.0552256,-0.0613743,0.0220751,-0.056
 9543,0.1028036,-0.1141199,0.2803212,0.0251097,0.0115551,0.023641,0.207
 2807,0.0012154,0.0290953,-0.0032059,0.2265079,-0.523452,-0.4610977,-0.
 1536876,-0.1397123,-0.8207852,-0.1470316,-0.0549833,-0.2564119,-0.1594
 072,2.0982862,-0.3195394,-0.138255,0.0758351,0.808746,-0.5554955,-0.46
 79064,-0.6191475,1.4645468,-0.8082713,0.2190899,-0.1871555,0.0316259,-
 0.5877432,0.3424158,0.0052113,0.4018852,-0.9055679,-1.6142243,-0.11209
 87,0.3447849,-0.1622895,-0.3888442,0.1818507,0.4914709,0.1950634,-0.81
 06225,0.9955796,0.0861632,-0.0566309,0.0045812,0.2886642,0.0763961,0.0
 57531,0.0235263,0.314312,-0.0660436,-0.030567,0.0300032,-0.0467419,-0.
 0199261,-0.0840081,-0.0328608,-0.0553656,-0.0418813,-0.0227733,-0.0074
 24,0.0260882,-0.0228604,0.0675518,0.0014849,0.0651185,-0.0239712,-0.08
 83922,-0.0179429,-0.0373589,0.012428,0.0356143,-0.06761,0.0002327,-0.0
 584566,0.0389069,0.0549692,-0.1290179,-0.0006598,-0.019819,0.0143055,0
 .0690243,-0.004463,-0.0192612,-0.0165498,0.0926225,0.0809091,0.0540722
 ,-0.0305187,0.0062172,-0.0711556,0.0272128,-0.0326017,0.0555914,0.0241
 866,0.0771847,0.0019427,0.0694026,-0.0145391,0.0445601,0.0123496,0.048
 2681,-0.0139586,-0.0287645,-0.4262345,0.1413869,0.0342942,0.1410155,0.
 1887688,0.0892904,0.0685475,0.2326048,-0.1498198,0.2854647,-0.0404883,
 -0.0148619,-0.0019181,0.3428428,0.0364746,-0.0422182,-0.0617711,0.1214
 305\Polar=91.2280796,7.5406228,74.3736071,5.5363802,1.8828945,58.74782
 91\Quadrupole=8.3631774,-3.1556504,-5.2075269,1.1219764,2.4751083,-0.2
 514236\PG=C01 [X(C5H7O3)]\NImag=2\\1.37497170,0.09915165,0.06386798,0.
 29451517,0.02286294,0.11928384,-0.40632814,-0.01826412,-0.07931841,0.3
 9671746,-0.00974196,-0.02403046,-0.00170034,0.01654303,0.01530412,-0.0
 7669628,-0.00346948,-0.04158180,0.07859748,0.00298686,0.03195153,-0.96
 661780,-0.08121789,-0.21323906,0.00943174,-0.00684515,-0.00042944,1.27
 917518,-0.01347690,-0.01433278,0.00112273,0.00161756,0.00570597,0.0011
 3925,-0.02860168,-0.02821450,-0.19875557,-0.01207778,-0.07788445,0.001
 46755,-0.00059960,0.00452884,0.23720390,-0.05160223,0.14905734,0.01580
 707,0.00672578,0.00415312,-0.00082692,0.00039629,-0.00209693,-0.250548
 87,0.01366473,-0.03788133,0.65713655,-0.02045104,-0.00133562,-0.005129
 74,-0.00052921,0.00395827,-0.00013970,0.04294838,-0.05048193,0.0073249
 6,-0.09849195,0.39806786,-0.00647513,0.00079804,0.00155303,-0.00098058
 ,-0.00000475,0.00536142,-0.01628705,0.00144735,-0.06274207,0.10600547,
 -0.32598296,0.80086854,-0.00521907,-0.00000240,-0.00094133,0.00032166,
 -0.00056673,0.00152946,-0.02057211,0.02793579,-0.04046855,-0.17987931,
 0.10989396,-0.18353971,0.17688289,0.00269842,0.00097163,0.00044498,0.0
 0011767,-0.00036005,-0.00082769,0.02115402,0.00262549,0.02362989,0.102
 81820,-0.23599390,0.27080450,-0.11907425,0.23130944,0.00042943,-0.0003
 7956,0.00088362,0.00010414,-0.00044028,0.00006607,-0.03379312,0.022858
 74,-0.01633155,-0.17555523,0.27053975,-0.54949033,0.19331689,-0.345762
 41,0.64673666,-0.00877095,0.00010012,-0.00276807,0.00086263,0.00042145
 ,-0.00099787,-0.05115075,-0.00382259,0.03552613,-0.18781492,-0.0359047
 3,0.09018509,0.02781032,-0.01147771,0.02559770,0.49413998,-0.00002822,
 0.00056712,0.00022792,0.00001363,-0.00032175,0.00012621,0.00069332,0.0
 1046192,0.00025641,-0.02567137,-0.09541314,0.06067574,-0.01329930,0.00
 408328,0.05447427,0.02120792,0.14881568,0.00174608,0.00047489,0.000560
 54,-0.00009881,-0.00012913,-0.00064103,0.00931595,-0.00053948,0.004290
 19,0.06871289,0.06152691,-0.19981206,0.02504056,0.05423747,-0.08087241
 ,-0.09079439,-0.12901294,0.35944584,0.00234886,-0.00002546,0.00077252,
 -0.00035763,-0.00002457,-0.00003146,0.00208771,-0.00270253,-0.00080200
 ,-0.05315416,-0.01174444,0.03424754,-0.00100527,0.00981924,-0.01769421
 ,-0.17744456,0.01729155,-0.01404515,0.44952884,0.00093604,-0.00000565,
 -0.00000965,0.00005391,-0.00011238,-0.00002874,-0.00145552,0.00279825,
 0.00263493,-0.01219680,0.00628487,-0.00977883,0.00212109,-0.00561014,0
 .00049020,0.02537348,-0.07570503,0.01654419,-0.00961807,0.58079574,0.0
 0147732,-0.00007032,0.00058374,0.00000329,-0.00007981,0.00024446,0.003
 93298,0.00236534,-0.00282446,0.03380766,-0.00714782,0.00797198,0.00159
 535,-0.00113666,-0.00377004,-0.03533480,0.01658196,-0.09015705,-0.0606
 9860,-0.04978880,0.61518786,-0.00016145,-0.00002423,-0.00003468,0.0000
 8922,-0.00001753,-0.00001792,-0.00053408,0.00119896,0.00096394,0.00173
 317,0.00092263,-0.00906061,0.00080151,-0.00213169,0.00220835,-0.038417
 73,-0.02996513,-0.02381529,-0.08125823,-0.02162912,-0.01431191,0.57565
 894,0.00026820,-0.00004011,0.00010185,-0.00000780,0.00000672,-0.000014
 74,-0.00028447,-0.00038415,-0.00037141,-0.00106152,-0.00130407,0.00294
 119,-0.00083815,0.00048734,-0.00159009,0.00114786,0.00716724,0.0010363
 9,-0.03175070,-0.16004316,-0.06116795,-0.02644139,0.53902487,0.0000544
 2,-0.00001343,-0.00004661,0.00000628,-0.00001893,-0.00000227,-0.000402
 93,0.00026768,0.00017230,0.00135647,0.00023465,0.00323235,-0.00145683,
 -0.00130109,-0.00119418,-0.00727023,-0.00182443,-0.00143721,-0.0214672
 9,-0.05977029,-0.13448190,-0.02291903,-0.04061503,0.55495053,-0.000715
 25,0.00004524,-0.00027892,0.00003926,0.00003510,-0.00003895,-0.0010985
 5,-0.00044898,0.00112724,-0.00380724,0.00466431,-0.00471815,0.00155877
 ,-0.00083721,0.00114188,-0.03332918,-0.00518544,0.03474595,-0.08116821
 ,-0.00549533,0.08817098,0.00687061,0.00150222,-0.01188641,0.10740393,0
 .00002652,-0.00001656,0.00000356,0.00001125,-0.00000683,0.00000958,0.0
 0021405,0.00021234,-0.00003593,0.00054303,-0.00141833,0.00246821,-0.00
 193371,0.00085863,-0.00038986,0.00441916,0.00126180,-0.00472821,-0.008
 59306,-0.05526133,0.02167138,0.00958977,0.00184614,-0.02475444,0.00890
 085,0.05343055,-0.00006142,0.00001358,-0.00002967,-0.00001423,0.000003
 04,-0.00002637,-0.00015152,-0.00020243,0.00018398,-0.00233803,0.000499
 18,-0.00020316,0.00101782,-0.00047313,0.00072003,-0.00446813,0.0000454
 6,0.00819379,0.10145754,0.02035324,-0.28888476,0.00600970,0.00160681,-
 0.01671909,-0.10299640,-0.01873416,0.30511371,-0.00028119,0.00004913,-
 0.00002047,0.00002658,0.00004076,-0.00001768,-0.00012439,-0.00055209,-
 0.00003002,0.00257348,0.00506401,-0.00771419,0.00041138,-0.00187152,0.
 00357195,-0.02735708,0.03389279,-0.01307996,-0.05473356,0.03025813,-0.
 01050960,0.00393014,-0.01152596,0.00519556,0.00408105,-0.01170963,0.00
 356786,0.07160412,-0.00017748,-0.00000625,-0.00003542,-0.00000873,0.00
 000799,0.00002051,0.00020420,-0.00004516,-0.00020680,-0.00089366,-0.00
 079759,0.00347507,-0.00256143,0.00084604,-0.00050946,0.00656787,0.0013
 9791,0.00006082,0.04023013,-0.27622639,0.09270085,0.00238442,-0.020584
 98,0.00858657,-0.00106716,0.00066098,0.00000542,-0.04272635,0.29547348
 ,-0.00008775,-0.00004838,-0.00003001,0.00002423,-0.00000074,0.00000735
 ,-0.00022385,0.00048258,0.00003556,0.00242744,-0.00058002,0.00056500,0
 .00111317,-0.00036276,-0.00122673,-0.00559891,0.00274634,-0.00161166,-
 0.01687285,0.09592010,-0.09183720,0.00381491,-0.02081632,0.00892904,-0
 .00483828,0.02613199,-0.00889027,0.02107135,-0.10123120,0.09498906,-0.
 00006028,0.00001754,-0.00001511,0.00003449,0.00000678,0.00001128,-0.00
 011225,0.00012199,0.00003888,0.00144198,0.00077005,-0.00127125,-0.0000
 5606,-0.00050641,0.00033802,-0.00080240,-0.00273992,-0.00097939,-0.010
 72205,0.00329161,0.00114748,-0.31434444,0.02391665,-0.02522608,0.00028
 276,-0.00007335,-0.00037200,0.00022530,-0.00044142,0.00008488,0.340635
 56,-0.00025592,-0.00001292,-0.00008466,0.00001298,-0.00000758,-0.00000
 279,0.00003213,0.00049278,0.00040437,0.00091470,0.00048403,-0.00223686
 ,0.00009820,-0.00058734,0.00066387,-0.00557717,-0.00393536,-0.00316117
 ,-0.02257940,0.00417991,0.00124282,0.02548645,-0.04959659,0.00136998,0
 .00056063,0.00088058,0.00004320,0.00055722,0.00023867,0.00102421,-0.02
 582128,0.04983313,-0.00012870,0.00000733,-0.00002150,0.00000924,-0.000
 00122,-0.00000404,-0.00004986,0.00013612,0.00020015,0.00054194,0.00067
 159,-0.00323161,0.00060191,-0.00007540,0.00128545,-0.00524494,-0.00447
 282,-0.00123200,-0.01828207,0.00538508,-0.00115210,-0.02374839,0.00096
 782,-0.04862779,0.00057102,0.00081784,0.00006767,0.00034665,0.00006540
 ,0.00069431,0.02826356,-0.00040147,0.04906466,-0.00016806,-0.00002715,
 -0.00004003,-0.00002543,-0.00000897,-0.00000211,0.00023132,0.00029599,
 0.00007256,-0.00022471,-0.00077091,0.00136677,-0.00053413,0.00013961,-
 0.00067208,0.00216501,0.00053318,0.00056016,0.00058062,-0.01230223,0.0
 0426731,-0.05892512,0.05260040,-0.02133825,0.00012800,0.00080215,0.000
 21906,-0.00028495,-0.00203155,-0.00157682,-0.00477668,0.02935635,-0.01
 234727,0.05903301,-0.00021121,-0.00000170,-0.00004762,-0.00000377,-0.0
 0000525,0.00000345,0.00009586,0.00023333,0.00007590,0.00014546,-0.0006
 5442,0.00065283,-0.00030760,0.00025058,-0.00040938,0.00051880,0.002619
 97,0.00058292,0.00591021,-0.02416007,0.00941805,0.05053921,-0.26644126
 ,0.09522309,0.00013363,0.00093471,-0.00009226,-0.00182088,-0.00179797,
 -0.00375114,0.00013501,-0.00075801,0.00002487,-0.05506803,0.29087090,0
 .00018036,0.00001659,0.00003874,0.00000466,0.00000536,0.00000130,-0.00
 013310,-0.00037711,-0.00010232,-0.00048592,0.00049370,-0.00028501,0.00
 053953,0.00026530,0.00042931,0.00180716,0.00149741,0.00064680,0.005074
 27,-0.02253072,0.00857656,-0.02234422,0.09743407,-0.09051233,0.0006390
 8,0.00056188,0.00102962,-0.00228259,-0.00314589,-0.00243451,0.00005037
 ,0.00158096,-0.00233960,0.02523538,-0.10174344,0.09437793,0.00004312,-
 0.00002076,0.00003049,-0.00002943,-0.00001362,-0.00001166,0.00007855,0
 .00008163,0.00000239,-0.00088993,-0.00032678,-0.00120319,-0.00065038,-
 0.00079072,0.00054937,0.00136583,0.00102054,0.00097244,0.00450224,0.00
 084178,-0.01321301,-0.09545296,-0.00761253,0.10538899,-0.00019308,-0.0
 0224378,-0.00193229,0.00004303,0.00052870,0.00067864,-0.01162358,-0.00
 280268,0.02940966,0.00275755,-0.00002742,-0.00819505,0.09980769,0.0002
 5810,0.00001995,0.00005796,-0.00000367,0.00000185,-0.00001479,-0.00025
 073,-0.00047146,0.00000935,-0.00095027,0.00146243,-0.00230307,0.000429
 82,-0.00110176,0.00144526,0.00003691,0.00080904,0.00282316,0.01316631,
 0.00162665,-0.02548620,-0.00998775,-0.05015923,0.02266191,-0.00257017,
 -0.00342625,-0.00299138,0.00060615,0.00094601,0.00041949,0.00128048,-0
 .00112050,-0.00306125,-0.01341391,-0.00099641,0.02582202,0.01149669,0.
 05231019,-0.00003898,-0.00001461,0.00000998,-0.00002473,0.00000369,-0.
 00001561,0.00006025,-0.00009892,0.00004489,-0.00075926,0.00025591,-0.0
 0182042,0.00112081,0.00072208,0.00106744,-0.00034646,0.00081808,0.0019
 3763,0.00876686,0.00050272,-0.01963270,0.10319882,0.02028331,-0.274079
 04,-0.00162621,-0.00303943,-0.00055280,-0.00019981,0.00030465,0.000785
 64,-0.00209138,-0.00037339,0.00525625,0.00440433,0.00015382,-0.0095236
 3,-0.11257795,-0.01940586,0.29657351,-0.00512171,-0.00595721,-0.003252
 03,0.00012116,0.00027236,0.00014841,0.00163812,0.00639789,0.00085423,-
 0.00472107,0.00193365,0.00246779,0.00080586,0.00006052,-0.00035113,-0.
 00029600,0.00376830,0.00054444,0.00121834,-0.00017403,-0.00044271,-0.0
 0007515,-0.00018742,0.00008440,-0.00003185,-0.00000277,0.00004834,-0.0
 0021129,0.00007428,-0.00004143,-0.00017506,0.00013586,0.00001716,0.000
 26104,0.00013602,-0.00017171,0.00022147,-0.00011299,0.00014431,0.01271
 570,-0.05797658,-0.02501029,-0.01784587,0.00072776,-0.00015594,0.00027
 447,0.05189439,0.07480253,0.02348214,0.01151547,-0.02043292,-0.0043797
 6,-0.00089630,0.00169853,0.00019707,-0.00158445,-0.00220194,0.00045355
 ,-0.00038953,0.00114644,0.00084474,0.00018930,-0.00003924,-0.00002625,
 -0.00014686,0.00005672,-0.00007946,-0.00006905,-0.00011089,0.00013126,
 0.00008355,-0.00002247,-0.00001752,-0.00010056,-0.00008134,0.00007286,
 -0.00014931,0.00005571,-0.00011257,-0.02187518,0.05285308,-0.01847536,
 -0.00756273,-0.00440218,0.00012055,-0.00004075,0.00015383,0.01640281,0
 .03043136,0.00021929,0.00473388,-0.00287960,-0.00229929,-0.00028870,0.
 00010614,0.00140024,-0.00118756,-0.00250734,0.00155916,-0.00029965,-0.
 00000550,0.00018297,0.00001545,0.00022666,-0.00016086,-0.00008447,0.00
 004237,0.00001021,0.00012227,-0.00010139,0.00003494,0.00000672,-0.0000
 7589,0.00003105,-0.00012583,-0.00012804,0.00007628,0.00010338,0.000031
 90,-0.00002863,0.04902808,-0.18343477,0.45218401,0.00027315,-0.0005502
 7,0.00043680,-0.00007666,-0.00049725,0.00005366,-0.00188382,-0.0017097
 7,0.00068065,0.00317488,0.00202207,-0.00302281,-0.00067605,-0.00011818
 ,0.00080803,-0.00096021,-0.00153185,0.00117452,-0.00042294,-0.00000492
 ,0.00010827,0.00008555,0.00027459,-0.00011906,-0.00002103,0.00004952,0
 .00001372,0.00009737,-0.00008183,0.00002528,0.00005271,-0.00011808,0.0
 0004010,-0.00021745,-0.00017527,0.00008178,0.00001988,0.00001503,-0.00
 003063,-0.00634956,0.01877735,-0.05007157,0.00690419,-0.00101964,-0.00
 063434,0.00003136,-0.00028049,0.00001532,-0.00006240,0.00141908,-0.003
 40264,0.00707582,0.00254189,-0.00242551,0.00142331,-0.00099897,0.00052
 224,-0.00118812,-0.00142691,0.00039327,-0.00016935,0.00101030,0.000292
 27,0.00005243,-0.00011391,0.00006046,-0.00001999,-0.00009082,-0.000013
 14,0.00000289,-0.00019270,-0.00000186,-0.00006542,-0.00004128,-0.00006
 833,-0.00004636,-0.00000438,-0.00001305,0.00004701,0.00001825,0.000043
 79,0.00000051,0.01553074,-0.08255797,0.16589756,-0.01635115,0.08778951
 ,0.00231641,-0.00053708,0.00108274,0.00009934,0.00001660,-0.00004370,-
 0.00220596,-0.00743098,0.00115229,-0.00262217,0.00031322,0.00033161,0.
 00081960,-0.00027122,0.00029643,0.00089527,0.00036772,-0.00087054,-0.0
 0012543,0.00008207,-0.00000736,0.00004089,-0.00002256,-0.00002294,0.00
 007163,-0.00002477,-0.00001289,-0.00002132,0.00001086,-0.00001053,0.00
 001402,0.00000682,0.00000910,-0.00002317,0.00003695,0.00002086,-0.0000
 0222,-0.00000849,-0.00002252,-0.04907813,0.18044010,-0.44896101,0.0498
 2123,-0.17297925,0.44705845\\0.00057842,-0.00028026,0.00010327,0.00002
 263,-0.00014563,-0.00003703,-0.00005629,0.00495066,0.00133279,0.000104
 73,0.00055339,0.00013953,-0.00035269,-0.00023372,-0.00024087,0.0000204
 8,-0.00016601,-0.00006616,0.00004536,-0.00007370,-0.00003190,-0.000037
 86,-0.00001938,-0.00001642,0.00000358,0.00000007,-0.00000209,0.0000091
 0,-0.00000401,-0.00000642,-0.00000336,-0.00000317,0.00000097,-0.000005
 96,-0.00000219,0.00000134,-0.00000554,-0.00000317,0.00000012,-0.000322
 55,-0.00452316,-0.00112130,-0.00000005,-0.00004972,-0.00005584\\\@


 IT IS UNWORTHY OF EXCELLENT MEN TO LOSE HOURS LIKE SLAVES IN THE LABOR
 OF CALCULATION WHICH COULD BE SAFELY RELEGATED TO ANYONE ELSE
 IF A MACHINE WERE USED.
    -- G.W. VON LEIBNIZ
 Job cpu time:       0 days  0 hours 59 minutes 23.5 seconds.
 Elapsed time:       0 days  0 hours  2 minutes 28.8 seconds.
 File lengths (MBytes):  RWF=    153 Int=      0 D2E=      0 Chk=      9 Scr=      1
 Normal termination of Gaussian 16 at Mon Jun 23 05:01:43 2025.
