 Entering Gaussian System, Link 0=g16
 Initial command:
 /opt/g16/l1.exe "/home/aayush/scratches/g16/Gau-55260.inp" -scrdir="/home/aayush/scratches/g16/"
 Entering Link 1 = /opt/g16/l1.exe PID=     55263.
  
 Copyright (c) 1988,1990,1992,1993,1995,1998,2003,2009,2016,
            Gaussian, Inc.  All Rights Reserved.
  
 This is part of the Gaussian(R) 16 program.  It is based on
 the Gaussian(R) 09 system (copyright 2009, Gaussian, Inc.),
 the Gaussian(R) 03 system (copyright 2003, Gaussian, Inc.),
 the Gaussian(R) 98 system (copyright 1998, Gaussian, Inc.),
 the Gaussian(R) 94 system (copyright 1995, Gaussian, Inc.),
 the Gaussian 92(TM) system (copyright 1992, Gaussian, Inc.),
 the Gaussian 90(TM) system (copyright 1990, Gaussian, Inc.),
 the Gaussian 88(TM) system (copyright 1988, Gaussian, Inc.),
 the Gaussian 86(TM) system (copyright 1986, Carnegie Mellon
 University), and the Gaussian 82(TM) system (copyright 1983,
 Carnegie Mellon University). Gaussian is a federally registered
 trademark of Gaussian, Inc.
  
 This software contains proprietary and confidential information,
 including trade secrets, belonging to Gaussian, Inc.
  
 This software is provided under written license and may be
 used, copied, transmitted, or stored only in accord with that
 written license.
  
 The following legend is applicable only to US Government
 contracts under FAR:
  
                    RESTRICTED RIGHTS LEGEND
  
 Use, reproduction and disclosure by the US Government is
 subject to restrictions as set forth in subparagraphs (a)
 and (c) of the Commercial Computer Software - Restricted
 Rights clause in FAR 52.227-19.
  
 Gaussian, Inc.
 340 Quinnipiac St., Bldg. 40, Wallingford CT 06492
  
  
 ---------------------------------------------------------------
 Warning -- This program may not be used in any manner that
 competes with the business of Gaussian, Inc. or will provide
 assistance to any competitor of Gaussian, Inc.  The licensee
 of this program is prohibited from giving any competitor of
 Gaussian, Inc. access to this program.  By using this program,
 the user acknowledges that Gaussian, Inc. is engaged in the
 business of creating and licensing software in the field of
 computational chemistry and represents and warrants to the
 licensee that it is not a competitor of Gaussian, Inc. and that
 it will not use this program in any manner prohibited above.
 ---------------------------------------------------------------
  

 Cite this work as:
 Gaussian 16, Revision A.03,
 M. J. Frisch, G. W. Trucks, H. B. Schlegel, G. E. Scuseria, 
 M. A. Robb, J. R. Cheeseman, G. Scalmani, V. Barone, 
 G. A. Petersson, H. Nakatsuji, X. Li, M. Caricato, A. V. Marenich, 
 J. Bloino, B. G. Janesko, R. Gomperts, B. Mennucci, H. P. Hratchian, 
 J. V. Ortiz, A. F. Izmaylov, J. L. Sonnenberg, D. Williams-Young, 
 F. Ding, F. Lipparini, F. Egidi, J. Goings, B. Peng, A. Petrone, 
 T. Henderson, D. Ranasinghe, V. G. Zakrzewski, J. Gao, N. Rega, 
 G. Zheng, W. Liang, M. Hada, M. Ehara, K. Toyota, R. Fukuda, 
 J. Hasegawa, M. Ishida, T. Nakajima, Y. Honda, O. Kitao, H. Nakai, 
 T. Vreven, K. Throssell, J. A. Montgomery, Jr., J. E. Peralta, 
 F. Ogliaro, M. J. Bearpark, J. J. Heyd, E. N. Brothers, K. N. Kudin, 
 V. N. Staroverov, T. A. Keith, R. Kobayashi, J. Normand, 
 K. Raghavachari, A. P. Rendell, J. C. Burant, S. S. Iyengar, 
 J. Tomasi, M. Cossi, J. M. Millam, M. Klene, C. Adamo, R. Cammi, 
 J. W. Ochterski, R. L. Martin, K. Morokuma, O. Farkas, 
 J. B. Foresman, and D. J. Fox, Gaussian, Inc., Wallingford CT, 2016.
 
 ******************************************
 Gaussian 16:  ES64L-G16RevA.03 25-Dec-2016
                23-Jun-2025 
 ******************************************
 %nprocshared=24
 Will use up to   24 processors via shared memory.
 %mem=12GB
 %chk=ethyl_propiolate_ts1.chk
 --------------------------
 # freq 6-311++g(d,p) m062x
 --------------------------
 1/10=4,30=1,38=1/1,3;
 2/12=2,17=6,18=5,40=1/2;
 3/5=4,6=6,7=1111,11=2,25=1,30=1,71=2,74=-55,140=1/1,2,3;
 4//1;
 5/5=2,38=5,98=1/2;
 8/6=4,10=90,11=11/1;
 11/6=1,8=1,9=11,15=111,16=1/1,2,10;
 10/6=1/2;
 6/7=2,8=2,9=2,10=2,28=1/1;
 7/8=1,10=1,25=1/1,2,3,16;
 1/10=4,30=1/3;
 99//99;
 -------------------
 Title Card Required
 -------------------
 Symbolic Z-matrix:
 Charge =  0 Multiplicity = 2
 C                    -2.79847  -0.43846  -0.41024 
 H                    -3.84045  -0.48722  -0.62889 
 C                    -1.62625  -0.2157   -0.10923 
 C                    -0.21969  -0.59883   0.14717 
 O                     0.13913  -1.18851   1.12355 
 O                     0.56111  -0.16846  -0.83928 
 C                     1.98082  -0.3216   -0.63016 
 C                     2.50221   0.75507   0.30081 
 H                     2.40645  -0.23675  -1.62831 
 H                     2.17116  -1.3208   -0.23705 
 H                     3.58479   0.65753   0.40291 
 H                     2.27686   1.74505  -0.09782 
 H                     2.05141   0.66035   1.28894 
 O                    -1.46626   1.59378   0.41208 
 H                    -1.55383   2.00444  -0.46064 
 

 GradGradGradGradGradGradGradGradGradGradGradGradGradGradGradGradGradGrad
 Berny optimization.
 Initialization pass.
 Trust Radius=3.00D-01 FncErr=1.00D-07 GrdErr=1.00D-07 EigMax=2.50D+02 EigMin=1.00D-04
 Number of steps in this run=      2 maximum allowed number of steps=      2.
 GradGradGradGradGradGradGradGradGradGradGradGradGradGradGradGradGradGrad

                          Input orientation:                          
 ---------------------------------------------------------------------
 Center     Atomic      Atomic             Coordinates (Angstroms)
 Number     Number       Type             X           Y           Z
 ---------------------------------------------------------------------
      1          6           0       -2.798467   -0.438456   -0.410243
      2          1           0       -3.840449   -0.487224   -0.628887
      3          6           0       -1.626247   -0.215702   -0.109230
      4          6           0       -0.219688   -0.598830    0.147167
      5          8           0        0.139128   -1.188514    1.123548
      6          8           0        0.561108   -0.168455   -0.839281
      7          6           0        1.980816   -0.321602   -0.630157
      8          6           0        2.502213    0.755072    0.300813
      9          1           0        2.406453   -0.236746   -1.628314
     10          1           0        2.171157   -1.320802   -0.237050
     11          1           0        3.584790    0.657534    0.402911
     12          1           0        2.276858    1.745047   -0.097819
     13          1           0        2.051413    0.660346    1.288939
     14          8           0       -1.466256    1.593784    0.412078
     15          1           0       -1.553827    2.004442   -0.460641
 ---------------------------------------------------------------------
                    Distance matrix (angstroms):
                    1          2          3          4          5
     1  C    0.000000
     2  H    1.065791   0.000000
     3  C    1.230580   2.290515   0.000000
     4  C    2.643204   3.704676   1.480181   0.000000
     5  O    3.397730   4.404528   2.362764   1.195741   0.000000
     6  O    3.397605   4.418097   2.306454   1.329641   2.251951
     7  C    4.785767   5.823621   3.646023   2.350171   2.686788
     8  C    5.479719   6.529702   4.260836   3.043912   3.168373
     9  H    5.349353   6.331301   4.309377   3.190620   3.690443
    10  H    5.050316   6.081759   3.957002   2.526857   2.449055
    11  H    6.527510   7.583485   5.308459   4.014711   3.974896
    12  H    5.533915   6.533492   4.367940   3.433150   3.829805
    13  H    5.255085   6.301509   4.030821   2.836735   2.665046
    14  O    2.565345   3.324304   1.889867   2.536073   3.290080
    15  H    2.742156   3.386052   2.248949   2.987705   3.945975
                    6          7          8          9         10
     6  O    0.000000
     7  C    1.443176   0.000000
     8  C    2.433229   1.515845   0.000000
     9  H    2.008117   1.088432   2.171268   0.000000
    10  H    2.069503   1.090488   2.169827   1.779370   0.000000
    11  H    3.371639   2.144451   1.091747   2.512785   2.514303
    12  H    2.674893   2.154545   1.090753   2.507332   3.070829
    13  H    2.727130   2.156881   1.090223   3.072652   2.503583
    14  O    2.963375   4.078880   4.057655   4.744672   4.706055
    15  H    3.055781   4.234728   4.311867   4.697893   4.998274
                   11         12         13         14         15
    11  H    0.000000
    12  H    1.773161   0.000000
    13  H    1.770960   1.774965   0.000000
    14  O    5.137092   3.780711   3.743553   0.000000
    15  H    5.381939   3.856562   4.226746   0.968477   0.000000
 Stoichiometry    C5H7O3(2)
 Framework group  C1[X(C5H7O3)]
 Deg. of freedom    39
 Full point group                 C1      NOp   1
 Largest Abelian subgroup         C1      NOp   1
 Largest concise Abelian subgroup C1      NOp   1
                         Standard orientation:                         
 ---------------------------------------------------------------------
 Center     Atomic      Atomic             Coordinates (Angstroms)
 Number     Number       Type             X           Y           Z
 ---------------------------------------------------------------------
      1          6           0       -2.798467   -0.438456   -0.410243
      2          1           0       -3.840449   -0.487224   -0.628887
      3          6           0       -1.626247   -0.215702   -0.109230
      4          6           0       -0.219688   -0.598830    0.147167
      5          8           0        0.139128   -1.188514    1.123548
      6          8           0        0.561108   -0.168455   -0.839281
      7          6           0        1.980816   -0.321602   -0.630157
      8          6           0        2.502213    0.755072    0.300813
      9          1           0        2.406453   -0.236746   -1.628314
     10          1           0        2.171157   -1.320802   -0.237050
     11          1           0        3.584790    0.657534    0.402911
     12          1           0        2.276858    1.745047   -0.097819
     13          1           0        2.051413    0.660346    1.288939
     14          8           0       -1.466256    1.593784    0.412078
     15          1           0       -1.553827    2.004442   -0.460641
 ---------------------------------------------------------------------
 Rotational constants (GHZ):           3.7035509           1.3101230           1.1834017
 Standard basis: 6-311++G(d,p) (5D, 7F)
 There are   233 symmetry adapted cartesian basis functions of A   symmetry.
 There are   225 symmetry adapted basis functions of A   symmetry.
   225 basis functions,   351 primitive gaussians,   233 cartesian basis functions
    31 alpha electrons       30 beta electrons
       nuclear repulsion energy       363.3193426390 Hartrees.
 NAtoms=   15 NActive=   15 NUniq=   15 SFac= 1.00D+00 NAtFMM=   60 NAOKFM=F Big=F
 Integral buffers will be    131072 words long.
 Raffenetti 2 integral format.
 Two-electron integral symmetry is turned on.
 One-electron integrals computed using PRISM.
 NBasis=   225 RedAO= T EigKep=  3.71D-06  NBF=   225
 NBsUse=   225 1.00D-06 EigRej= -1.00D+00 NBFU=   225
 ExpMin= 3.60D-02 ExpMax= 8.59D+03 ExpMxC= 1.30D+03 IAcc=3 IRadAn=         5 AccDes= 0.00D+00
 Harris functional with IExCor= 1009 and IRadAn=       5 diagonalized for initial guess.
 HarFok:  IExCor= 1009 AccDes= 0.00D+00 IRadAn=         5 IDoV= 1 UseB2=F ITyADJ=14
 ICtDFT=  3500011 ScaDFX=  1.000000  1.000000  1.000000  1.000000
 FoFCou: FMM=F IPFlag=           0 FMFlag=      100000 FMFlg1=           0
         NFxFlg=           0 DoJE=T BraDBF=F KetDBF=T FulRan=T
         wScrn=  0.000000 ICntrl=       500 IOpCl=  0 I1Cent=   200000004 NGrid=           0
         NMat0=    1 NMatS0=      1 NMatT0=    0 NMatD0=    1 NMtDS0=    0 NMtDT0=    0
 Petite list used in FoFCou.
 Initial guess <Sx>= 0.0000 <Sy>= 0.0000 <Sz>= 0.5000 <S**2>= 0.7500 S= 0.5000
 Requested convergence on RMS density matrix=1.00D-08 within 128 cycles.
 Requested convergence on MAX density matrix=1.00D-06.
 Requested convergence on             energy=1.00D-06.
 No special actions if energy rises.
 Restarting incremental Fock formation.
 SCF Done:  E(UM062X) =  -420.203982039     A.U. after   22 cycles
            NFock= 22  Conv=0.43D-08     -V/T= 2.0035
 <Sx>= 0.0000 <Sy>= 0.0000 <Sz>= 0.5000 <S**2>= 0.7857 S= 0.5177
 <L.S>=  0.00000000000    
 Annihilation of the first spin contaminant:
 S**2 before annihilation     0.7857,   after     0.7505
 DoSCS=F DFT=T ScalE2(SS,OS)=  1.000000  1.000000
 Range of M.O.s used for correlation:     1   225
 NBasis=   225 NAE=    31 NBE=    30 NFC=     0 NFV=     0
 NROrb=    225 NOA=    31 NOB=    30 NVA=   194 NVB=   195

 **** Warning!!: The largest alpha MO coefficient is  0.15549838D+03


 **** Warning!!: The largest beta MO coefficient is  0.14886019D+03

 Symmetrizing basis deriv contribution to polar:
 IMax=3 JMax=2 DiffMx= 0.00D+00
 G2DrvN: will do    16 centers at a time, making    1 passes.
 Calling FoFCou, ICntrl=  3107 FMM=F I1Cent=   0 AccDes= 0.00D+00.
 End of G2Drv F.D. properties file   721 does not exist.
 End of G2Drv F.D. properties file   722 does not exist.
 End of G2Drv F.D. properties file   788 does not exist.
          IDoAtm=111111111111111
          Differentiating once with respect to electric field.
                with respect to dipole field.
          Differentiating once with respect to nuclear coordinates.
 Keep R1 and R2 ints in memory in canonical form, NReq=671901991.
          There are    48 degrees of freedom in the 1st order CPHF.  IDoFFX=6 NUNeed=     3.
     45 vectors produced by pass  0 Test12= 2.47D-14 2.08D-09 XBig12= 8.86D+01 3.13D+00.
 AX will form    45 AO Fock derivatives at one time.
     45 vectors produced by pass  1 Test12= 2.47D-14 2.08D-09 XBig12= 1.46D+01 4.71D-01.
     45 vectors produced by pass  2 Test12= 2.47D-14 2.08D-09 XBig12= 6.52D-01 1.14D-01.
     45 vectors produced by pass  3 Test12= 2.47D-14 2.08D-09 XBig12= 1.01D-02 1.14D-02.
     45 vectors produced by pass  4 Test12= 2.47D-14 2.08D-09 XBig12= 1.08D-04 1.31D-03.
     45 vectors produced by pass  5 Test12= 2.47D-14 2.08D-09 XBig12= 1.24D-06 1.01D-04.
     38 vectors produced by pass  6 Test12= 2.47D-14 2.08D-09 XBig12= 1.08D-08 1.19D-05.
     20 vectors produced by pass  7 Test12= 2.47D-14 2.08D-09 XBig12= 9.24D-11 8.69D-07.
      5 vectors produced by pass  8 Test12= 2.47D-14 2.08D-09 XBig12= 8.70D-13 6.48D-08.
      3 vectors produced by pass  9 Test12= 2.47D-14 2.08D-09 XBig12= 8.05D-15 6.53D-09.
      2 vectors produced by pass 10 Test12= 2.47D-14 2.08D-09 XBig12= 3.16D-16 4.30D-09.
 InvSVY:  IOpt=1 It=  1 EMax= 7.11D-15
 Solved reduced A of dimension   338 with    48 vectors.
 Isotropic polarizability for W=    0.000000       74.09 Bohr**3.
 End of Minotr F.D. properties file   721 does not exist.
 End of Minotr F.D. properties file   722 does not exist.
 End of Minotr F.D. properties file   788 does not exist.

 **********************************************************************

            Population analysis using the SCF density.

 **********************************************************************

 Orbital symmetries:
 Alpha Orbitals:
       Occupied  (A) (A) (A) (A) (A) (A) (A) (A) (A) (A) (A) (A)
                 (A) (A) (A) (A) (A) (A) (A) (A) (A) (A) (A) (A)
                 (A) (A) (A) (A) (A) (A) (A)
       Virtual   (A) (A) (A) (A) (A) (A) (A) (A) (A) (A) (A) (A)
                 (A) (A) (A) (A) (A) (A) (A) (A) (A) (A) (A) (A)
                 (A) (A) (A) (A) (A) (A) (A) (A) (A) (A) (A) (A)
                 (A) (A) (A) (A) (A) (A) (A) (A) (A) (A) (A) (A)
                 (A) (A) (A) (A) (A) (A) (A) (A) (A) (A) (A) (A)
                 (A) (A) (A) (A) (A) (A) (A) (A) (A) (A) (A) (A)
                 (A) (A) (A) (A) (A) (A) (A) (A) (A) (A) (A) (A)
                 (A) (A) (A) (A) (A) (A) (A) (A) (A) (A) (A) (A)
                 (A) (A) (A) (A) (A) (A) (A) (A) (A) (A) (A) (A)
                 (A) (A) (A) (A) (A) (A) (A) (A) (A) (A) (A) (A)
                 (A) (A) (A) (A) (A) (A) (A) (A) (A) (A) (A) (A)
                 (A) (A) (A) (A) (A) (A) (A) (A) (A) (A) (A) (A)
                 (A) (A) (A) (A) (A) (A) (A) (A) (A) (A) (A) (A)
                 (A) (A) (A) (A) (A) (A) (A) (A) (A) (A) (A) (A)
                 (A) (A) (A) (A) (A) (A) (A) (A) (A) (A) (A) (A)
                 (A) (A) (A) (A) (A) (A) (A) (A) (A) (A) (A) (A)
                 (A) (A)
 Beta  Orbitals:
       Occupied  (A) (A) (A) (A) (A) (A) (A) (A) (A) (A) (A) (A)
                 (A) (A) (A) (A) (A) (A) (A) (A) (A) (A) (A) (A)
                 (A) (A) (A) (A) (A) (A)
       Virtual   (A) (A) (A) (A) (A) (A) (A) (A) (A) (A) (A) (A)
                 (A) (A) (A) (A) (A) (A) (A) (A) (A) (A) (A) (A)
                 (A) (A) (A) (A) (A) (A) (A) (A) (A) (A) (A) (A)
                 (A) (A) (A) (A) (A) (A) (A) (A) (A) (A) (A) (A)
                 (A) (A) (A) (A) (A) (A) (A) (A) (A) (A) (A) (A)
                 (A) (A) (A) (A) (A) (A) (A) (A) (A) (A) (A) (A)
                 (A) (A) (A) (A) (A) (A) (A) (A) (A) (A) (A) (A)
                 (A) (A) (A) (A) (A) (A) (A) (A) (A) (A) (A) (A)
                 (A) (A) (A) (A) (A) (A) (A) (A) (A) (A) (A) (A)
                 (A) (A) (A) (A) (A) (A) (A) (A) (A) (A) (A) (A)
                 (A) (A) (A) (A) (A) (A) (A) (A) (A) (A) (A) (A)
                 (A) (A) (A) (A) (A) (A) (A) (A) (A) (A) (A) (A)
                 (A) (A) (A) (A) (A) (A) (A) (A) (A) (A) (A) (A)
                 (A) (A) (A) (A) (A) (A) (A) (A) (A) (A) (A) (A)
                 (A) (A) (A) (A) (A) (A) (A) (A) (A) (A) (A) (A)
                 (A) (A) (A) (A) (A) (A) (A) (A) (A) (A) (A) (A)
                 (A) (A) (A)
 The electronic state is 2-A.
 Alpha  occ. eigenvalues --  -19.68392 -19.64533 -19.63422 -10.70777 -10.61339
 Alpha  occ. eigenvalues --  -10.60645 -10.59455 -10.53615  -1.25911  -1.16679
 Alpha  occ. eigenvalues --   -1.10820  -0.91523  -0.87845  -0.78394  -0.71000
 Alpha  occ. eigenvalues --   -0.64840  -0.62505  -0.58936  -0.57249  -0.53925
 Alpha  occ. eigenvalues --   -0.53168  -0.49569  -0.48475  -0.46154  -0.45314
 Alpha  occ. eigenvalues --   -0.42053  -0.41326  -0.38756  -0.38236  -0.37328
 Alpha  occ. eigenvalues --   -0.32557
 Alpha virt. eigenvalues --   -0.00519  -0.00401   0.00430   0.01446   0.02243
 Alpha virt. eigenvalues --    0.02539   0.03182   0.04402   0.05500   0.05997
 Alpha virt. eigenvalues --    0.07043   0.07803   0.07947   0.10198   0.10362
 Alpha virt. eigenvalues --    0.10683   0.11397   0.12415   0.13087   0.13458
 Alpha virt. eigenvalues --    0.13803   0.14043   0.14763   0.15225   0.15516
 Alpha virt. eigenvalues --    0.17278   0.17464   0.18085   0.19511   0.20183
 Alpha virt. eigenvalues --    0.20723   0.21824   0.23234   0.23505   0.24712
 Alpha virt. eigenvalues --    0.25617   0.26784   0.28169   0.29682   0.30733
 Alpha virt. eigenvalues --    0.31451   0.32359   0.32590   0.33747   0.34462
 Alpha virt. eigenvalues --    0.35029   0.36286   0.37076   0.37591   0.40157
 Alpha virt. eigenvalues --    0.41342   0.42850   0.44567   0.46816   0.49393
 Alpha virt. eigenvalues --    0.50227   0.52756   0.54454   0.55748   0.57975
 Alpha virt. eigenvalues --    0.58331   0.60812   0.62956   0.65689   0.66990
 Alpha virt. eigenvalues --    0.68282   0.69476   0.70417   0.70987   0.72441
 Alpha virt. eigenvalues --    0.73535   0.75301   0.78026   0.78412   0.79411
 Alpha virt. eigenvalues --    0.83778   0.85995   0.90599   0.93770   0.97613
 Alpha virt. eigenvalues --    0.99293   1.02538   1.05964   1.07660   1.12623
 Alpha virt. eigenvalues --    1.16490   1.18249   1.19963   1.21578   1.23782
 Alpha virt. eigenvalues --    1.24615   1.27339   1.31408   1.32033   1.33630
 Alpha virt. eigenvalues --    1.35401   1.36414   1.38036   1.42402   1.45440
 Alpha virt. eigenvalues --    1.47794   1.50628   1.51772   1.52588   1.57483
 Alpha virt. eigenvalues --    1.59087   1.59868   1.60986   1.62259   1.64852
 Alpha virt. eigenvalues --    1.66338   1.66836   1.70491   1.71940   1.74837
 Alpha virt. eigenvalues --    1.75810   1.81074   1.84100   1.86717   1.88058
 Alpha virt. eigenvalues --    1.90913   1.95090   1.98965   2.03681   2.05762
 Alpha virt. eigenvalues --    2.09822   2.12941   2.13999   2.20732   2.30891
 Alpha virt. eigenvalues --    2.31243   2.35399   2.42750   2.51676   2.52401
 Alpha virt. eigenvalues --    2.54232   2.56499   2.59850   2.61886   2.63449
 Alpha virt. eigenvalues --    2.65091   2.66614   2.71370   2.73443   2.74664
 Alpha virt. eigenvalues --    2.79046   2.81469   2.84058   2.88075   2.90930
 Alpha virt. eigenvalues --    2.94581   2.96291   2.98815   3.02349   3.06883
 Alpha virt. eigenvalues --    3.10319   3.15833   3.18139   3.20195   3.21416
 Alpha virt. eigenvalues --    3.26503   3.30700   3.34064   3.36861   3.41670
 Alpha virt. eigenvalues --    3.45578   3.48179   3.64875   3.74982   3.85599
 Alpha virt. eigenvalues --    3.86016   3.89610   3.91586   4.02507   4.10482
 Alpha virt. eigenvalues --    4.18439   4.28086   5.13609   5.16447   5.19039
 Alpha virt. eigenvalues --    5.21865   5.31890   5.47599   5.60420   5.72958
 Alpha virt. eigenvalues --    5.94588  23.58793  23.92446  23.94179  24.05827
 Alpha virt. eigenvalues --   24.90017  49.98614  50.01459  50.10828
  Beta  occ. eigenvalues --  -19.68395 -19.63441 -19.63438 -10.70737 -10.61463
  Beta  occ. eigenvalues --  -10.60644 -10.59049 -10.53616  -1.25906  -1.16716
  Beta  occ. eigenvalues --   -1.06811  -0.90546  -0.87116  -0.77970  -0.70508
  Beta  occ. eigenvalues --   -0.64659  -0.61810  -0.58850  -0.56966  -0.53486
  Beta  occ. eigenvalues --   -0.51618  -0.49035  -0.46717  -0.45308  -0.42009
  Beta  occ. eigenvalues --   -0.41823  -0.39236  -0.38629  -0.36640  -0.36324
  Beta virt. eigenvalues --   -0.09842  -0.00419   0.00391   0.00829   0.01724
  Beta virt. eigenvalues --    0.02366   0.02777   0.03190   0.04555   0.05560
  Beta virt. eigenvalues --    0.05927   0.07134   0.07604   0.07996   0.10340
  Beta virt. eigenvalues --    0.10611   0.10828   0.11699   0.12402   0.13101
  Beta virt. eigenvalues --    0.13359   0.13869   0.14253   0.15249   0.15497
  Beta virt. eigenvalues --    0.15538   0.17265   0.17274   0.18093   0.20006
  Beta virt. eigenvalues --    0.20474   0.20680   0.21858   0.23502   0.23570
  Beta virt. eigenvalues --    0.24788   0.25406   0.26961   0.27969   0.29818
  Beta virt. eigenvalues --    0.30656   0.31392   0.32377   0.32691   0.33731
  Beta virt. eigenvalues --    0.34463   0.35015   0.36315   0.37069   0.37652
  Beta virt. eigenvalues --    0.40160   0.41494   0.42829   0.44577   0.46846
  Beta virt. eigenvalues --    0.49428   0.50342   0.52792   0.54503   0.55912
  Beta virt. eigenvalues --    0.58331   0.58799   0.61200   0.63118   0.65701
  Beta virt. eigenvalues --    0.66837   0.68599   0.69421   0.70489   0.70991
  Beta virt. eigenvalues --    0.72290   0.73554   0.75266   0.77909   0.78275
  Beta virt. eigenvalues --    0.79441   0.83762   0.86016   0.90759   0.93978
  Beta virt. eigenvalues --    0.97597   0.99360   1.02907   1.06166   1.07727
  Beta virt. eigenvalues --    1.13680   1.17152   1.18568   1.20428   1.22291
  Beta virt. eigenvalues --    1.24363   1.24910   1.27908   1.31961   1.32911
  Beta virt. eigenvalues --    1.35207   1.35625   1.36656   1.38267   1.43123
  Beta virt. eigenvalues --    1.46511   1.48135   1.50811   1.52453   1.53419
  Beta virt. eigenvalues --    1.57646   1.59376   1.59996   1.61024   1.62286
  Beta virt. eigenvalues --    1.64892   1.66479   1.66911   1.70477   1.72042
  Beta virt. eigenvalues --    1.74872   1.75918   1.81176   1.84326   1.86896
  Beta virt. eigenvalues --    1.88236   1.91064   1.95655   1.99004   2.03818
  Beta virt. eigenvalues --    2.06102   2.10060   2.13537   2.14082   2.20772
  Beta virt. eigenvalues --    2.30947   2.31275   2.35420   2.42907   2.51690
  Beta virt. eigenvalues --    2.52911   2.54246   2.56628   2.60279   2.62031
  Beta virt. eigenvalues --    2.63914   2.65555   2.66672   2.71786   2.73585
  Beta virt. eigenvalues --    2.74844   2.80199   2.81683   2.85452   2.90673
  Beta virt. eigenvalues --    2.91021   2.94733   2.96378   2.98883   3.02250
  Beta virt. eigenvalues --    3.10073   3.10881   3.16107   3.20494   3.22429
  Beta virt. eigenvalues --    3.23787   3.26654   3.30758   3.35051   3.36774
  Beta virt. eigenvalues --    3.41882   3.45563   3.48932   3.64842   3.74978
  Beta virt. eigenvalues --    3.85605   3.86040   3.90158   3.93336   4.02516
  Beta virt. eigenvalues --    4.10361   4.18304   4.28084   5.14548   5.17376
  Beta virt. eigenvalues --    5.23054   5.23535   5.31903   5.47579   5.62527
  Beta virt. eigenvalues --    5.72971   5.94575  23.58890  23.92453  23.94184
  Beta virt. eigenvalues --   24.05827  24.90662  49.98196  50.01206  50.10850
          Condensed to atoms (all electrons):
               1          2          3          4          5          6
     1  C   16.346962   0.613094  -4.305729  -6.123925  -0.023648   0.014549
     2  H    0.613094   0.424708  -0.167641  -0.074290  -0.001589  -0.001337
     3  C   -4.305729  -0.167641  11.905581  -1.989165   0.157633  -0.215405
     4  C   -6.123925  -0.074290  -1.989165  14.457124   0.293088   0.039854
     5  O   -0.023648  -0.001589   0.157633   0.293088   7.951757  -0.155010
     6  O    0.014549  -0.001337  -0.215405   0.039854  -0.155010   8.289698
     7  C   -0.098753  -0.000830  -0.261728   0.225622   0.051216   0.142763
     8  C    0.096929   0.000207   0.165646  -0.336449  -0.072914  -0.040859
     9  H    0.001438   0.000063   0.001475   0.003671   0.006636  -0.090427
    10  H   -0.032533  -0.000200  -0.080853   0.109626  -0.019382  -0.015833
    11  H    0.003445   0.000042   0.014520  -0.011277  -0.002443   0.016596
    12  H   -0.005201   0.000041  -0.024871   0.030788   0.000533  -0.000497
    13  H    0.004661  -0.000250   0.015617  -0.049495   0.008062  -0.018569
    14  O   -0.349484  -0.007417   0.441442  -0.199962  -0.003493   0.036349
    15  H   -0.096975  -0.003510   0.117690   0.000227   0.000334  -0.003753
               7          8          9         10         11         12
     1  C   -0.098753   0.096929   0.001438  -0.032533   0.003445  -0.005201
     2  H   -0.000830   0.000207   0.000063  -0.000200   0.000042   0.000041
     3  C   -0.261728   0.165646   0.001475  -0.080853   0.014520  -0.024871
     4  C    0.225622  -0.336449   0.003671   0.109626  -0.011277   0.030788
     5  O    0.051216  -0.072914   0.006636  -0.019382  -0.002443   0.000533
     6  O    0.142763  -0.040859  -0.090427  -0.015833   0.016596  -0.000497
     7  C    5.452749   0.010257   0.447468   0.411895  -0.056448  -0.032378
     8  C    0.010257   5.477700  -0.064031  -0.036483   0.405915   0.413270
     9  H    0.447468  -0.064031   0.539117  -0.038500   0.000208  -0.011801
    10  H    0.411895  -0.036483  -0.038500   0.524323  -0.006432   0.006777
    11  H   -0.056448   0.405915   0.000208  -0.006432   0.537330  -0.035659
    12  H   -0.032378   0.413270  -0.011801   0.006777  -0.035659   0.544633
    13  H    0.003747   0.379048   0.011838  -0.011992  -0.034550  -0.045406
    14  O   -0.014721   0.023883   0.000573  -0.002470   0.001834  -0.002314
    15  H    0.001261   0.001962   0.000454  -0.000617   0.000171  -0.001238
              13         14         15
     1  C    0.004661  -0.349484  -0.096975
     2  H   -0.000250  -0.007417  -0.003510
     3  C    0.015617   0.441442   0.117690
     4  C   -0.049495  -0.199962   0.000227
     5  O    0.008062  -0.003493   0.000334
     6  O   -0.018569   0.036349  -0.003753
     7  C    0.003747  -0.014721   0.001261
     8  C    0.379048   0.023883   0.001962
     9  H    0.011838   0.000573   0.000454
    10  H   -0.011992  -0.002470  -0.000617
    11  H   -0.034550   0.001834   0.000171
    12  H   -0.045406  -0.002314  -0.001238
    13  H    0.541247  -0.000612   0.000858
    14  O   -0.000612   8.093504   0.246927
    15  H    0.000858   0.246927   0.511863
          Atomic-Atomic Spin Densities.
               1          2          3          4          5          6
     1  C    1.672326   0.059300  -0.569455  -0.081746  -0.000418  -0.032959
     2  H    0.059300  -0.016062  -0.048067  -0.014368   0.000015  -0.000727
     3  C   -0.569455  -0.048067   0.087139   0.237221  -0.008425   0.003711
     4  C   -0.081746  -0.014368   0.237221  -0.278938   0.011675   0.015206
     5  O   -0.000418   0.000015  -0.008425   0.011675  -0.013791   0.000007
     6  O   -0.032959  -0.000727   0.003711   0.015206   0.000007   0.004208
     7  C   -0.028120  -0.000539  -0.011200   0.015574  -0.000992   0.005612
     8  C    0.025364   0.000271   0.017553  -0.024105   0.001376  -0.005523
     9  H   -0.000879  -0.000024  -0.002265   0.001215  -0.000003   0.000187
    10  H    0.001988   0.000009   0.004276  -0.006546   0.000049   0.000559
    11  H    0.000730   0.000007   0.000285  -0.000208   0.000043  -0.000273
    12  H   -0.002961  -0.000035  -0.002347   0.003837  -0.000051   0.000491
    13  H   -0.008323  -0.000071  -0.014271   0.015950  -0.000527   0.000960
    14  O   -0.333369  -0.004356  -0.000745   0.169785   0.001617   0.007714
    15  H    0.039070   0.000730  -0.007619  -0.020088  -0.000135  -0.001044
               7          8          9         10         11         12
     1  C   -0.028120   0.025364  -0.000879   0.001988   0.000730  -0.002961
     2  H   -0.000539   0.000271  -0.000024   0.000009   0.000007  -0.000035
     3  C   -0.011200   0.017553  -0.002265   0.004276   0.000285  -0.002347
     4  C    0.015574  -0.024105   0.001215  -0.006546  -0.000208   0.003837
     5  O   -0.000992   0.001376  -0.000003   0.000049   0.000043  -0.000051
     6  O    0.005612  -0.005523   0.000187   0.000559  -0.000273   0.000491
     7  C    0.017876  -0.012664   0.001430  -0.000736  -0.000781   0.001547
     8  C   -0.012664   0.008325  -0.001037   0.000493   0.000973  -0.001669
     9  H    0.001430  -0.001037   0.000607   0.000092  -0.000108   0.000095
    10  H   -0.000736   0.000493   0.000092  -0.000724   0.000164  -0.000011
    11  H   -0.000781   0.000973  -0.000108   0.000164  -0.000166  -0.000143
    12  H    0.001547  -0.001669   0.000095  -0.000011  -0.000143   0.000488
    13  H    0.005696  -0.004020   0.000601   0.000135  -0.000441   0.000308
    14  O    0.009764  -0.003983   0.000585   0.000107  -0.000156   0.000052
    15  H   -0.001748   0.000900  -0.000204   0.000048   0.000031  -0.000125
              13         14         15
     1  C   -0.008323  -0.333369   0.039070
     2  H   -0.000071  -0.004356   0.000730
     3  C   -0.014271  -0.000745  -0.007619
     4  C    0.015950   0.169785  -0.020088
     5  O   -0.000527   0.001617  -0.000135
     6  O    0.000960   0.007714  -0.001044
     7  C    0.005696   0.009764  -0.001748
     8  C   -0.004020  -0.003983   0.000900
     9  H    0.000601   0.000585  -0.000204
    10  H    0.000135   0.000107   0.000048
    11  H   -0.000441  -0.000156   0.000031
    12  H    0.000308   0.000052  -0.000125
    13  H    0.001924   0.001205  -0.000519
    14  O    0.001205   0.722274   0.002890
    15  H   -0.000519   0.002890  -0.022227
 Mulliken charges and spin densities:
               1          2
     1  C   -0.044830   0.740548
     2  H    0.218910  -0.023917
     3  C    0.225788  -0.314210
     4  C   -0.375436   0.044463
     5  O   -0.190781  -0.009562
     6  O    0.001880  -0.001869
     7  C   -0.282119   0.000717
     8  C   -0.424080   0.002252
     9  H    0.191818   0.000293
    10  H    0.192673  -0.000098
    11  H    0.166748  -0.000041
    12  H    0.163324  -0.000525
    13  H    0.195796  -0.001393
    14  O   -0.264038   0.573383
    15  H    0.224346  -0.010041
 Sum of Mulliken charges =  -0.00000   1.00000
 Mulliken charges and spin densities with hydrogens summed into heavy atoms:
               1          2
     1  C    0.174080   0.716631
     3  C    0.225788  -0.314210
     4  C   -0.375436   0.044463
     5  O   -0.190781  -0.009562
     6  O    0.001880  -0.001869
     7  C    0.102372   0.000912
     8  C    0.101788   0.000293
    14  O   -0.039692   0.563342
 APT charges:
               1
     1  C   -0.121916
     2  H    0.241117
     3  C   -0.316791
     4  C    1.424508
     5  O   -0.760959
     6  O   -0.941842
     7  C    0.534489
     8  C   -0.042763
     9  H   -0.014644
    10  H   -0.010701
    11  H    0.011226
    12  H    0.012436
    13  H    0.031011
    14  O   -0.282346
    15  H    0.237175
 Sum of APT charges =   0.00000
 APT charges with hydrogens summed into heavy atoms:
               1
     1  C    0.119201
     3  C   -0.316791
     4  C    1.424508
     5  O   -0.760959
     6  O   -0.941842
     7  C    0.509144
     8  C    0.011910
    14  O   -0.045171
 Electronic spatial extent (au):  <R**2>=           1062.4151
 Charge=              0.0000 electrons
 Dipole moment (field-independent basis, Debye):
    X=              0.0299    Y=              0.1026    Z=             -3.1880  Tot=              3.1898
 Quadrupole moment (field-independent basis, Debye-Ang):
   XX=            -32.6352   YY=            -48.9700   ZZ=            -51.1858
   XY=              2.1021   XZ=              3.5370   YZ=             -0.3818
 Traceless Quadrupole moment (field-independent basis, Debye-Ang):
   XX=             11.6285   YY=             -4.7063   ZZ=             -6.9221
   XY=              2.1021   XZ=              3.5370   YZ=             -0.3818
 Octapole moment (field-independent basis, Debye-Ang**2):
  XXX=            -28.1865  YYY=              7.9537  ZZZ=             -1.0987  XYY=              1.8513
  XXY=             -7.9582  XXZ=            -15.5747  XZZ=              3.4946  YZZ=              4.1631
  YYZ=             -9.9947  XYZ=              5.0990
 Hexadecapole moment (field-independent basis, Debye-Ang**3):
 XXXX=           -758.4436 YYYY=           -251.9824 ZZZZ=           -165.7833 XXXY=             17.3456
 XXXZ=             36.8175 YYYX=            -17.7579 YYYZ=            -11.9137 ZZZX=             -7.3681
 ZZZY=              0.0256 XXYY=           -211.0590 XXZZ=           -188.9117 YYZZ=            -76.6715
 XXYZ=             -4.7302 YYXZ=              8.7164 ZZXY=             -2.9853
 N-N= 3.633193426390D+02 E-N=-1.711268561421D+03  KE= 4.187416677594D+02
  Exact polarizability:  89.888   7.381  73.661   5.358   2.050  58.721
 Approx polarizability:  94.572   8.546  84.452   8.958  -0.785  75.749
                          Isotropic Fermi Contact Couplings
        Atom                 a.u.       MegaHertz       Gauss      10(-4) cm-1
     1  C(13)              0.08775      98.64615      35.19940      32.90481
     2  H(1)              -0.01038     -46.39245     -16.55398     -15.47485
     3  C(13)             -0.00845      -9.49896      -3.38947      -3.16851
     4  C(13)              0.02614      29.38370      10.48483       9.80135
     5  O(17)             -0.00369       2.23445       0.79731       0.74533
     6  O(17)              0.00168      -1.01712      -0.36293      -0.33928
     7  C(13)              0.00005       0.05534       0.01975       0.01846
     8  C(13)             -0.00064      -0.72390      -0.25831      -0.24147
     9  H(1)               0.00005       0.20504       0.07316       0.06839
    10  H(1)              -0.00005      -0.22344      -0.07973      -0.07453
    11  H(1)              -0.00002      -0.07738      -0.02761      -0.02581
    12  H(1)               0.00002       0.07692       0.02745       0.02566
    13  H(1)               0.00001       0.05113       0.01824       0.01706
    14  O(17)              0.11678     -70.78909     -25.25931     -23.61270
    15  H(1)              -0.00997     -44.55296     -15.89760     -14.86127
 --------------------------------------------------------
       Center         ----  Spin Dipole Couplings  ----
                      3XX-RR        3YY-RR        3ZZ-RR
 --------------------------------------------------------
     1   Atom       -0.371204      0.591153     -0.219949
     2   Atom        0.048380     -0.010342     -0.038037
     3   Atom        0.125237     -0.062721     -0.062515
     4   Atom        0.014462      0.005975     -0.020437
     5   Atom        0.017657     -0.020748      0.003090
     6   Atom        0.008176     -0.018250      0.010074
     7   Atom        0.003064     -0.001088     -0.001976
     8   Atom        0.002552     -0.001251     -0.001301
     9   Atom        0.001311     -0.000746     -0.000565
    10   Atom        0.001370     -0.000198     -0.001172
    11   Atom        0.001397     -0.000659     -0.000738
    12   Atom        0.003254     -0.001614     -0.001640
    13   Atom        0.002863     -0.001354     -0.001509
    14   Atom       -0.755994      1.510032     -0.754038
    15   Atom       -0.074504     -0.003722      0.078226
 --------------------------------------------------------
                        XY            XZ            YZ
 --------------------------------------------------------
     1   Atom       -0.102828     -0.048458      0.186407
     2   Atom        0.004324      0.019453      0.009122
     3   Atom       -0.016127      0.038720     -0.000771
     4   Atom       -0.020264      0.002857      0.003176
     5   Atom       -0.059656     -0.030359     -0.025271
     6   Atom       -0.011645     -0.012999      0.002597
     7   Atom       -0.002279     -0.000804      0.000375
     8   Atom       -0.000959     -0.000120      0.000079
     9   Atom       -0.000596     -0.000900      0.000292
    10   Atom       -0.001076     -0.000136      0.000103
    11   Atom       -0.000227      0.000086      0.000035
    12   Atom        0.000314     -0.000582      0.000073
    13   Atom       -0.001004      0.001278     -0.000171
    14   Atom        1.059705      0.420875      1.088525
    15   Atom        0.012221      0.018723     -0.062099
 --------------------------------------------------------


 ---------------------------------------------------------------------------------
              Anisotropic Spin Dipole Couplings in Principal Axis System
 ---------------------------------------------------------------------------------

       Atom             a.u.   MegaHertz   Gauss  10(-4) cm-1        Axes

              Baa    -0.3883   -52.104   -18.592   -17.380  0.9753  0.0620  0.2121
     1 C(13)  Bbb    -0.2558   -34.321   -12.247   -11.448 -0.1924 -0.2332  0.9532
              Bcc     0.6440    86.425    30.838    28.828 -0.1086  0.9705  0.2155
 
              Baa    -0.0441   -23.549    -8.403    -7.855 -0.1896 -0.2332  0.9538
     2 H(1)   Bbb    -0.0090    -4.814    -1.718    -1.606 -0.1434  0.9676  0.2080
              Bcc     0.0532    28.362    10.120     9.461  0.9713  0.0973  0.2169
 
              Baa    -0.0710    -9.527    -3.399    -3.178 -0.2087 -0.3207  0.9239
     3 C(13)  Bbb    -0.0632    -8.482    -3.027    -2.829  0.0128  0.9437  0.3305
              Bcc     0.1342    18.009     6.426     6.007  0.9779 -0.0808  0.1928
 
              Baa    -0.0220    -2.954    -1.054    -0.985 -0.2217 -0.2669  0.9379
     4 C(13)  Bbb    -0.0089    -1.195    -0.426    -0.399  0.5899  0.7292  0.3470
              Bcc     0.0309     4.150     1.481     1.384  0.7765 -0.6301  0.0042
 
              Baa    -0.0817     5.909     2.108     1.971  0.5584  0.7187  0.4143
     5 O(17)  Bbb     0.0186    -1.347    -0.481    -0.449 -0.0789 -0.4511  0.8890
              Bcc     0.0631    -4.562    -1.628    -1.522  0.8258 -0.5291 -0.1952
 
              Baa    -0.0228     1.651     0.589     0.551  0.3788  0.9223  0.0769
     6 O(17)  Bbb    -0.0017     0.122     0.044     0.041  0.6035 -0.3091  0.7350
              Bcc     0.0245    -1.773    -0.633    -0.592  0.7017 -0.2320 -0.6737
 
              Baa    -0.0021    -0.284    -0.101    -0.095 -0.1487 -0.6120  0.7768
     7 C(13)  Bbb    -0.0021    -0.279    -0.100    -0.093  0.3980  0.6820  0.6135
              Bcc     0.0042     0.563     0.201     0.188  0.9052 -0.4004 -0.1421
 
              Baa    -0.0015    -0.200    -0.071    -0.067  0.2158  0.9425 -0.2551
     8 C(13)  Bbb    -0.0013    -0.173    -0.062    -0.058  0.0903  0.2409  0.9664
              Bcc     0.0028     0.374     0.133     0.125  0.9723 -0.2316 -0.0331
 
              Baa    -0.0010    -0.517    -0.184    -0.172  0.1296 -0.6433  0.7546
     9 H(1)   Bbb    -0.0009    -0.466    -0.166    -0.155  0.4222  0.7243  0.5451
              Bcc     0.0018     0.983     0.351     0.328  0.8972 -0.2480 -0.3655
 
              Baa    -0.0012    -0.631    -0.225    -0.211  0.0172 -0.0852  0.9962
    10 H(1)   Bbb    -0.0007    -0.396    -0.141    -0.132  0.4562  0.8873  0.0680
              Bcc     0.0019     1.028     0.367     0.343  0.8897 -0.4533 -0.0541
 
              Baa    -0.0008    -0.408    -0.146    -0.136 -0.0841 -0.4695  0.8789
    11 H(1)   Bbb    -0.0007    -0.352    -0.126    -0.117  0.0767  0.8764  0.4755
              Bcc     0.0014     0.760     0.271     0.254  0.9935 -0.1075  0.0377
 
              Baa    -0.0018    -0.953    -0.340    -0.318  0.1291 -0.5787  0.8053
    12 H(1)   Bbb    -0.0016    -0.830    -0.296    -0.277  0.0173  0.8133  0.5816
              Bcc     0.0033     1.782     0.636     0.595  0.9915  0.0612 -0.1150
 
              Baa    -0.0019    -1.005    -0.359    -0.335 -0.3048 -0.2832  0.9093
    13 H(1)   Bbb    -0.0015    -0.822    -0.293    -0.274  0.1173  0.9363  0.3309
              Bcc     0.0034     1.827     0.652     0.609  0.9452 -0.2075  0.2522
 
              Baa    -1.1937    86.379    30.822    28.813  0.2235 -0.4381  0.8707
    14 O(17)  Bbb    -1.1713    84.753    30.242    28.271  0.9123 -0.2204 -0.3451
              Bcc     2.3650  -171.132   -61.064   -57.083  0.3432  0.8715  0.3504
 
              Baa    -0.0834   -44.510   -15.882   -14.847  0.9194 -0.3196 -0.2293
    15 H(1)   Bbb    -0.0288   -15.393    -5.493    -5.134  0.3891  0.8248  0.4103
              Bcc     0.1123    59.903    21.375    19.981  0.0580 -0.4664  0.8827
 

 ---------------------------------------------------------------------------------

 Calling FoFJK, ICntrl=    100127 FMM=F ISym2X=0 I1Cent= 0 IOpClX= 1 NMat=1 NMatS=1 NMatT=0.
 Full mass-weighted force constant matrix:
 Low frequencies --- -701.1340  -12.5112   -0.0002    0.0005    0.0007   17.2672
 Low frequencies ---   27.6802   76.1351   81.7817
 ******    1 imaginary frequencies (negative Signs) ****** 
 Diagonal vibrational polarizability:
      287.9334573      37.6714343      23.2377616
 Harmonic frequencies (cm**-1), IR intensities (KM/Mole), Raman scattering
 activities (A**4/AMU), depolarization ratios for plane and unpolarized
 incident light, reduced masses (AMU), force constants (mDyne/A),
 and normal coordinates:
                      1                      2                      3
                      A                      A                      A
 Frequencies --   -701.1340                57.7301                76.6060
 Red. masses --     12.5917                 2.4005                 3.4628
 Frc consts  --      3.6470                 0.0047                 0.0120
 IR Inten    --     16.4734                21.0391                 2.4781
  Atom  AN      X      Y      Z        X      Y      Z        X      Y      Z
     1   6     0.04  -0.12  -0.01    -0.04  -0.01   0.16    -0.01   0.14   0.00
     2   1     0.02   0.01   0.01    -0.06   0.04   0.25    -0.01   0.26   0.01
     3   6     0.04   0.80   0.22    -0.00  -0.02   0.04     0.02   0.01   0.00
     4   6    -0.01   0.02   0.00    -0.00  -0.03  -0.00    -0.01  -0.10  -0.02
     5   8    -0.02  -0.02  -0.02     0.01  -0.13  -0.07    -0.04  -0.12  -0.02
     6   8     0.00  -0.01  -0.00    -0.01   0.08   0.04     0.00  -0.14  -0.02
     7   6     0.00  -0.01  -0.00    -0.01   0.06  -0.00     0.01   0.02   0.07
     8   6    -0.00  -0.00  -0.00     0.01  -0.01   0.07    -0.19   0.23  -0.06
     9   1     0.00  -0.00  -0.00    -0.02   0.14  -0.00     0.06  -0.09   0.09
    10   1     0.01  -0.00  -0.00    -0.00   0.03  -0.08     0.08   0.10   0.24
    11   1    -0.00  -0.00  -0.00     0.01  -0.02   0.05    -0.19   0.35   0.08
    12   1    -0.01  -0.00  -0.00     0.01   0.02   0.15    -0.24   0.14  -0.25
    13   1    -0.00   0.00  -0.00     0.02  -0.08   0.07    -0.29   0.36  -0.09
    14   8    -0.03  -0.48  -0.14    -0.01   0.05  -0.18     0.18  -0.03   0.04
    15   1     0.05  -0.19   0.02     0.79  -0.15  -0.35     0.34  -0.01   0.03
                      4                      5                      6
                      A                      A                      A
 Frequencies --    100.1978               133.6319               183.8516
 Red. masses --      2.2573                 2.0127                 1.9355
 Frc consts  --      0.0134                 0.0212                 0.0385
 IR Inten    --     33.1718                21.1694                 9.4762
  Atom  AN      X      Y      Z        X      Y      Z        X      Y      Z
     1   6     0.02   0.02  -0.14     0.02   0.03  -0.09    -0.04  -0.03   0.10
     2   1     0.04   0.07  -0.25     0.04   0.09  -0.17    -0.07  -0.02   0.25
     3   6    -0.01  -0.01   0.01     0.01  -0.03   0.02    -0.00   0.00  -0.06
     4   6    -0.02  -0.01   0.06     0.01   0.01   0.03     0.01   0.04  -0.09
     5   8    -0.03  -0.06   0.03     0.08   0.13   0.07    -0.00   0.10  -0.05
     6   8    -0.01   0.06   0.09    -0.05  -0.06  -0.05     0.05  -0.01  -0.09
     7   6    -0.01  -0.03   0.02    -0.03   0.03  -0.08     0.04  -0.06   0.05
     8   6     0.13   0.05  -0.15    -0.10  -0.06   0.06    -0.01  -0.01   0.03
     9   1    -0.06  -0.20  -0.01    -0.06   0.19  -0.08     0.14  -0.16   0.09
    10   1    -0.07   0.01   0.14     0.05  -0.01  -0.22    -0.05  -0.03   0.15
    11   1     0.12  -0.06  -0.15    -0.08   0.04  -0.03    -0.07  -0.25   0.41
    12   1     0.24   0.02  -0.29    -0.23  -0.02   0.23     0.36  -0.02  -0.21
    13   1     0.13   0.25  -0.13    -0.02  -0.27   0.07    -0.36   0.26  -0.10
    14   8    -0.10  -0.02   0.07     0.01  -0.04   0.05    -0.07  -0.03   0.07
    15   1     0.69  -0.08  -0.04     0.76  -0.11  -0.06     0.40  -0.01   0.04
                      7                      8                      9
                      A                      A                      A
 Frequencies --    214.9037               231.6833               273.9925
 Red. masses --      6.5672                 1.7230                 2.8992
 Frc consts  --      0.1787                 0.0545                 0.1282
 IR Inten    --      7.7481                 4.3392                 5.5399
  Atom  AN      X      Y      Z        X      Y      Z        X      Y      Z
     1   6    -0.13  -0.11  -0.03    -0.07   0.02   0.07    -0.08   0.26   0.01
     2   1    -0.12  -0.17  -0.02    -0.11   0.07   0.22    -0.12   0.71   0.09
     3   6    -0.11  -0.14  -0.08    -0.02  -0.02  -0.10    -0.00  -0.10  -0.01
     4   6    -0.09   0.04   0.00    -0.02   0.01  -0.06     0.03  -0.06   0.02
     5   8    -0.08   0.12   0.05    -0.09   0.06  -0.00     0.08   0.02   0.05
     6   8    -0.10   0.19   0.07     0.06  -0.01  -0.01     0.01  -0.02   0.02
     7   6    -0.10   0.10   0.00     0.05  -0.01   0.05     0.02   0.06  -0.03
     8   6     0.10   0.00   0.00     0.08   0.03  -0.01     0.06   0.01   0.02
     9   1    -0.14   0.08  -0.02     0.07  -0.06   0.05    -0.02   0.13  -0.04
    10   1    -0.17   0.07  -0.03     0.04   0.00   0.09     0.08   0.04  -0.09
    11   1     0.05  -0.37   0.17     0.15   0.35  -0.45     0.04  -0.16   0.13
    12   1     0.50   0.06  -0.08    -0.38   0.00   0.18     0.26   0.04  -0.01
    13   1    -0.08   0.20  -0.06     0.48  -0.21   0.15    -0.05   0.08  -0.03
    14   8     0.41  -0.22  -0.04    -0.01  -0.07   0.03    -0.10  -0.16  -0.08
    15   1     0.06  -0.11   0.04     0.17  -0.01   0.04    -0.38  -0.15  -0.04
                     10                     11                     12
                      A                      A                      A
 Frequencies --    340.0950               433.4925               538.0849
 Red. masses --      3.0507                 3.6629                 1.4276
 Frc consts  --      0.2079                 0.4055                 0.2435
 IR Inten    --     12.1454                 2.0123                34.2206
  Atom  AN      X      Y      Z        X      Y      Z        X      Y      Z
     1   6    -0.01   0.04  -0.03     0.07   0.02   0.05     0.07  -0.15  -0.02
     2   1     0.00   0.13  -0.10     0.03   0.16   0.22    -0.05   0.92   0.28
     3   6    -0.02  -0.05   0.07     0.11  -0.03  -0.13     0.05   0.01  -0.03
     4   6     0.02   0.05  -0.02     0.07   0.06   0.05    -0.00  -0.02  -0.01
     5   8     0.21   0.03  -0.10    -0.10  -0.01   0.07    -0.01   0.00   0.01
     6   8    -0.04   0.14  -0.02     0.09   0.19   0.14    -0.03   0.00  -0.01
     7   6    -0.09  -0.15   0.16     0.06  -0.11  -0.13    -0.05   0.02   0.02
     8   6    -0.08  -0.03   0.00    -0.19  -0.08  -0.09     0.00   0.00   0.00
     9   1     0.07  -0.45   0.20    -0.02  -0.08  -0.16    -0.03  -0.02   0.03
    10   1    -0.37  -0.10   0.41    -0.01  -0.14  -0.17    -0.07   0.02   0.04
    11   1    -0.04   0.20  -0.21    -0.19   0.25   0.20     0.00  -0.07  -0.06
    12   1    -0.36  -0.11  -0.04    -0.41  -0.16  -0.17     0.05   0.02   0.02
    13   1     0.12  -0.03   0.09    -0.44  -0.17  -0.21     0.06   0.02   0.03
    14   8     0.01  -0.04  -0.03    -0.01  -0.07  -0.01     0.01   0.04   0.01
    15   1    -0.08  -0.08  -0.04    -0.02   0.01   0.03    -0.02   0.07   0.03
                     13                     14                     15
                      A                      A                      A
 Frequencies --    571.2044               600.9439               713.3178
 Red. masses --      3.6912                 5.5433                 1.3154
 Frc consts  --      0.7096                 1.1795                 0.3944
 IR Inten    --      2.8679                10.4417                39.9815
  Atom  AN      X      Y      Z        X      Y      Z        X      Y      Z
     1   6    -0.15  -0.11  -0.08    -0.24  -0.08  -0.06     0.03   0.04  -0.14
     2   1    -0.15   0.54  -0.27    -0.33  -0.04   0.31    -0.18  -0.25   0.93
     3   6    -0.21  -0.04   0.25    -0.15   0.17  -0.31    -0.02  -0.01   0.07
     4   6    -0.02   0.07  -0.02    -0.04  -0.07   0.09     0.00  -0.00  -0.01
     5   8    -0.02   0.02  -0.05     0.29  -0.03   0.00    -0.01   0.00   0.00
     6   8     0.12   0.02   0.02     0.01  -0.06   0.19    -0.00   0.00   0.00
     7   6     0.22  -0.06  -0.06     0.04  -0.03  -0.00     0.01  -0.00  -0.00
     8   6     0.01  -0.00  -0.01    -0.01  -0.00  -0.02     0.00   0.00   0.00
     9   1     0.14   0.04  -0.09    -0.14   0.15  -0.06     0.00  -0.00  -0.00
    10   1     0.25  -0.08  -0.13     0.20  -0.06  -0.15     0.00  -0.00  -0.00
    11   1     0.01   0.27   0.24    -0.01   0.08   0.07     0.00   0.01   0.01
    12   1    -0.17  -0.07  -0.07    -0.05  -0.04  -0.09    -0.00  -0.00  -0.00
    13   1    -0.20  -0.08  -0.11    -0.08   0.03  -0.05    -0.00  -0.00  -0.00
    14   8     0.03   0.04   0.00     0.02   0.07   0.02     0.00   0.01   0.00
    15   1    -0.02  -0.16  -0.08     0.09   0.48   0.21    -0.01  -0.10  -0.05
                     16                     17                     18
                      A                      A                      A
 Frequencies --    767.5406               800.3065               884.4551
 Red. masses --      9.4777                 1.2132                 1.5606
 Frc consts  --      3.2897                 0.4578                 0.7193
 IR Inten    --     36.5727                 5.3871                40.6502
  Atom  AN      X      Y      Z        X      Y      Z        X      Y      Z
     1   6    -0.01  -0.00  -0.01     0.03   0.01   0.01    -0.02   0.00  -0.01
     2   1    -0.06   0.16   0.20     0.04   0.00  -0.01    -0.03  -0.03   0.03
     3   6    -0.00  -0.10  -0.09     0.02  -0.01   0.02    -0.01  -0.02   0.03
     4   6     0.07   0.69   0.36    -0.02  -0.01  -0.05     0.03  -0.03   0.04
     5   8    -0.01  -0.17  -0.14    -0.01   0.03  -0.04    -0.01  -0.04   0.07
     6   8    -0.01  -0.20  -0.06     0.01  -0.00   0.04    -0.04   0.06  -0.11
     7   6    -0.05  -0.01   0.03    -0.03  -0.04   0.06     0.04  -0.03  -0.01
     8   6    -0.02   0.01   0.02    -0.01  -0.03   0.02     0.04   0.01   0.05
     9   1    -0.05   0.21   0.05    -0.09   0.51   0.08     0.14   0.05   0.04
    10   1     0.13  -0.04  -0.12     0.12  -0.21  -0.44    -0.11  -0.10  -0.12
    11   1    -0.01  -0.11  -0.13     0.02   0.08  -0.17     0.06   0.21   0.06
    12   1     0.09   0.00  -0.07    -0.06  -0.20  -0.40    -0.08  -0.10  -0.15
    13   1     0.14   0.17   0.10     0.12   0.42   0.12     0.01   0.18   0.05
    14   8     0.01  -0.10  -0.02    -0.00  -0.00   0.00    -0.01  -0.03  -0.05
    15   1     0.06   0.08   0.05    -0.01  -0.08  -0.03     0.13   0.80   0.33
                     19                     20                     21
                      A                      A                      A
 Frequencies --    902.3527               920.4009              1071.3848
 Red. masses --      1.8918                 2.6669                 4.0679
 Frc consts  --      0.9076                 1.3311                 2.7511
 IR Inten    --     33.4881                 7.7241                24.7085
  Atom  AN      X      Y      Z        X      Y      Z        X      Y      Z
     1   6     0.04   0.01  -0.00    -0.11  -0.02  -0.03     0.07   0.01   0.02
     2   1     0.04  -0.01   0.01    -0.12  -0.02  -0.04     0.07   0.01   0.04
     3   6     0.00  -0.05   0.09    -0.06   0.03  -0.00     0.03  -0.00  -0.03
     4   6    -0.02   0.01  -0.07     0.15  -0.03   0.03    -0.15   0.00   0.05
     5   8    -0.01   0.05  -0.08    -0.01  -0.06   0.11     0.02   0.00  -0.01
     6   8     0.08  -0.05   0.12     0.15   0.06  -0.09    -0.21   0.04  -0.03
     7   6    -0.04   0.05   0.03    -0.04   0.09   0.05     0.32   0.12   0.16
     8   6    -0.07  -0.02  -0.06    -0.15  -0.08  -0.06    -0.07  -0.14  -0.12
     9   1    -0.12   0.01  -0.01     0.30   0.17   0.20     0.36   0.24   0.19
    10   1     0.15   0.12   0.12    -0.03   0.10   0.06     0.40   0.18   0.25
    11   1    -0.09  -0.31  -0.16    -0.14  -0.50  -0.52    -0.07  -0.24  -0.20
    12   1     0.11   0.09   0.13     0.16  -0.04  -0.12    -0.04  -0.17  -0.20
    13   1     0.03  -0.17  -0.03     0.22   0.12   0.12    -0.05  -0.24  -0.14
    14   8    -0.01  -0.03  -0.05     0.00   0.03   0.01     0.00  -0.01  -0.00
    15   1     0.13   0.75   0.30    -0.02  -0.14  -0.06    -0.02  -0.00   0.00
                     22                     23                     24
                      A                      A                      A
 Frequencies --   1127.8930              1202.6449              1274.4010
 Red. masses --      2.0928                 1.7805                 4.5130
 Frc consts  --      1.5686                 1.5173                 4.3185
 IR Inten    --     20.9983                 9.3217               550.5991
  Atom  AN      X      Y      Z        X      Y      Z        X      Y      Z
     1   6    -0.01  -0.00  -0.00    -0.02  -0.00  -0.00    -0.09  -0.01  -0.02
     2   1    -0.02  -0.00  -0.01    -0.02  -0.00  -0.01    -0.09  -0.02  -0.06
     3   6    -0.01   0.00   0.01    -0.00   0.01  -0.00    -0.00   0.01   0.01
     4   6     0.03   0.00  -0.00     0.07  -0.00  -0.02     0.42   0.05  -0.17
     5   8    -0.00  -0.00   0.00    -0.01  -0.02   0.03    -0.06   0.01  -0.01
     6   8     0.05  -0.04  -0.02    -0.01   0.04  -0.06    -0.22  -0.05   0.10
     7   6    -0.11   0.18   0.10    -0.03  -0.10   0.16     0.12   0.04   0.03
     8   6     0.11  -0.14  -0.07     0.03   0.07  -0.11    -0.02  -0.03   0.06
     9   1    -0.09   0.08   0.10    -0.33   0.37   0.07    -0.63  -0.21  -0.30
    10   1    -0.20   0.16   0.08     0.29  -0.20  -0.26    -0.02   0.09   0.19
    11   1     0.10   0.39   0.30    -0.03  -0.14   0.26     0.00   0.00  -0.15
    12   1    -0.41  -0.31  -0.22    -0.01   0.24   0.35     0.01  -0.15  -0.24
    13   1    -0.37  -0.14  -0.29    -0.08  -0.41  -0.20     0.01   0.09   0.08
    14   8    -0.00   0.00   0.00    -0.00   0.00   0.00    -0.00   0.01   0.00
    15   1     0.00  -0.00  -0.00     0.01  -0.00  -0.00     0.04   0.01   0.00
                     25                     26                     27
                      A                      A                      A
 Frequencies --   1344.1978              1401.3369              1430.2299
 Red. masses --      1.2006                 1.2690                 1.3627
 Frc consts  --      1.2781                 1.4683                 1.6423
 IR Inten    --     65.1453                17.7737                12.7926
  Atom  AN      X      Y      Z        X      Y      Z        X      Y      Z
     1   6     0.01   0.00   0.00    -0.01  -0.00  -0.00    -0.01  -0.00  -0.00
     2   1     0.01   0.00   0.01    -0.01  -0.00  -0.01    -0.01  -0.00  -0.01
     3   6    -0.00   0.00  -0.00     0.00   0.00   0.00     0.00   0.00   0.00
     4   6    -0.05  -0.01   0.02     0.05   0.00  -0.01     0.04   0.00  -0.01
     5   8     0.01  -0.01   0.02    -0.01   0.01  -0.01    -0.01   0.01  -0.01
     6   8     0.04   0.04  -0.06    -0.04   0.00   0.03    -0.03   0.01   0.02
     7   6    -0.03  -0.01   0.00    -0.05  -0.03  -0.03    -0.08  -0.06  -0.06
     8   6    -0.00  -0.04   0.04    -0.02  -0.09  -0.07     0.08   0.06   0.06
     9   1    -0.54  -0.17  -0.23     0.35   0.22   0.16     0.43   0.22   0.18
    10   1     0.67   0.21   0.25     0.29   0.14   0.24     0.41   0.16   0.27
    11   1     0.01   0.07  -0.03    -0.00   0.40   0.30     0.06  -0.31  -0.19
    12   1    -0.02  -0.10  -0.09     0.17   0.15   0.37    -0.33  -0.13  -0.19
    13   1     0.02   0.17   0.08     0.21   0.37   0.09    -0.31  -0.16  -0.14
    14   8     0.00  -0.00  -0.00    -0.00   0.00   0.00    -0.00   0.00   0.00
    15   1    -0.01  -0.00  -0.00     0.00  -0.00  -0.00     0.01  -0.00  -0.00
                     28                     29                     30
                      A                      A                      A
 Frequencies --   1491.1888              1501.8227              1514.3662
 Red. masses --      1.0404                 1.0531                 1.0923
 Frc consts  --      1.3630                 1.3994                 1.4759
 IR Inten    --     10.7431                 1.2821                19.3736
  Atom  AN      X      Y      Z        X      Y      Z        X      Y      Z
     1   6     0.00   0.00   0.00    -0.00  -0.00  -0.00     0.00   0.00   0.00
     2   1     0.00   0.00   0.00    -0.00  -0.00  -0.00     0.01   0.00   0.00
     3   6    -0.00   0.00   0.00     0.00  -0.00  -0.00    -0.00  -0.00  -0.00
     4   6    -0.00   0.00  -0.00     0.01  -0.00   0.00    -0.03   0.00  -0.00
     5   8     0.00  -0.00   0.00    -0.00   0.00  -0.00     0.01  -0.01   0.01
     6   8     0.00   0.00  -0.00    -0.01   0.00   0.00     0.02  -0.00  -0.01
     7   6    -0.01  -0.02   0.01     0.00   0.03   0.03     0.05  -0.04  -0.02
     8   6    -0.02  -0.01   0.04     0.03  -0.03  -0.00     0.02  -0.02  -0.00
     9   1    -0.00   0.14   0.03     0.11  -0.38   0.04    -0.29   0.48  -0.11
    10   1    -0.00   0.00   0.07     0.17  -0.11  -0.37    -0.38   0.05   0.41
    11   1     0.08   0.48  -0.44     0.04  -0.05  -0.34     0.02  -0.13  -0.19
    12   1     0.56   0.08  -0.07    -0.14   0.11   0.42    -0.19   0.07   0.30
    13   1    -0.34  -0.27  -0.15    -0.39   0.39  -0.15    -0.23   0.32  -0.08
    14   8     0.00   0.00  -0.00    -0.00   0.00  -0.00    -0.00  -0.00  -0.00
    15   1    -0.00  -0.00  -0.00     0.00   0.00   0.00    -0.00   0.00   0.00
                     31                     32                     33
                      A                      A                      A
 Frequencies --   1854.2922              2013.1166              3076.0983
 Red. masses --     11.7907                 6.8570                 1.0354
 Frc consts  --     23.8862                16.3727                 5.7726
 IR Inten    --    339.6665                60.8342                 8.9513
  Atom  AN      X      Y      Z        X      Y      Z        X      Y      Z
     1   6    -0.13  -0.02  -0.03    -0.39  -0.06  -0.10    -0.00  -0.00  -0.00
     2   1    -0.20  -0.04  -0.02    -0.66  -0.10  -0.16    -0.00  -0.00  -0.00
     3   6     0.14   0.00   0.02     0.56  -0.02   0.12     0.00   0.00   0.00
     4   6     0.21  -0.38   0.63    -0.14   0.08  -0.08     0.00   0.00  -0.00
     5   8    -0.16   0.25  -0.41     0.02  -0.03   0.04     0.00   0.00   0.00
     6   8     0.01   0.03  -0.06    -0.00  -0.00   0.01    -0.00  -0.00   0.00
     7   6     0.03  -0.01   0.02     0.00   0.00  -0.00    -0.00   0.00   0.00
     8   6    -0.01   0.01   0.00     0.00  -0.00  -0.00    -0.02  -0.04  -0.03
     9   1    -0.16   0.10  -0.06     0.02  -0.01   0.00     0.00  -0.00  -0.01
    10   1    -0.13  -0.04   0.08     0.01   0.00  -0.01     0.00  -0.02   0.01
    11   1    -0.00  -0.02  -0.06     0.00   0.00   0.01     0.62  -0.06   0.06
    12   1     0.04   0.01  -0.01    -0.00  -0.00   0.00    -0.13   0.52  -0.22
    13   1    -0.04  -0.05  -0.01     0.01   0.00   0.00    -0.22  -0.05   0.46
    14   8    -0.00   0.02   0.00    -0.00   0.03   0.01     0.00  -0.00   0.00
    15   1    -0.02   0.02   0.01    -0.01   0.02   0.01    -0.00  -0.00  -0.00
                     34                     35                     36
                      A                      A                      A
 Frequencies --   3107.9310              3151.8169              3155.3994
 Red. masses --      1.0609                 1.1017                 1.1047
 Frc consts  --      6.0377                 6.4480                 6.4802
 IR Inten    --     19.4659                14.1505                 2.8871
  Atom  AN      X      Y      Z        X      Y      Z        X      Y      Z
     1   6    -0.00  -0.00  -0.00    -0.00  -0.00  -0.00    -0.00  -0.00  -0.00
     2   1     0.00  -0.00   0.00     0.00  -0.00   0.00    -0.00  -0.00  -0.00
     3   6     0.00  -0.00  -0.00     0.00   0.00   0.00     0.00  -0.00  -0.00
     4   6    -0.00  -0.00   0.00    -0.00  -0.00   0.00     0.00  -0.00   0.00
     5   8    -0.00   0.00  -0.00     0.00   0.00  -0.00    -0.00   0.00  -0.00
     6   8     0.00   0.00  -0.00    -0.00   0.00  -0.00    -0.00  -0.00  -0.00
     7   6     0.03  -0.06  -0.02     0.01   0.01  -0.03    -0.01  -0.03   0.04
     8   6    -0.01   0.01  -0.00     0.06  -0.06   0.03     0.06   0.01  -0.05
     9   1    -0.21  -0.06   0.50    -0.13  -0.03   0.31     0.17   0.04  -0.39
    10   1    -0.14   0.75  -0.31     0.01  -0.06   0.02    -0.06   0.33  -0.13
    11   1     0.12  -0.01   0.01    -0.61   0.05  -0.05    -0.44   0.04  -0.05
    12   1     0.01  -0.06   0.03    -0.14   0.64  -0.26     0.03  -0.09   0.03
    13   1     0.01   0.01  -0.03     0.03  -0.01  -0.04    -0.28  -0.06   0.62
    14   8     0.00  -0.00  -0.00     0.00  -0.00  -0.00     0.00  -0.00  -0.00
    15   1    -0.00   0.00   0.00    -0.00   0.00   0.00    -0.00  -0.00   0.00
                     37                     38                     39
                      A                      A                      A
 Frequencies --   3175.7096              3462.3379              3832.0436
 Red. masses --      1.1071                 1.1370                 1.0676
 Frc consts  --      6.5785                 8.0305                 9.2369
 IR Inten    --     14.2690                77.4080                57.0415
  Atom  AN      X      Y      Z        X      Y      Z        X      Y      Z
     1   6    -0.00  -0.00  -0.00    -0.10  -0.01  -0.02     0.00   0.00   0.00
     2   1     0.00   0.00   0.00     0.97   0.05   0.20    -0.00  -0.00  -0.00
     3   6     0.00  -0.00   0.00     0.02   0.00   0.00    -0.00  -0.00  -0.00
     4   6    -0.00   0.00  -0.00    -0.00   0.00   0.00    -0.00   0.00  -0.00
     5   8     0.00  -0.00   0.00     0.00  -0.00  -0.00     0.00  -0.00   0.00
     6   8     0.00  -0.00   0.00     0.00  -0.00  -0.00     0.00   0.00  -0.00
     7   6     0.02   0.04  -0.06    -0.00  -0.00   0.00    -0.00   0.00   0.00
     8   6     0.02   0.03  -0.05     0.00  -0.00   0.00     0.00  -0.00   0.00
     9   1    -0.24  -0.05   0.58     0.00   0.00  -0.00     0.00   0.00  -0.00
    10   1     0.07  -0.38   0.15     0.00   0.00   0.00     0.00  -0.00   0.00
    11   1    -0.07   0.01  -0.02     0.00   0.00   0.00     0.00   0.00   0.00
    12   1     0.08  -0.35   0.13    -0.00   0.00  -0.00    -0.00   0.00  -0.00
    13   1    -0.21  -0.04   0.47    -0.00  -0.00  -0.00    -0.00  -0.00  -0.00
    14   8    -0.00   0.00  -0.00     0.00   0.00   0.00    -0.01   0.03  -0.06
    15   1     0.00  -0.00   0.00    -0.00  -0.00   0.00     0.09  -0.42   0.90

 -------------------
 - Thermochemistry -
 -------------------
 Temperature   298.150 Kelvin.  Pressure   1.00000 Atm.
 Atom     1 has atomic number  6 and mass  12.00000
 Atom     2 has atomic number  1 and mass   1.00783
 Atom     3 has atomic number  6 and mass  12.00000
 Atom     4 has atomic number  6 and mass  12.00000
 Atom     5 has atomic number  8 and mass  15.99491
 Atom     6 has atomic number  8 and mass  15.99491
 Atom     7 has atomic number  6 and mass  12.00000
 Atom     8 has atomic number  6 and mass  12.00000
 Atom     9 has atomic number  1 and mass   1.00783
 Atom    10 has atomic number  1 and mass   1.00783
 Atom    11 has atomic number  1 and mass   1.00783
 Atom    12 has atomic number  1 and mass   1.00783
 Atom    13 has atomic number  1 and mass   1.00783
 Atom    14 has atomic number  8 and mass  15.99491
 Atom    15 has atomic number  1 and mass   1.00783
 Molecular mass:   115.03952 amu.
 Principal axes and moments of inertia in atomic units:
                           1         2         3
     Eigenvalues --   487.300231377.535671525.04536
           X            0.99989   0.01240   0.00872
           Y           -0.01261   0.99962   0.02440
           Z           -0.00841  -0.02451   0.99966
 This molecule is an asymmetric top.
 Rotational symmetry number  1.
 Warning -- assumption of classical behavior for rotation
           may cause significant error
 Rotational temperatures (Kelvin)      0.17774     0.06288     0.05679
 Rotational constants (GHZ):           3.70355     1.31012     1.18340
    1 imaginary frequencies ignored.
 Zero-point vibrational energy     292684.4 (Joules/Mol)
                                   69.95324 (Kcal/Mol)
 Warning -- explicit consideration of  13 degrees of freedom as
           vibrations may cause significant error
 Vibrational temperatures:     83.06   110.22   144.16   192.27   264.52
          (Kelvin)            309.20   333.34   394.21   489.32   623.70
                              774.18   821.84   864.62  1026.31  1104.32
                             1151.46  1272.53  1298.28  1324.25  1541.48
                             1622.79  1730.34  1833.58  1934.00  2016.21
                             2057.78  2145.49  2160.79  2178.84  2667.91
                             2896.43  4425.82  4471.62  4534.76  4539.92
                             4569.14  4981.53  5513.46
 
 Zero-point correction=                           0.111478 (Hartree/Particle)
 Thermal correction to Energy=                    0.121144
 Thermal correction to Enthalpy=                  0.122088
 Thermal correction to Gibbs Free Energy=         0.075749
 Sum of electronic and zero-point Energies=           -420.092504
 Sum of electronic and thermal Energies=              -420.082838
 Sum of electronic and thermal Enthalpies=            -420.081894
 Sum of electronic and thermal Free Energies=         -420.128233
 
                     E (Thermal)             CV                S
                      KCal/Mol        Cal/Mol-Kelvin    Cal/Mol-Kelvin
 Total                   76.019             32.407             97.529
 Electronic               0.000              0.000              1.377
 Translational            0.889              2.981             40.136
 Rotational               0.889              2.981             28.417
 Vibrational             74.242             26.445             27.600
 Vibration     1          0.596              1.974              4.533
 Vibration     2          0.599              1.965              3.976
 Vibration     3          0.604              1.949              3.450
 Vibration     4          0.613              1.920              2.893
 Vibration     5          0.631              1.862              2.289
 Vibration     6          0.645              1.818              2.002
 Vibration     7          0.653              1.793              1.866
 Vibration     8          0.676              1.721              1.571
 Vibration     9          0.720              1.595              1.212
 Vibration    10          0.794              1.397              0.847
 Vibration    11          0.893              1.166              0.569
 Vibration    12          0.927              1.094              0.502
 Vibration    13          0.959              1.030              0.448
                       Q            Log10(Q)             Ln(Q)
 Total Bot       0.143890D-34        -34.841970        -80.226601
 Total V=0       0.271715D+17         16.434113         37.840944
 Vib (Bot)       0.409580D-48        -48.387661       -111.416707
 Vib (Bot)    1  0.357796D+01          0.553636          1.274794
 Vib (Bot)    2  0.268973D+01          0.429709          0.989441
 Vib (Bot)    3  0.204815D+01          0.311361          0.716935
 Vib (Bot)    4  0.152417D+01          0.183032          0.421447
 Vib (Bot)    5  0.109099D+01          0.037822          0.087089
 Vib (Bot)    6  0.922375D+00         -0.035093         -0.080804
 Vib (Bot)    7  0.849490D+00         -0.070842         -0.163119
 Vib (Bot)    8  0.703908D+00         -0.152484         -0.351107
 Vib (Bot)    9  0.545946D+00         -0.262850         -0.605235
 Vib (Bot)   10  0.400844D+00         -0.397025         -0.914184
 Vib (Bot)   11  0.294975D+00         -0.530215         -1.220866
 Vib (Bot)   12  0.269119D+00         -0.570056         -1.312602
 Vib (Bot)   13  0.248234D+00         -0.605139         -1.393385
 Vib (V=0)       0.773432D+03          2.888422          6.650837
 Vib (V=0)    1  0.411273D+01          0.614130          1.414087
 Vib (V=0)    2  0.323581D+01          0.509983          1.174279
 Vib (V=0)    3  0.260829D+01          0.416356          0.958696
 Vib (V=0)    4  0.210408D+01          0.323063          0.743879
 Vib (V=0)    5  0.170011D+01          0.230477          0.530694
 Vib (V=0)    6  0.154918D+01          0.190101          0.437725
 Vib (V=0)    7  0.148571D+01          0.171935          0.395896
 Vib (V=0)    8  0.136342D+01          0.134628          0.309993
 Vib (V=0)    9  0.124031D+01          0.093530          0.215361
 Vib (V=0)   10  0.114084D+01          0.057225          0.131765
 Vib (V=0)   11  0.108053D+01          0.033635          0.077448
 Vib (V=0)   12  0.106782D+01          0.028500          0.065624
 Vib (V=0)   13  0.105823D+01          0.024580          0.056597
 Electronic      0.200000D+01          0.301030          0.693147
 Translational   0.484981D+08          7.685724         17.697035
 Rotational      0.362190D+06          5.558937         12.799925
 ***** Axes restored to original set *****
 -------------------------------------------------------------------
 Center     Atomic                   Forces (Hartrees/Bohr)
 Number     Number              X              Y              Z
 -------------------------------------------------------------------
      1        6           0.000839123   -0.002974596   -0.000323338
      2        1           0.000071512   -0.000168922   -0.000033577
      3        6           0.001240277    0.023300654    0.006511821
      4        6          -0.000200005    0.000795632    0.000149126
      5        8          -0.000934698   -0.000704344   -0.000651213
      6        8           0.000088811   -0.000525453   -0.000187570
      7        6           0.000133677   -0.000180232   -0.000093958
      8        6          -0.000093330   -0.000048390   -0.000054046
      9        1           0.000013585   -0.000005771   -0.000004387
     10        1           0.000018320   -0.000011949   -0.000006288
     11        1          -0.000008999   -0.000003818   -0.000000552
     12        1          -0.000014825   -0.000004394   -0.000005607
     13        1          -0.000014141   -0.000000825   -0.000002550
     14        8          -0.001245821   -0.018956113   -0.005437146
     15        1           0.000106512   -0.000511481    0.000139285
 -------------------------------------------------------------------
 Cartesian Forces:  Max     0.023300654 RMS     0.004690838

 GradGradGradGradGradGradGradGradGradGradGradGradGradGradGradGradGradGrad
 Berny optimization.
 Search for a local minimum.
 Step number   1 out of a maximum of    2
 All quantities printed in internal units (Hartrees-Bohrs-Radians)
 Second derivative matrix not updated -- analytic derivatives used.
 ITU=  0
     Eigenvalues ---   -0.24302   0.00024   0.00099   0.00155   0.00172
     Eigenvalues ---    0.00372   0.00715   0.01064   0.01793   0.02100
     Eigenvalues ---    0.03171   0.03546   0.03625   0.05189   0.06337
     Eigenvalues ---    0.07296   0.07679   0.08613   0.09793   0.10226
     Eigenvalues ---    0.11544   0.14189   0.17008   0.17956   0.20357
     Eigenvalues ---    0.28426   0.29320   0.43114   0.49401   0.62351
     Eigenvalues ---    0.69458   0.76463   0.79261   0.86175   0.88052
     Eigenvalues ---    0.92341   0.97641   1.76021   2.18789
 Eigenvalue     1 is  -2.43D-01 should be greater than     0.000000 Eigenvector:
                          Y3        Y14       Z3        Z14       Y1
   1                    0.77631  -0.54856   0.20797  -0.17866  -0.10739
                          Y15       Z15       X3        X14       X5
   1                   -0.05220   0.04627   0.03507  -0.03268  -0.02345
 Angle between quadratic step and forces=  55.68 degrees.
 Linear search not attempted -- first point.
 B after Tr=     0.004544    0.001016   -0.000488
         Rot=    1.000000    0.000660    0.000169    0.000319 Ang=   0.09 deg.
 Variable       Old X    -DE/DX   Delta X   Delta X   Delta X     New X
                                 (Linear)    (Quad)   (Total)
    X1       -5.28834   0.00084   0.00000   0.00888   0.01316  -5.27517
    Y1       -0.82856  -0.00297   0.00000  -0.00222   0.00112  -0.82745
    Z1       -0.77525  -0.00032   0.00000  -0.01919  -0.02037  -0.79562
    X2       -7.25740   0.00007   0.00000   0.01130   0.01566  -7.24174
    Y2       -0.92072  -0.00017   0.00000  -0.01816  -0.01414  -0.93486
    Z2       -1.18842  -0.00003   0.00000  -0.03320  -0.03490  -1.22333
    X3       -3.07316   0.00124   0.00000   0.00895   0.01336  -3.05980
    Y3       -0.40762   0.02330   0.00000   0.10212   0.10484  -0.30278
    Z3       -0.20641   0.00651   0.00000   0.01900   0.01787  -0.18854
    X4       -0.41515  -0.00020   0.00000   0.00420   0.00794  -0.40721
    Y4       -1.13162   0.00080   0.00000   0.01187   0.01352  -1.11811
    Z4        0.27811   0.00015   0.00000   0.00121   0.00206   0.28017
    X5        0.26291  -0.00093   0.00000  -0.00270  -0.00030   0.26262
    Y5       -2.24597  -0.00070   0.00000   0.02529   0.02897  -2.21700
    Z5        2.12320  -0.00065   0.00000   0.01151   0.01404   2.13724
    X6        1.06034   0.00009   0.00000   0.00704   0.01191   1.07225
    Y6       -0.31833  -0.00053   0.00000  -0.01369  -0.01546  -0.33379
    Z6       -1.58601  -0.00019   0.00000  -0.00576  -0.00545  -1.59146
    X7        3.74320   0.00013   0.00000   0.00638   0.01093   3.75413
    Y7       -0.60774  -0.00018   0.00000  -0.01290  -0.01585  -0.62359
    Z7       -1.19082  -0.00009   0.00000   0.00001   0.00161  -1.18921
    X8        4.72850  -0.00009   0.00000   0.00587   0.01113   4.73962
    Y8        1.42688  -0.00005   0.00000  -0.00716  -0.00842   1.41846
    Z8        0.56845  -0.00005   0.00000  -0.00608  -0.00684   0.56161
    X9        4.54754   0.00001   0.00000   0.00868   0.01397   4.56150
    Y9       -0.44739  -0.00001   0.00000  -0.02009  -0.02604  -0.47343
    Z9       -3.07707  -0.00000   0.00000   0.00061   0.00229  -3.07478
   X10        4.10289   0.00002   0.00000   0.00305   0.00614   4.10904
   Y10       -2.49595  -0.00001   0.00000  -0.01032  -0.01250  -2.50846
   Z10       -0.44796  -0.00001   0.00000   0.00781   0.01202  -0.43594
   X11        6.77427  -0.00001   0.00000   0.00601   0.01109   6.78536
   Y11        1.24256  -0.00000   0.00000  -0.00578  -0.00809   1.23447
   Z11        0.76139  -0.00000   0.00000  -0.00599  -0.00581   0.75558
   X12        4.30264  -0.00001   0.00000   0.00477   0.01148   4.31412
   Y12        3.29766  -0.00000   0.00000  -0.00970  -0.01169   3.28597
   Z12       -0.18485  -0.00001   0.00000  -0.01176  -0.01513  -0.19998
   X13        3.87661  -0.00001   0.00000   0.00632   0.01084   3.88745
   Y13        1.24787  -0.00000   0.00000  -0.00185  -0.00010   1.24777
   Z13        2.43574  -0.00000   0.00000  -0.00545  -0.00627   2.42948
   X14       -2.77082  -0.00125   0.00000   0.00784   0.01399  -2.75683
   Y14        3.01182  -0.01896   0.00000  -0.08187  -0.07808   2.93373
   Z14        0.77871  -0.00544   0.00000  -0.00692  -0.01221   0.76650
   X15       -2.93631   0.00011   0.00000  -0.15857  -0.15131  -3.08762
   Y15        3.78785  -0.00051   0.00000   0.04002   0.04194   3.82978
   Z15       -0.87049   0.00014   0.00000   0.06368   0.05709  -0.81340
         Item               Value     Threshold  Converged?
 Maximum Force            0.023301     0.000450     NO 
 RMS     Force            0.004691     0.000300     NO 
 Maximum Displacement     0.151310     0.001800     NO 
 RMS     Displacement     0.034157     0.001200     NO 
 Predicted change in Energy=-6.084466D-03
 GradGradGradGradGradGradGradGradGradGradGradGradGradGradGradGradGradGrad


 ----------------------------------------------------------------------

 Electric dipole moment (input orientation):
 (Debye = 10**-18 statcoulomb cm , SI units = C m)
                  (au)            (Debye)         (10**-30 SI)
   Tot        0.125496D+01      0.318980D+01      0.106400D+02
   x          0.117459D-01      0.298551D-01      0.995859D-01
   y          0.403607D-01      0.102587D+00      0.342193D+00
   z         -0.125426D+01     -0.318801D+01     -0.106341D+02

 Dipole polarizability, Alpha (input orientation).
 (esu units = cm**3 , SI units = C**2 m**2 J**-1)
 Alpha(0;0):
               (au)            (10**-24 esu)      (10**-40 SI)
   iso        0.740901D+02      0.109790D+02      0.122158D+02
   aniso      0.314824D+02      0.466521D+01      0.519075D+01
   xx         0.898884D+02      0.133201D+02      0.148206D+02
   yx         0.738109D+01      0.109376D+01      0.121698D+01
   yy         0.736607D+02      0.109154D+02      0.121450D+02
   zx         0.535799D+01      0.793973D+00      0.883414D+00
   zy         0.205022D+01      0.303811D+00      0.338035D+00
   zz         0.587211D+02      0.870157D+01      0.968180D+01

 ----------------------------------------------------------------------

 Dipole orientation:
     6         -5.29523573          0.85226962          0.69866813
     1         -7.26806335          0.95737182          1.09022013
     6         -3.07489738          0.41358267          0.16442617
     6         -0.41235866          1.12203268         -0.31822895
     8          0.28311262          2.17655975         -2.19177814
     8          1.04549755          0.36933630          1.58480771
     6          3.73198165          0.64628681          1.20564521
     6          4.73339577         -1.44371128         -0.47798886
     1          4.51860522          0.54679951          3.10351555
     1          4.09889540          2.50968733          0.40583739
     1          6.78091374         -1.26538356         -0.65759821
     1          4.30022295         -3.28936227          0.33107390
     1          3.89904850         -1.32497955         -2.35795890
     8         -2.76386587         -3.03571852         -0.70734864
     1         -2.94489644         -3.75833341          0.96433484

 Electric dipole moment (dipole orientation):
 (Debye = 10**-18 statcoulomb cm , SI units = C m)
                  (au)            (Debye)         (10**-30 SI)
   Tot        0.125496D+01      0.318980D+01      0.106400D+02
   x          0.000000D+00      0.000000D+00      0.000000D+00
   y          0.000000D+00      0.000000D+00      0.000000D+00
   z          0.125496D+01      0.318980D+01      0.106400D+02

 Dipole polarizability, Alpha (dipole orientation).
 (esu units = cm**3 , SI units = C**2 m**2 J**-1)
 Alpha(0;0):
               (au)            (10**-24 esu)      (10**-40 SI)
   iso        0.740901D+02      0.109790D+02      0.122158D+02
   aniso      0.314824D+02      0.466521D+01      0.519075D+01
   xx         0.899838D+02      0.133342D+02      0.148363D+02
   yx        -0.756148D+01     -0.112050D+01     -0.124672D+01
   yy         0.737748D+02      0.109323D+02      0.121638D+02
   zx        -0.482437D+01     -0.714898D+00     -0.795431D+00
   zy         0.149428D+01      0.221429D+00      0.246373D+00
   zz         0.585117D+02      0.867053D+01      0.964727D+01

 ----------------------------------------------------------------------
 1\1\GINC-AJ\Freq\UM062X\6-311++G(d,p)\C5H7O3(2)\AAYUSH\23-Jun-2025\0\\
 # freq 6-311++g(d,p) m062x\\Title Card Required\\0,2\C,-2.798467,-0.43
 8456,-0.410243\H,-3.840449,-0.487224,-0.628887\C,-1.626247,-0.215702,-
 0.10923\C,-0.219688,-0.59883,0.147167\O,0.139128,-1.188514,1.123548\O,
 0.561108,-0.168455,-0.839281\C,1.980816,-0.321602,-0.630157\C,2.502213
 ,0.755072,0.300813\H,2.406453,-0.236746,-1.628314\H,2.171157,-1.320802
 ,-0.23705\H,3.58479,0.657534,0.402911\H,2.276858,1.745047,-0.097819\H,
 2.051413,0.660346,1.288939\O,-1.466256,1.593784,0.412078\H,-1.553827,2
 .004442,-0.460641\\Version=ES64L-G16RevA.03\State=2-A\HF=-420.203982\S
 2=0.785687\S2-1=0.\S2A=0.750514\RMSD=4.276e-09\RMSF=4.691e-03\ZeroPoin
 t=0.1114776\Thermal=0.121144\Dipole=0.0117459,0.0403607,-1.2542593\Dip
 oleDeriv=-0.2456319,0.4073752,0.0732637,0.0480688,-0.01163,0.0340955,-
 0.0737657,0.0995802,-0.1084849,0.2787159,0.019096,0.0094375,0.0431899,
 0.2135199,0.0057647,0.035139,-0.0034667,0.231114,-0.3215679,-0.3462247
 ,-0.1206694,-0.0334855,-0.5074342,-0.0994529,-0.0022168,-0.1832391,-0.
 1213706,2.031027,-0.2902165,-0.1617369,0.0125197,0.805125,-0.5857813,-
 0.4998424,-0.6317077,1.4373724,-0.7992353,0.2171064,-0.177122,0.047683
 ,-0.597788,0.3538602,0.0244036,0.4053208,-0.8858523,-1.6242406,-0.1231
 139,0.3418849,-0.1557393,-0.3939589,0.185523,0.4831957,0.2033808,-0.80
 73273,0.999034,0.0890298,-0.0540633,0.0035384,0.287457,0.0766867,0.062
 4327,0.0245571,0.3169764,-0.0659357,-0.0306505,0.0300122,-0.0456984,-0
 .0182347,-0.0826695,-0.0346147,-0.0547961,-0.0441194,-0.0234927,-0.008
 061,0.0252535,-0.0232739,0.0679344,0.0040912,0.0637316,-0.0215322,-0.0
 883751,-0.0187238,-0.0374389,0.0118088,0.036418,-0.068947,-0.0015225,-
 0.0578056,0.0369136,0.0555674,-0.1278664,0.000116,-0.0197596,0.0142303
 ,0.0691223,-0.0048988,-0.0193928,-0.0170974,0.0924217,0.0814326,0.0532
 218,-0.0295247,0.0061921,-0.0700166,0.0252849,-0.0321161,0.0535619,0.0
 258912,0.0768068,-0.0001407,0.0690463,-0.016259,0.0446857,0.0138195,0.
 0476912,-0.012277,-0.0284581,-0.518908,0.0962966,0.025227,0.0649028,-0
 .146884,0.0490787,0.0497093,0.1857297,-0.1812449,0.278586,-0.0463958,-
 0.0230579,-0.0022869,0.3270491,0.0261206,-0.046549,-0.084928,0.1058896
 \Polar=89.8884278,7.3810889,73.6606915,5.3579947,2.0502168,58.72108\Qu
 adrupole=8.6454818,-3.499037,-5.1464448,1.5628417,2.629692,-0.2838902\
 PG=C01 [X(C5H7O3)]\NImag=1\\1.22719990,0.13190927,0.05858209,0.2781981
 2,0.02931630,0.11680855,-0.40283477,-0.02331367,-0.08141744,0.39425798
 ,-0.00999500,-0.01404661,0.00071795,0.02005339,0.01036171,-0.07751475,
 -0.00204386,-0.04068947,0.08039083,0.00254014,0.03197921,-0.81805725,-
 0.10408511,-0.19315874,0.00811654,-0.01059037,-0.00137650,1.12123740,-
 0.00629651,0.01038533,0.00845948,0.00198455,-0.00032648,-0.00032539,-0
 .04649286,-0.10744366,-0.16953320,-0.01056059,-0.07317220,0.00149787,-
 0.00305375,0.00344954,0.19906646,-0.08051237,0.14934380,0.00959803,0.0
 0683799,0.00378238,-0.00068331,0.00047602,-0.00216708,-0.22884482,0.02
 718797,-0.03003181,0.64258072,-0.02863321,-0.00505673,-0.00778703,-0.0
 0039377,0.00326829,-0.00025358,0.05326488,-0.03964996,0.01183107,-0.10
 859813,0.41936789,-0.01037939,-0.00078761,-0.00047727,-0.00098161,-0.0
 0015996,0.00555344,-0.00893165,0.00670669,-0.05969514,0.09687444,-0.33
 572684,0.78786490,-0.00331668,0.00069511,-0.00073304,0.00028985,-0.000
 46513,0.00153582,-0.01955515,0.02421900,-0.03902617,-0.17919651,0.1146
 1244,-0.17997964,0.17324840,0.00308810,0.00064441,0.00095678,0.0001025
 8,-0.00027015,-0.00093610,0.02201578,0.00052748,0.02420371,0.10715161,
 -0.25007657,0.28026177,-0.12370420,0.24912522,0.00163724,0.00055716,0.
 00118200,0.00006460,-0.00028368,-0.00001217,-0.03055456,0.01928411,-0.
 01482536,-0.17352762,0.28005528,-0.53967100,0.18704633,-0.35705701,0.6
 3318616,-0.00767733,0.00028574,-0.00221924,0.00088491,0.00047926,-0.00
 103540,-0.05093882,-0.00588814,0.03469362,-0.18917174,-0.03578401,0.09
 120257,0.02776850,-0.01242570,0.02575820,0.49303277,0.00047099,0.00048
 929,0.00017729,-0.00001285,-0.00027864,0.00015926,0.00247972,0.0086353
 4,-0.00051260,-0.02705518,-0.09716986,0.06238542,-0.01407948,0.0023591
 8,0.05590068,0.02020120,0.15298923,0.00237002,0.00068880,0.00077146,-0
 .00008505,-0.00017323,-0.00070207,0.00855798,-0.00049641,0.00377677,0.
 07016671,0.06249603,-0.19833591,0.02485728,0.05591258,-0.07972248,-0.0
 9225444,-0.13177950,0.35647407,0.00204449,0.00007168,0.00074125,-0.000
 36700,-0.00006447,-0.00002971,0.00181601,-0.00264226,-0.00082674,-0.05
 307043,-0.01200379,0.03450343,-0.00093677,0.01018916,-0.01759559,-0.17
 637906,0.01770963,-0.01396044,0.44862174,0.00136651,0.00030926,0.00014
 162,0.00003933,-0.00009665,0.00000376,-0.00137494,0.00196747,0.0023868
 4,-0.01258430,0.00677340,-0.01009048,0.00214397,-0.00564437,0.00060962
 ,0.02553431,-0.07619890,0.01693936,-0.00908324,0.58214742,0.00144024,-
 0.00004830,0.00050687,-0.00000902,-0.00006770,0.00027419,0.00428166,0.
 00260213,-0.00263882,0.03367074,-0.00725050,0.00723949,0.00166724,-0.0
 0121167,-0.00366358,-0.03508374,0.01688040,-0.08921985,-0.06131835,-0.
 05040050,0.61341502,0.00002592,0.00005902,0.00001099,0.00008566,-0.000
 00130,-0.00000192,-0.00044811,0.00085114,0.00089306,0.00164098,0.00100
 495,-0.00926900,0.00083936,-0.00213300,0.00222559,-0.03856000,-0.02955
 489,-0.02416654,-0.08100899,-0.02120495,-0.01440569,0.57563018,0.00024
 159,-0.00003770,0.00008317,-0.00000651,0.00000454,-0.00001561,-0.00030
 503,-0.00022846,-0.00032247,-0.00105133,-0.00137006,0.00290188,-0.0008
 0589,0.00056899,-0.00156998,0.00127252,0.00713196,0.00111898,-0.031153
 64,-0.15801133,-0.06142095,-0.02634709,0.54049776,0.00012470,0.0000277
 4,-0.00000773,0.00000776,-0.00002088,-0.00000438,-0.00046115,0.0001601
 9,0.00011831,0.00134538,0.00019728,0.00336895,-0.00147699,-0.00125152,
 -0.00127033,-0.00724490,-0.00174772,-0.00150300,-0.02173735,-0.0600001
 6,-0.13636077,-0.02339131,-0.04104102,0.55342690,-0.00066268,0.0000269
 4,-0.00024288,0.00004150,0.00004113,-0.00004513,-0.00112445,-0.0005652
 8,0.00107789,-0.00389522,0.00468975,-0.00458228,0.00155529,-0.00082510
 ,0.00112171,-0.03331075,-0.00577265,0.03458737,-0.08129136,-0.00693444
 ,0.08826756,0.00686007,0.00168346,-0.01183119,0.10751673,0.00004310,-0
 .00000380,0.00000968,0.00001104,-0.00000306,0.00001402,0.00023244,0.00
 016830,-0.00005082,0.00056760,-0.00145557,0.00242230,-0.00192943,0.000
 86516,-0.00038348,0.00448257,0.00133795,-0.00481213,-0.01029560,-0.055
 94267,0.02547818,0.00953487,0.00225321,-0.02443318,0.01060491,0.054041
 74,-0.00005793,0.00000257,-0.00001837,-0.00001154,-0.00000016,-0.00003
 104,-0.00020120,-0.00018033,0.00016747,-0.00230941,0.00047633,-0.00011
 000,0.00096660,-0.00046730,0.00070180,-0.00443931,-0.00008672,0.008092
 80,0.10154427,0.02419287,-0.28819514,0.00618167,0.00191566,-0.01707913
 ,-0.10304117,-0.02286724,0.30445453,-0.00035731,-0.00002253,-0.0000408
 5,0.00002835,0.00004454,-0.00002661,-0.00006458,-0.00033009,0.00001191
 ,0.00261900,0.00510258,-0.00759129,0.00040274,-0.00195473,0.00353275,-
 0.02738653,0.03413315,-0.01260126,-0.05473299,0.03052896,-0.00997985,0
 .00392719,-0.01156308,0.00498623,0.00411326,-0.01180106,0.00339213,0.0
 7157300,-0.00017177,-0.00002028,-0.00004575,-0.00000753,-0.00000100,0.
 00002061,0.00016810,-0.00004526,-0.00019131,-0.00091247,-0.00090079,0.
 00344341,-0.00257584,0.00087668,-0.00048657,0.00662684,0.00143726,0.00
 006510,0.04059417,-0.27936104,0.08969196,0.00234319,-0.02036801,0.0081
 2913,-0.00098640,0.00020628,0.00016522,-0.04316853,0.29878734,-0.00004
 519,-0.00001180,-0.00000279,0.00002536,0.00000427,0.00000697,-0.000173
 20,0.00036139,0.00000714,0.00235385,-0.00059452,0.00057524,0.00107279,
 -0.00034737,-0.00121796,-0.00548515,0.00278847,-0.00157077,-0.01624983
 ,0.09285748,-0.08883283,0.00387567,-0.02130215,0.00875533,-0.00487725,
 0.02628976,-0.00846051,0.02039086,-0.09791711,0.09173264,-0.00005312,0
 .00002180,-0.00001511,0.00003198,0.00001323,0.00001314,-0.00003298,0.0
 0011096,0.00004358,0.00141013,0.00077424,-0.00127350,-0.00004618,-0.00
 049585,0.00033627,-0.00079565,-0.00269877,-0.00100532,-0.01071950,0.00
 324352,0.00117688,-0.31431519,0.02429585,-0.02507695,0.00028323,-0.000
 06772,-0.00037261,0.00022801,-0.00044297,0.00007608,0.34059464,-0.0002
 0759,-0.00000636,-0.00006806,0.00001307,-0.00000741,-0.00000151,0.0000
 3486,0.00033038,0.00036467,0.00087739,0.00049940,-0.00222085,0.0000976
 1,-0.00059073,0.00064309,-0.00553551,-0.00382085,-0.00318402,-0.022278
 33,0.00402482,0.00129503,0.02584080,-0.04962624,0.00138822,0.00055024,
 0.00087280,0.00005658,0.00055262,0.00022189,0.00101881,-0.02624915,0.0
 4983510,-0.00011632,0.00000004,-0.00002494,0.00000971,-0.00000099,-0.0
 0000257,-0.00004232,0.00009317,0.00019141,0.00055540,0.00072972,-0.003
 27848,0.00059346,-0.00013596,0.00130666,-0.00535128,-0.00451036,-0.001
 35853,-0.01865874,0.00543393,-0.00108666,-0.02358397,0.00099825,-0.048
 58370,0.00058206,0.00083342,0.00008477,0.00035310,0.00005711,0.0007137
 6,0.02809731,-0.00040120,0.04908727,-0.00015579,-0.00004229,-0.0000395
 1,-0.00002257,-0.00001403,-0.00000364,0.00018953,0.00020854,0.00005673
 ,-0.00023138,-0.00079410,0.00135007,-0.00052914,0.00014879,-0.00066722
 ,0.00216581,0.00052653,0.00056736,0.00057582,-0.01235981,0.00406542,-0
 .05899464,0.05307515,-0.02059880,0.00012444,0.00079813,0.00022993,-0.0
 0028052,-0.00200983,-0.00161600,-0.00477574,0.02953161,-0.01186215,0.0
 5906771,-0.00019714,-0.00001879,-0.00004819,-0.00000291,-0.00000677,0.
 00000278,0.00007191,0.00014915,0.00006719,0.00011692,-0.00067858,0.000
 64067,-0.00030330,0.00025862,-0.00040824,0.00051072,0.00257380,0.00061
 312,0.00579387,-0.02391469,0.00886794,0.05097371,-0.26977324,0.0924358
 6,0.00012042,0.00092830,-0.00009126,-0.00176527,-0.00168272,-0.0037330
 3,0.00012581,-0.00072654,0.00003286,-0.05556036,0.29430686,0.00016039,
 0.00002937,0.00002933,0.00000287,0.00000708,0.00000224,-0.00012453,-0.
 00028886,-0.00007846,-0.00045148,0.00049308,-0.00026335,0.00052285,0.0
 0025892,0.00041867,0.00179991,0.00153128,0.00068548,0.00519695,-0.0230
 7771,0.00838108,-0.02162921,0.09463042,-0.08750675,0.00064262,0.000562
 85,0.00103918,-0.00231124,-0.00314688,-0.00255395,0.00005717,0.0016214
 2,-0.00232574,0.02442953,-0.09859005,0.09122780,0.00004636,0.00000332,
 0.00003379,-0.00002737,-0.00002456,-0.00001429,0.00001097,0.00000568,-
 0.00002870,-0.00084303,-0.00027756,-0.00118545,-0.00064454,-0.00079388
 ,0.00051596,0.00136806,0.00099597,0.00099049,0.00451376,0.00106313,-0.
 01320790,-0.09560513,-0.00940824,0.10539268,-0.00019683,-0.00221376,-0
 .00197379,0.00004523,0.00051879,0.00068772,-0.01164257,-0.00327133,0.0
 2935034,0.00276427,0.00011121,-0.00816433,0.09991688,0.00023895,0.0000
 4367,0.00006010,-0.00000336,0.00000092,-0.00001468,-0.00027468,-0.0003
 8881,-0.00000177,-0.00088681,0.00152915,-0.00218634,0.00039836,-0.0011
 3867,0.00137926,0.00005286,0.00075367,0.00279213,0.01306957,0.00202799
 ,-0.02513402,-0.01173568,-0.05091367,0.02612886,-0.00254563,-0.0033345
 9,-0.00304065,0.00061086,0.00094004,0.00043211,0.00131085,-0.00107067,
 -0.00312533,-0.01350373,-0.00141111,0.02595248,0.01339848,0.05297875,-
 0.00006985,-0.00004150,-0.00000120,-0.00002140,-0.00000464,-0.00001821
 ,0.00002282,-0.00008337,0.00003659,-0.00077162,0.00033423,-0.00184066,
 0.00109923,0.00063632,0.00110379,-0.00032573,0.00079718,0.00199053,0.0
 0895393,0.00085898,-0.01999472,0.10316342,0.02382194,-0.27316669,-0.00
 165047,-0.00309007,-0.00064601,-0.00020049,0.00030146,0.00080280,-0.00
 207877,-0.00046477,0.00521749,0.00422595,0.00028967,-0.00912775,-0.112
 52447,-0.02323448,0.29568287,-0.00677204,-0.01202952,-0.00515261,0.000
 24597,0.00050283,0.00030000,-0.00937670,0.01047043,0.00087330,-0.00499
 512,0.00489767,0.00328790,0.00080958,-0.00034237,-0.00067072,-0.000088
 19,0.00415829,0.00080760,0.00135353,-0.00032505,-0.00065253,-0.0001578
 3,-0.00020446,0.00008139,0.00000243,-0.00001656,0.00007537,-0.00021661
 ,0.00010514,-0.00005836,-0.00021814,0.00016097,0.00003319,0.00032233,0
 .00017699,-0.00020918,0.00027003,-0.00013912,0.00020792,0.02374842,-0.
 08891733,-0.04999040,-0.03072224,0.00174694,0.00142711,0.00090653,0.08
 089628,0.12863352,0.04275103,0.00576306,-0.03151498,-0.00804163,0.0025
 5173,0.00165935,0.00271002,0.00133825,-0.00069560,-0.00004954,-0.00087
 033,0.00157700,0.00068044,0.00045292,-0.00019672,0.00006086,-0.0000126
 4,0.00007051,-0.00008082,-0.00016806,-0.00008641,0.00021107,0.00009850
 ,0.00012245,0.00002953,0.00000104,0.00000798,-0.00001905,-0.00013280,-
 0.00003970,-0.00012563,-0.02268542,0.05894465,-0.02966861,-0.01733152,
 -0.00631640,0.00042381,0.00051024,0.00031241,0.02617706,0.05606106,-0.
 00891965,0.00362198,-0.00505113,-0.00107886,0.00089882,-0.00065091,0.0
 0210933,-0.00113488,-0.00246779,0.00155471,-0.00041503,0.00006158,0.00
 019832,0.00004123,0.00022753,-0.00015830,-0.00008985,0.00004813,0.0000
 1063,0.00010560,-0.00010147,0.00005575,0.00000910,-0.00006291,0.000042
 00,-0.00012059,-0.00012168,0.00006087,0.00012206,0.00001507,-0.0000199
 7,0.04622189,-0.20992537,0.44806884,0.00097228,-0.00041774,0.00025290,
 -0.00004773,-0.00045556,-0.00002476,-0.00292759,-0.00282314,0.00123220
 ,0.00308269,0.00213805,-0.00304460,-0.00068875,-0.00002118,0.00077706,
 -0.00091198,-0.00150167,0.00116826,-0.00041926,-0.00005300,0.00008733,
 0.00008055,0.00027669,-0.00011951,-0.00001566,0.00004948,0.00001699,0.
 00010176,-0.00008089,0.00002264,0.00005106,-0.00011727,0.00004022,-0.0
 0022013,-0.00017255,0.00007769,0.00002389,0.00000906,-0.00003047,-0.00
 492768,0.01993788,-0.04619258,0.00584656,-0.00293995,-0.00127337,-0.00
 125110,-0.00021030,-0.00002581,-0.00005635,0.00395902,-0.00271435,0.01
 360115,0.00210967,-0.00356502,0.00045157,-0.00085496,0.00083539,-0.000
 95028,-0.00115090,0.00045617,-0.00013127,0.00096357,0.00034228,0.00003
 758,-0.00008369,0.00006897,-0.00003366,-0.00007471,-0.00000457,0.00000
 525,-0.00019935,-0.00000398,-0.00005738,-0.00004031,-0.00005803,-0.000
 03420,-0.00000564,-0.00001228,0.00003565,0.00002554,0.00002303,0.00000
 469,0.01527018,-0.10991877,0.17878918,-0.01676817,0.11585036,0.0034545
 4,0.00020320,0.00141216,0.00010324,-0.00001468,-0.00011808,-0.00308212
 ,-0.01184149,0.00223860,-0.00311186,0.00005059,0.00014865,0.00095543,-
 0.00017223,0.00037446,0.00111975,0.00048471,-0.00093321,-0.00014806,0.
 00008282,-0.00002259,0.00005602,-0.00002565,-0.00002872,0.00008102,-0.
 00002143,-0.00001098,-0.00002100,0.00001510,-0.00001081,0.00001274,0.0
 0001552,0.00001728,-0.00001709,0.00004235,0.00001135,0.00000590,-0.000
 02274,-0.00001888,-0.04514513,0.20161478,-0.43591967,0.04573662,-0.190
 41084,0.43286044\\-0.00083912,0.00297460,0.00032334,-0.00007151,0.0001
 6892,0.00003358,-0.00124028,-0.02330065,-0.00651182,0.00020000,-0.0007
 9563,-0.00014913,0.00093470,0.00070434,0.00065121,-0.00008881,0.000525
 45,0.00018757,-0.00013368,0.00018023,0.00009396,0.00009333,0.00004839,
 0.00005405,-0.00001359,0.00000577,0.00000439,-0.00001832,0.00001195,0.
 00000629,0.00000900,0.00000382,0.00000055,0.00001482,0.00000439,0.0000
 0561,0.00001414,0.00000082,0.00000255,0.00124582,0.01895611,0.00543715
 ,-0.00010651,0.00051148,-0.00013929\\\@


 THERE'S NOTHING WRONG WITH FOLLOWING A TRAIN OF THOUGHT...
 AS LONG AS IT ULTIMATELY PULLS INTO THE STATION.
 Job cpu time:       0 days  0 hours 59 minutes 56.6 seconds.
 Elapsed time:       0 days  0 hours  2 minutes 29.9 seconds.
 File lengths (MBytes):  RWF=    153 Int=      0 D2E=      0 Chk=      9 Scr=      1
 Normal termination of Gaussian 16 at Mon Jun 23 04:27:23 2025.
