 Entering Gaussian System, Link 0=g16
 Initial command:
 /opt/g16/l1.exe "/home/chem-lab/scratches/g16/Gau-88053.inp" -scrdir="/home/chem-lab/scratches/g16/"
 Entering Link 1 = /opt/g16/l1.exe PID=     88056.
  
 Copyright (c) 1988,1990,1992,1993,1995,1998,2003,2009,2016,
            Gaussian, Inc.  All Rights Reserved.
  
 This is part of the Gaussian(R) 16 program.  It is based on
 the Gaussian(R) 09 system (copyright 2009, Gaussian, Inc.),
 the Gaussian(R) 03 system (copyright 2003, Gaussian, Inc.),
 the Gaussian(R) 98 system (copyright 1998, Gaussian, Inc.),
 the Gaussian(R) 94 system (copyright 1995, Gaussian, Inc.),
 the Gaussian 92(TM) system (copyright 1992, Gaussian, Inc.),
 the Gaussian 90(TM) system (copyright 1990, Gaussian, Inc.),
 the Gaussian 88(TM) system (copyright 1988, Gaussian, Inc.),
 the Gaussian 86(TM) system (copyright 1986, Carnegie Mellon
 University), and the Gaussian 82(TM) system (copyright 1983,
 Carnegie Mellon University). Gaussian is a federally registered
 trademark of Gaussian, Inc.
  
 This software contains proprietary and confidential information,
 including trade secrets, belonging to Gaussian, Inc.
  
 This software is provided under written license and may be
 used, copied, transmitted, or stored only in accord with that
 written license.
  
 The following legend is applicable only to US Government
 contracts under FAR:
  
                    RESTRICTED RIGHTS LEGEND
  
 Use, reproduction and disclosure by the US Government is
 subject to restrictions as set forth in subparagraphs (a)
 and (c) of the Commercial Computer Software - Restricted
 Rights clause in FAR 52.227-19.
  
 Gaussian, Inc.
 340 Quinnipiac St., Bldg. 40, Wallingford CT 06492
  
  
 ---------------------------------------------------------------
 Warning -- This program may not be used in any manner that
 competes with the business of Gaussian, Inc. or will provide
 assistance to any competitor of Gaussian, Inc.  The licensee
 of this program is prohibited from giving any competitor of
 Gaussian, Inc. access to this program.  By using this program,
 the user acknowledges that Gaussian, Inc. is engaged in the
 business of creating and licensing software in the field of
 computational chemistry and represents and warrants to the
 licensee that it is not a competitor of Gaussian, Inc. and that
 it will not use this program in any manner prohibited above.
 ---------------------------------------------------------------
  

 Cite this work as:
 Gaussian 16, Revision A.03,
 M. J. Frisch, G. W. Trucks, H. B. Schlegel, G. E. Scuseria, 
 M. A. Robb, J. R. Cheeseman, G. Scalmani, V. Barone, 
 G. A. Petersson, H. Nakatsuji, X. Li, M. Caricato, A. V. Marenich, 
 J. Bloino, B. G. Janesko, R. Gomperts, B. Mennucci, H. P. Hratchian, 
 J. V. Ortiz, A. F. Izmaylov, J. L. Sonnenberg, D. Williams-Young, 
 F. Ding, F. Lipparini, F. Egidi, J. Goings, B. Peng, A. Petrone, 
 T. Henderson, D. Ranasinghe, V. G. Zakrzewski, J. Gao, N. Rega, 
 G. Zheng, W. Liang, M. Hada, M. Ehara, K. Toyota, R. Fukuda, 
 J. Hasegawa, M. Ishida, T. Nakajima, Y. Honda, O. Kitao, H. Nakai, 
 T. Vreven, K. Throssell, J. A. Montgomery, Jr., J. E. Peralta, 
 F. Ogliaro, M. J. Bearpark, J. J. Heyd, E. N. Brothers, K. N. Kudin, 
 V. N. Staroverov, T. A. Keith, R. Kobayashi, J. Normand, 
 K. Raghavachari, A. P. Rendell, J. C. Burant, S. S. Iyengar, 
 J. Tomasi, M. Cossi, J. M. Millam, M. Klene, C. Adamo, R. Cammi, 
 J. W. Ochterski, R. L. Martin, K. Morokuma, O. Farkas, 
 J. B. Foresman, and D. J. Fox, Gaussian, Inc., Wallingford CT, 2016.
 
 ******************************************
 Gaussian 16:  ES64L-G16RevA.03 25-Dec-2016
                20-Aug-2025 
 ******************************************
 %chk=ethyl_propiolate_non_planar.chk
 %mem=60GB
 %nprocshared=24
 Will use up to   24 processors via shared memory.
 --------------------------
 # ccsd(t)/6-311++g(d,p) sp
 --------------------------
 1/38=1,172=1/1;
 2/12=2,17=6,18=5,40=1/2;
 3/5=4,6=6,7=1111,11=9,25=1,30=1/1,2,3;
 4//1;
 5/5=2,38=5/2;
 8/6=4,9=120000,10=2/1,4;
 9/5=7,14=2/13;
 6/7=2,8=2,9=2,10=2/1;
 99/5=1,9=1/99;
 -------------------
 Title Card Required
 -------------------
 Symbolic Z-matrix:
 Charge =  0 Multiplicity = 2
 C                     2.74951  -0.40559   0.41725 
 H                     3.79511  -0.41035   0.61985 
 C                     1.57278  -0.36998   0.16895 
 C                     0.16077  -0.59107  -0.13707 
 O                    -0.21046  -1.14296  -1.13239 
 O                    -0.62048  -0.14959   0.84765 
 C                    -2.03976  -0.30056   0.63805 
 C                    -2.56496   0.78548  -0.27914 
 H                    -2.46482  -0.2287    1.63764 
 H                    -2.22921  -1.29508   0.23256 
 H                    -3.64765   0.68851  -0.38059 
 H                    -2.34092   1.77115   0.13119 
 H                    -2.11544   0.70222  -1.26877 
 O                     1.39553   1.74694  -0.41425 
 H                     1.49125   2.05951   0.50041 
 
                          Input orientation:                          
 ---------------------------------------------------------------------
 Center     Atomic      Atomic             Coordinates (Angstroms)
 Number     Number       Type             X           Y           Z
 ---------------------------------------------------------------------
      1          6           0        2.749510   -0.405592    0.417252
      2          1           0        3.795114   -0.410352    0.619849
      3          6           0        1.572778   -0.369979    0.168948
      4          6           0        0.160770   -0.591071   -0.137073
      5          8           0       -0.210460   -1.142958   -1.132389
      6          8           0       -0.620484   -0.149590    0.847650
      7          6           0       -2.039763   -0.300563    0.638050
      8          6           0       -2.564956    0.785475   -0.279139
      9          1           0       -2.464815   -0.228700    1.637641
     10          1           0       -2.229205   -1.295083    0.232560
     11          1           0       -3.647654    0.688505   -0.380586
     12          1           0       -2.340924    1.771149    0.131187
     13          1           0       -2.115440    0.702215   -1.268766
     14          8           0        1.395527    1.746938   -0.414250
     15          1           0        1.491249    2.059512    0.500411
 ---------------------------------------------------------------------
                    Distance matrix (angstroms):
                    1          2          3          4          5
     1  C    0.000000
     2  H    1.065061   0.000000
     3  C    1.203171   2.267977   0.000000
     4  C    2.653913   3.716725   1.461608   0.000000
     5  O    3.421479   4.433021   2.338998   1.197099   0.000000
     6  O    3.406999   4.429153   2.306427   1.332270   2.252877
     7  C    4.795510   5.835938   3.643532   2.351076   2.681498
     8  C    5.490642   6.533657   4.319340   3.056901   3.160782
     9  H    5.358155   6.344731   4.298741   3.189768   3.686604
    10  H    5.060920   6.101243   3.913431   2.518778   2.441630
    11  H    6.538907   7.589674   5.354931   4.025010   3.966581
    12  H    5.543695   6.530597   4.461269   3.451162   3.824594
    13  H    5.266653   6.303913   4.101167   2.852096   2.655600
    14  O    2.675453   3.388404   2.202924   2.658522   3.383255
    15  H    2.768912   3.379687   2.453353   3.033505   3.977143
                    6          7          8          9         10
     6  O    0.000000
     7  C    1.442594   0.000000
     8  C    2.434126   1.515435   0.000000
     9  H    2.007959   1.088584   2.170858   0.000000
    10  H    2.068447   1.090587   2.168706   1.779589   0.000000
    11  H    3.372644   2.145038   1.091755   2.512690   2.514472
    12  H    2.676279   2.153973   1.090922   2.506820   3.069941
    13  H    2.727578   2.155745   1.090119   3.071786   2.501224
    14  O    3.041958   4.135313   4.077756   4.797462   4.776080
    15  H    3.075731   4.249346   4.322461   4.709527   5.016655
                   11         12         13         14         15
    11  H    0.000000
    12  H    1.772448   0.000000
    13  H    1.771082   1.775762   0.000000
    14  O    5.153163   3.776129   3.761454   0.000000
    15  H    5.391117   3.860703   4.240336   0.971324   0.000000
 Stoichiometry    C5H7O3(2)
 Framework group  C1[X(C5H7O3)]
 Deg. of freedom    39
 Full point group                 C1      NOp   1
 Largest Abelian subgroup         C1      NOp   1
 Largest concise Abelian subgroup C1      NOp   1
                         Standard orientation:                         
 ---------------------------------------------------------------------
 Center     Atomic      Atomic             Coordinates (Angstroms)
 Number     Number       Type             X           Y           Z
 ---------------------------------------------------------------------
      1          6           0       -2.811421   -0.440695   -0.390163
      2          1           0       -3.857341   -0.449891   -0.590970
      3          6           0       -1.634287   -0.399598   -0.144627
      4          6           0       -0.221919   -0.613828    0.164595
      5          8           0        0.150574   -1.141132    1.172684
      6          8           0        0.558031   -0.197267   -0.831948
      7          6           0        1.977556   -0.343789   -0.620863
      8          6           0        2.504727    0.764314    0.268373
      9          1           0        2.401092   -0.296905   -1.622579
     10          1           0        2.167119   -1.328079   -0.191190
     11          1           0        3.587531    0.669288    0.370521
     12          1           0        2.280562    1.739660   -0.165862
     13          1           0        2.056705    0.705803    1.260447
     14          8           0       -1.455050    1.730999    0.385758
     15          1           0       -1.552032    2.020906   -0.536206
 ---------------------------------------------------------------------
 Rotational constants (GHZ):           3.4841664           1.3046423           1.1600932
 Standard basis: 6-311++G(d,p) (5D, 7F)
 There are   233 symmetry adapted cartesian basis functions of A   symmetry.
 There are   225 symmetry adapted basis functions of A   symmetry.
   225 basis functions,   351 primitive gaussians,   233 cartesian basis functions
    31 alpha electrons       30 beta electrons
       nuclear repulsion energy       359.9927084007 Hartrees.
 NAtoms=   15 NActive=   15 NUniq=   15 SFac= 1.00D+00 NAtFMM=   60 NAOKFM=F Big=F
 Integral buffers will be    131072 words long.
 Raffenetti 2 integral format.
 Two-electron integral symmetry is turned on.
 One-electron integrals computed using PRISM.
 NBasis=   225 RedAO= T EigKep=  1.05D-06  NBF=   225
 NBsUse=   225 1.00D-06 EigRej= -1.00D+00 NBFU=   225
 ExpMin= 3.60D-02 ExpMax= 8.59D+03 ExpMxC= 1.30D+03 IAcc=3 IRadAn=         5 AccDes= 0.00D+00
 Harris functional with IExCor=  205 and IRadAn=       5 diagonalized for initial guess.
 HarFok:  IExCor=  205 AccDes= 0.00D+00 IRadAn=         5 IDoV= 1 UseB2=F ITyADJ=14
 ICtDFT=  3500011 ScaDFX=  1.000000  1.000000  1.000000  1.000000
 FoFCou: FMM=F IPFlag=           0 FMFlag=      100000 FMFlg1=           0
         NFxFlg=           0 DoJE=T BraDBF=F KetDBF=T FulRan=T
         wScrn=  0.000000 ICntrl=       500 IOpCl=  0 I1Cent=   200000004 NGrid=           0
         NMat0=    1 NMatS0=      1 NMatT0=    0 NMatD0=    1 NMtDS0=    0 NMtDT0=    0
 Petite list used in FoFCou.
 Initial guess <Sx>= 0.0000 <Sy>= 0.0000 <Sz>= 0.5000 <S**2>= 0.7500 S= 0.5000
 Requested convergence on RMS density matrix=1.00D-08 within 128 cycles.
 Requested convergence on MAX density matrix=1.00D-06.
 Requested convergence on             energy=1.00D-06.
 No special actions if energy rises.
 Restarting incremental Fock formation.
 Initial convergence to 1.0D-05 achieved.  Increase integral accuracy.
 Restarting incremental Fock formation.
 SCF Done:  E(UHF) =  -417.986988354     A.U. after   45 cycles
            NFock= 45  Conv=0.18D-08     -V/T= 2.0006
 <Sx>= 0.0000 <Sy>= 0.0000 <Sz>= 0.5000 <S**2>= 0.8776 S= 0.5619
 <L.S>=  0.00000000000    
 Annihilation of the first spin contaminant:
 S**2 before annihilation     0.8776,   after     0.7595
 ExpMin= 3.60D-02 ExpMax= 8.59D+03 ExpMxC= 1.30D+03 IAcc=3 IRadAn=         5 AccDes= 0.00D+00
 HarFok:  IExCor=  205 AccDes= 0.00D+00 IRadAn=         5 IDoV=-2 UseB2=F ITyADJ=14
 ICtDFT= 12500011 ScaDFX=  1.000000  1.000000  1.000000  1.000000
 Range of M.O.s used for correlation:     9   225
 NBasis=   225 NAE=    31 NBE=    30 NFC=     8 NFV=     0
 NROrb=    217 NOA=    23 NOB=    22 NVA=   194 NVB=   195

 **** Warning!!: The largest alpha MO coefficient is  0.22587682D+03


 **** Warning!!: The largest beta MO coefficient is  0.19796275D+03

 Semi-Direct transformation.
 ModeAB=           4 MOrb=            23 LenV=    8051625509
 LASXX=    109339976 LTotXX=   109339976 LenRXX=   221407890
 LTotAB=   112067914 MaxLAS=   129770991 LenRXY=           0
 NonZer=   330747866 LenScr=   498067456 LnRSAI=   129770991
 LnScr1=   195439104 LExtra=           0 Total=   1044685441
 MaxDsk=          -1 SrtSym=           T ITran=            4
 JobTyp=1 Pass  1:  I=   1 to  23.
 (rs|ai) integrals will be sorted in core.
 ModeAB=           4 MOrb=            22 LenV=    8051625509
 LASXX=    104936601 LTotXX=   104936601 LenRXX=   190867446
 LTotAB=    85930845 MaxLAS=   124128774 LenRXY=           0
 NonZer=   295804047 LenScr=   445446144 LnRSAI=   124128774
 LnScr1=   186938880 LExtra=           0 Total=    947381244
 MaxDsk=          -1 SrtSym=           T ITran=            4
 JobTyp=2 Pass  1:  I=   1 to  22.
 (rs|ai) integrals will be sorted in core.
 SymMOI:  orbitals are not symmetric.
 Spin components of T(2) and E(2):
     alpha-alpha T2 =       0.5249388535D-01 E2=     -0.1699820364D+00
     alpha-beta  T2 =       0.2850469969D+00 E2=     -0.9343021524D+00
     beta-beta   T2 =       0.4958272846D-01 E2=     -0.1557283099D+00
 ANorm=    0.1177762120D+01
 E2 =    -0.1260012499D+01 EUMP2 =    -0.41924700085233D+03
 (S**2,0)=  0.87758D+00           (S**2,1)=  0.84116D+00
 E(PUHF)=      -0.41799794994D+03        E(PMP2)=      -0.41925646412D+03
 Keep R2 and R3 ints in memory in canonical form, NReq=652884060.
 CIDS: In Core Option IDoMem=           1.
 Iterations=  50 Convergence= 0.100D-06
 Produce multiple copies of IABC intergrals
 Iteration Nr.   1
 **********************
 DD1Dir will call FoFMem   1 times, MxPair=      1496
 NAB=   506 NAA=   253 NBB=   231.
 E(PMP3)=      -0.41928216521D+03
 MP4(R+Q)=  0.24959199D-01
 E3=       -0.28310747D-01        EUMP3=      -0.41927531160D+03
 E4(DQ)=   -0.56658888D-02        UMP4(DQ)=   -0.41928097749D+03
 E4(SDQ)=  -0.25170112D-01        UMP4(SDQ)=  -0.41930048171D+03
 DE(Corr)=  -1.2628647     E(Corr)=     -419.24985306    
 NORM(A)=   0.11853181D+01
 Iteration Nr.   2
 **********************
 DD1Dir will call FoFMem   1 times, MxPair=      1496
 NAB=   506 NAA=   253 NBB=   231.
 DE(Corr)=  -1.3052937     E(CORR)=     -419.29228210     Delta=-4.24D-02
 NORM(A)=   0.12046260D+01
 Iteration Nr.   3
 **********************
 DD1Dir will call FoFMem   1 times, MxPair=      1496
 NAB=   506 NAA=   253 NBB=   231.
 DE(Corr)=  -1.3075371     E(CORR)=     -419.29452542     Delta=-2.24D-03
 NORM(A)=   0.12134959D+01
 Iteration Nr.   4
 **********************
 DD1Dir will call FoFMem   1 times, MxPair=      1496
 NAB=   506 NAA=   253 NBB=   231.
 DE(Corr)=  -1.3134847     E(CORR)=     -419.30047304     Delta=-5.95D-03
 NORM(A)=   0.12186291D+01
 Iteration Nr.   5
 **********************
 DD1Dir will call FoFMem   1 times, MxPair=      1496
 NAB=   506 NAA=   253 NBB=   231.
 DE(Corr)=  -1.3149148     E(CORR)=     -419.30190318     Delta=-1.43D-03
 NORM(A)=   0.12214259D+01
 Iteration Nr.   6
 **********************
 DD1Dir will call FoFMem   1 times, MxPair=      1496
 NAB=   506 NAA=   253 NBB=   231.
 DE(Corr)=  -1.3153620     E(CORR)=     -419.30235033     Delta=-4.47D-04
 NORM(A)=   0.12219519D+01
 Iteration Nr.   7
 **********************
 DD1Dir will call FoFMem   1 times, MxPair=      1496
 NAB=   506 NAA=   253 NBB=   231.
 DE(Corr)=  -1.3154352     E(CORR)=     -419.30242351     Delta=-7.32D-05
 NORM(A)=   0.12220466D+01
 Iteration Nr.   8
 **********************
 DD1Dir will call FoFMem   1 times, MxPair=      1496
 NAB=   506 NAA=   253 NBB=   231.
 DE(Corr)=  -1.3154194     E(CORR)=     -419.30240773     Delta= 1.58D-05
 NORM(A)=   0.12220779D+01
 Iteration Nr.   9
 **********************
 DD1Dir will call FoFMem   1 times, MxPair=      1496
 NAB=   506 NAA=   253 NBB=   231.
 DE(Corr)=  -1.3154296     E(CORR)=     -419.30241799     Delta=-1.03D-05
 NORM(A)=   0.12220712D+01
 Iteration Nr.  10
 **********************
 DD1Dir will call FoFMem   1 times, MxPair=      1496
 NAB=   506 NAA=   253 NBB=   231.
 DE(Corr)=  -1.3154265     E(CORR)=     -419.30241487     Delta= 3.13D-06
 NORM(A)=   0.12220656D+01
 Iteration Nr.  11
 **********************
 DD1Dir will call FoFMem   1 times, MxPair=      1496
 NAB=   506 NAA=   253 NBB=   231.
 DE(Corr)=  -1.3154363     E(CORR)=     -419.30242461     Delta=-9.74D-06
 NORM(A)=   0.12220671D+01
 Iteration Nr.  12
 **********************
 DD1Dir will call FoFMem   1 times, MxPair=      1496
 NAB=   506 NAA=   253 NBB=   231.
 DE(Corr)=  -1.3154342     E(CORR)=     -419.30242256     Delta= 2.04D-06
 NORM(A)=   0.12220811D+01
 Iteration Nr.  13
 **********************
 DD1Dir will call FoFMem   1 times, MxPair=      1496
 NAB=   506 NAA=   253 NBB=   231.
 DE(Corr)=  -1.3154401     E(CORR)=     -419.30242848     Delta=-5.91D-06
 NORM(A)=   0.12221135D+01
 Iteration Nr.  14
 **********************
 DD1Dir will call FoFMem   1 times, MxPair=      1496
 NAB=   506 NAA=   253 NBB=   231.
 DE(Corr)=  -1.3154447     E(CORR)=     -419.30243309     Delta=-4.62D-06
 NORM(A)=   0.12221528D+01
 Iteration Nr.  15
 **********************
 DD1Dir will call FoFMem   1 times, MxPair=      1496
 NAB=   506 NAA=   253 NBB=   231.
 DE(Corr)=  -1.3154481     E(CORR)=     -419.30243647     Delta=-3.37D-06
 NORM(A)=   0.12221828D+01
 Iteration Nr.  16
 **********************
 DD1Dir will call FoFMem   1 times, MxPair=      1496
 NAB=   506 NAA=   253 NBB=   231.
 DE(Corr)=  -1.3154544     E(CORR)=     -419.30244276     Delta=-6.29D-06
 NORM(A)=   0.12221926D+01
 Iteration Nr.  17
 **********************
 DD1Dir will call FoFMem   1 times, MxPair=      1496
 NAB=   506 NAA=   253 NBB=   231.
 DE(Corr)=  -1.3154533     E(CORR)=     -419.30244166     Delta= 1.10D-06
 NORM(A)=   0.12221923D+01
 Iteration Nr.  18
 **********************
 DD1Dir will call FoFMem   1 times, MxPair=      1496
 NAB=   506 NAA=   253 NBB=   231.
 DE(Corr)=  -1.3154536     E(CORR)=     -419.30244197     Delta=-3.15D-07
 NORM(A)=   0.12221885D+01
 Iteration Nr.  19
 **********************
 DD1Dir will call FoFMem   1 times, MxPair=      1496
 NAB=   506 NAA=   253 NBB=   231.
 DE(Corr)=  -1.3154522     E(CORR)=     -419.30244060     Delta= 1.38D-06
 NORM(A)=   0.12221851D+01
 Iteration Nr.  20
 **********************
 DD1Dir will call FoFMem   1 times, MxPair=      1496
 NAB=   506 NAA=   253 NBB=   231.
 DE(Corr)=  -1.3154515     E(CORR)=     -419.30243982     Delta= 7.84D-07
 NORM(A)=   0.12221826D+01
 Iteration Nr.  21
 **********************
 DD1Dir will call FoFMem   1 times, MxPair=      1496
 NAB=   506 NAA=   253 NBB=   231.
 DE(Corr)=  -1.3154509     E(CORR)=     -419.30243927     Delta= 5.47D-07
 NORM(A)=   0.12221816D+01
 Iteration Nr.  22
 **********************
 DD1Dir will call FoFMem   1 times, MxPair=      1496
 NAB=   506 NAA=   253 NBB=   231.
 DE(Corr)=  -1.3154507     E(CORR)=     -419.30243901     Delta= 2.59D-07
 NORM(A)=   0.12221816D+01
 Iteration Nr.  23
 **********************
 DD1Dir will call FoFMem   1 times, MxPair=      1496
 NAB=   506 NAA=   253 NBB=   231.
 DE(Corr)=  -1.3154507     E(CORR)=     -419.30243907     Delta=-6.09D-08
 NORM(A)=   0.12221823D+01
 Wavefunction amplitudes converged. E(Corr)=     -419.30243907    
 Largest amplitude= 6.86D-02
 Time for triples=    76538.99 seconds.
 T4(CCSD)= -0.56633411D-01
 T5(CCSD)=  0.36479100D-02
 CCSD(T)= -0.41935542457D+03

 S**2, projected HF & approx projected MPn energies after annihilation of
 unwanted spin states (see manual for definitions):

 spins       (S**2,0) (S**2,1)    PUHF        PMP2        PMP3        PMP4
 annihilated
 s+1         0.74437  0.74810 -417.997950 -419.256464 -419.282165
 s+1,s+2     0.75006  0.74999 -417.997492 -419.256037 -419.281777
 s+1 to s+3  0.75000  0.75000 -417.997498 -419.256041 -419.281779
 s+1 to s+4  0.75000  0.75000 -417.997498 -419.256041 -419.281779
 s+1 to s+5  0.75000  0.75000 -417.997498
 s+1 to s+6  0.75000  0.75000 -417.997498

 Discarding MO integrals.

 **********************************************************************

            Population analysis using the SCF density.

 **********************************************************************

 Orbital symmetries:
 Alpha Orbitals:
       Occupied  (A) (A) (A) (A) (A) (A) (A) (A) (A) (A) (A) (A)
                 (A) (A) (A) (A) (A) (A) (A) (A) (A) (A) (A) (A)
                 (A) (A) (A) (A) (A) (A) (A)
       Virtual   (A) (A) (A) (A) (A) (A) (A) (A) (A) (A) (A) (A)
                 (A) (A) (A) (A) (A) (A) (A) (A) (A) (A) (A) (A)
                 (A) (A) (A) (A) (A) (A) (A) (A) (A) (A) (A) (A)
                 (A) (A) (A) (A) (A) (A) (A) (A) (A) (A) (A) (A)
                 (A) (A) (A) (A) (A) (A) (A) (A) (A) (A) (A) (A)
                 (A) (A) (A) (A) (A) (A) (A) (A) (A) (A) (A) (A)
                 (A) (A) (A) (A) (A) (A) (A) (A) (A) (A) (A) (A)
                 (A) (A) (A) (A) (A) (A) (A) (A) (A) (A) (A) (A)
                 (A) (A) (A) (A) (A) (A) (A) (A) (A) (A) (A) (A)
                 (A) (A) (A) (A) (A) (A) (A) (A) (A) (A) (A) (A)
                 (A) (A) (A) (A) (A) (A) (A) (A) (A) (A) (A) (A)
                 (A) (A) (A) (A) (A) (A) (A) (A) (A) (A) (A) (A)
                 (A) (A) (A) (A) (A) (A) (A) (A) (A) (A) (A) (A)
                 (A) (A) (A) (A) (A) (A) (A) (A) (A) (A) (A) (A)
                 (A) (A) (A) (A) (A) (A) (A) (A) (A) (A) (A) (A)
                 (A) (A) (A) (A) (A) (A) (A) (A) (A) (A) (A) (A)
                 (A) (A)
 Beta  Orbitals:
       Occupied  (A) (A) (A) (A) (A) (A) (A) (A) (A) (A) (A) (A)
                 (A) (A) (A) (A) (A) (A) (A) (A) (A) (A) (A) (A)
                 (A) (A) (A) (A) (A) (A)
       Virtual   (A) (A) (A) (A) (A) (A) (A) (A) (A) (A) (A) (A)
                 (A) (A) (A) (A) (A) (A) (A) (A) (A) (A) (A) (A)
                 (A) (A) (A) (A) (A) (A) (A) (A) (A) (A) (A) (A)
                 (A) (A) (A) (A) (A) (A) (A) (A) (A) (A) (A) (A)
                 (A) (A) (A) (A) (A) (A) (A) (A) (A) (A) (A) (A)
                 (A) (A) (A) (A) (A) (A) (A) (A) (A) (A) (A) (A)
                 (A) (A) (A) (A) (A) (A) (A) (A) (A) (A) (A) (A)
                 (A) (A) (A) (A) (A) (A) (A) (A) (A) (A) (A) (A)
                 (A) (A) (A) (A) (A) (A) (A) (A) (A) (A) (A) (A)
                 (A) (A) (A) (A) (A) (A) (A) (A) (A) (A) (A) (A)
                 (A) (A) (A) (A) (A) (A) (A) (A) (A) (A) (A) (A)
                 (A) (A) (A) (A) (A) (A) (A) (A) (A) (A) (A) (A)
                 (A) (A) (A) (A) (A) (A) (A) (A) (A) (A) (A) (A)
                 (A) (A) (A) (A) (A) (A) (A) (A) (A) (A) (A) (A)
                 (A) (A) (A) (A) (A) (A) (A) (A) (A) (A) (A) (A)
                 (A) (A) (A) (A) (A) (A) (A) (A) (A) (A) (A) (A)
                 (A) (A) (A)
 The electronic state is 2-A.
 Alpha  occ. eigenvalues --  -20.62837 -20.61292 -20.55708 -11.41480 -11.29714
 Alpha  occ. eigenvalues --  -11.26798 -11.25776 -11.22461  -1.48135  -1.38515
 Alpha  occ. eigenvalues --   -1.37847  -1.07810  -1.04245  -0.92649  -0.83792
 Alpha  occ. eigenvalues --   -0.76462  -0.73066  -0.69496  -0.68183  -0.66936
 Alpha  occ. eigenvalues --   -0.64930  -0.63121  -0.58223  -0.55850  -0.54025
 Alpha  occ. eigenvalues --   -0.53855  -0.50498  -0.47746  -0.46175  -0.42903
 Alpha  occ. eigenvalues --   -0.42089
 Alpha virt. eigenvalues --    0.03652   0.04394   0.05604   0.06282   0.07306
 Alpha virt. eigenvalues --    0.08881   0.09441   0.09979   0.10905   0.11572
 Alpha virt. eigenvalues --    0.13471   0.13714   0.14357   0.15697   0.16445
 Alpha virt. eigenvalues --    0.17170   0.17992   0.18425   0.18753   0.19422
 Alpha virt. eigenvalues --    0.20477   0.20971   0.22205   0.22353   0.22516
 Alpha virt. eigenvalues --    0.24031   0.25042   0.27625   0.27783   0.29269
 Alpha virt. eigenvalues --    0.29706   0.30220   0.32240   0.32542   0.33376
 Alpha virt. eigenvalues --    0.35613   0.36325   0.37479   0.38267   0.39067
 Alpha virt. eigenvalues --    0.40515   0.41382   0.41721   0.42698   0.43774
 Alpha virt. eigenvalues --    0.45642   0.46364   0.47450   0.48274   0.50435
 Alpha virt. eigenvalues --    0.52048   0.53815   0.58058   0.60345   0.61453
 Alpha virt. eigenvalues --    0.63478   0.65071   0.68411   0.70486   0.71941
 Alpha virt. eigenvalues --    0.74567   0.75968   0.79787   0.81479   0.83096
 Alpha virt. eigenvalues --    0.85845   0.86713   0.87257   0.88379   0.89746
 Alpha virt. eigenvalues --    0.90954   0.91775   0.93232   0.93997   0.97459
 Alpha virt. eigenvalues --    1.01471   1.06089   1.08076   1.12607   1.16349
 Alpha virt. eigenvalues --    1.19904   1.21543   1.25172   1.26914   1.30294
 Alpha virt. eigenvalues --    1.33219   1.37105   1.39072   1.39691   1.43029
 Alpha virt. eigenvalues --    1.44378   1.44962   1.49553   1.52235   1.54065
 Alpha virt. eigenvalues --    1.55878   1.56860   1.57661   1.58308   1.64247
 Alpha virt. eigenvalues --    1.67117   1.70545   1.72145   1.72930   1.75900
 Alpha virt. eigenvalues --    1.80794   1.81782   1.83793   1.85260   1.88066
 Alpha virt. eigenvalues --    1.90256   1.90811   1.94704   1.96262   1.99397
 Alpha virt. eigenvalues --    2.00318   2.06161   2.09018   2.12297   2.13618
 Alpha virt. eigenvalues --    2.18057   2.22906   2.25204   2.30268   2.33104
 Alpha virt. eigenvalues --    2.34272   2.37732   2.42315   2.49179   2.60509
 Alpha virt. eigenvalues --    2.64236   2.70592   2.77735   2.81760   2.83015
 Alpha virt. eigenvalues --    2.84807   2.85953   2.91102   2.92821   2.94223
 Alpha virt. eigenvalues --    2.95755   2.97337   3.01880   3.04106   3.06871
 Alpha virt. eigenvalues --    3.12076   3.13618   3.16022   3.19977   3.23964
 Alpha virt. eigenvalues --    3.25299   3.28253   3.31422   3.35357   3.37222
 Alpha virt. eigenvalues --    3.40886   3.43847   3.47408   3.48287   3.51700
 Alpha virt. eigenvalues --    3.59327   3.60312   3.66130   3.71663   3.73379
 Alpha virt. eigenvalues --    3.79904   3.90654   4.02064   4.12907   4.21812
 Alpha virt. eigenvalues --    4.22329   4.23203   4.28059   4.40762   4.51499
 Alpha virt. eigenvalues --    4.58065   4.67354   5.52883   5.55377   5.61520
 Alpha virt. eigenvalues --    5.65634   5.77716   5.93426   6.00838   6.21671
 Alpha virt. eigenvalues --    6.43122  24.70217  25.00968  25.02013  25.14771
 Alpha virt. eigenvalues --   26.25016  51.51839  51.60615  51.72346
  Beta  occ. eigenvalues --  -20.61296 -20.58788 -20.56054 -11.41218 -11.29714
  Beta  occ. eigenvalues --  -11.26999 -11.25343 -11.22462  -1.48278  -1.38397
  Beta  occ. eigenvalues --   -1.23546  -1.07855  -1.03701  -0.92018  -0.83523
  Beta  occ. eigenvalues --   -0.76365  -0.72355  -0.69690  -0.66857  -0.63569
  Beta  occ. eigenvalues --   -0.63032  -0.58492  -0.55391  -0.54112  -0.50668
  Beta  occ. eigenvalues --   -0.50553  -0.48203  -0.47100  -0.43050  -0.42435
  Beta virt. eigenvalues --    0.03686   0.04339   0.04991   0.06283   0.07071
  Beta virt. eigenvalues --    0.08422   0.09300   0.09505   0.10613   0.11124
  Beta virt. eigenvalues --    0.12299   0.13616   0.13904   0.15087   0.15829
  Beta virt. eigenvalues --    0.16614   0.17317   0.18317   0.18636   0.18795
  Beta virt. eigenvalues --    0.19701   0.20925   0.21044   0.22208   0.22492
  Beta virt. eigenvalues --    0.22916   0.24281   0.25227   0.27396   0.28309
  Beta virt. eigenvalues --    0.29750   0.30179   0.30659   0.32144   0.33245
  Beta virt. eigenvalues --    0.33979   0.35682   0.36505   0.37863   0.39102
  Beta virt. eigenvalues --    0.39339   0.40592   0.41493   0.42537   0.42843
  Beta virt. eigenvalues --    0.43637   0.45540   0.46267   0.47494   0.48242
  Beta virt. eigenvalues --    0.50508   0.52745   0.53827   0.58059   0.60397
  Beta virt. eigenvalues --    0.61578   0.63784   0.65211   0.68656   0.70805
  Beta virt. eigenvalues --    0.72719   0.76412   0.77540   0.80247   0.81818
  Beta virt. eigenvalues --    0.83519   0.86069   0.86831   0.87203   0.88434
  Beta virt. eigenvalues --    0.89797   0.90363   0.91452   0.93143   0.94041
  Beta virt. eigenvalues --    0.97316   1.01895   1.05788   1.08666   1.13036
  Beta virt. eigenvalues --    1.16769   1.20937   1.22239   1.25291   1.30684
  Beta virt. eigenvalues --    1.32523   1.33999   1.37183   1.39830   1.40441
  Beta virt. eigenvalues --    1.42822   1.44814   1.45898   1.49716   1.53303
  Beta virt. eigenvalues --    1.55545   1.56531   1.57725   1.58285   1.59828
  Beta virt. eigenvalues --    1.65327   1.67577   1.71305   1.72797   1.74768
  Beta virt. eigenvalues --    1.76769   1.80787   1.81787   1.83862   1.85232
  Beta virt. eigenvalues --    1.87955   1.90017   1.90729   1.94669   1.96225
  Beta virt. eigenvalues --    1.99347   2.00652   2.06219   2.09125   2.12280
  Beta virt. eigenvalues --    2.13980   2.18001   2.23428   2.25314   2.30460
  Beta virt. eigenvalues --    2.33424   2.35740   2.37852   2.42328   2.49201
  Beta virt. eigenvalues --    2.60523   2.64246   2.70826   2.77754   2.81626
  Beta virt. eigenvalues --    2.83000   2.84813   2.85998   2.91657   2.92828
  Beta virt. eigenvalues --    2.94320   2.95780   2.97390   3.02195   3.04434
  Beta virt. eigenvalues --    3.07359   3.12353   3.15681   3.19606   3.22876
  Beta virt. eigenvalues --    3.27184   3.29316   3.30350   3.31449   3.37072
  Beta virt. eigenvalues --    3.40640   3.40800   3.45906   3.48796   3.50044
  Beta virt. eigenvalues --    3.55136   3.60007   3.61227   3.66128   3.72004
  Beta virt. eigenvalues --    3.73227   3.79399   3.91309   4.01943   4.12871
  Beta virt. eigenvalues --    4.21904   4.22520   4.25823   4.28480   4.40764
  Beta virt. eigenvalues --    4.51397   4.58046   4.67350   5.56445   5.60523
  Beta virt. eigenvalues --    5.64960   5.67625   5.77534   5.93415   6.03420
  Beta virt. eigenvalues --    6.21601   6.43046  24.70191  25.01146  25.02040
  Beta virt. eigenvalues --   25.14771  26.25172  51.54106  51.60651  51.72163
          Condensed to atoms (all electrons):
               1          2          3          4          5          6
     1  C   38.519904   0.873905 -13.799011 -17.706040   0.130517   0.136451
     2  H    0.873905   0.414327  -0.359320  -0.119311  -0.002396  -0.002717
     3  C  -13.799011  -0.359320  20.797571  -2.581795   0.415863  -0.195936
     4  C  -17.706040  -0.119311  -2.581795  26.726409  -0.120928  -0.066498
     5  O    0.130517  -0.002396   0.415863  -0.120928   8.019805  -0.112442
     6  O    0.136451  -0.002717  -0.195936  -0.066498  -0.112442   8.288923
     7  C   -0.226799  -0.000475  -0.509946   0.569311   0.013334   0.181875
     8  C    0.155852  -0.000156   0.169540  -0.408465  -0.048930  -0.074495
     9  H    0.004363   0.000168   0.007030  -0.012408   0.003224  -0.078784
    10  H   -0.039904  -0.000336  -0.088449   0.114644  -0.025490  -0.019635
    11  H    0.005669   0.000013   0.008144  -0.014568  -0.001063   0.015563
    12  H   -0.007894   0.000017  -0.015329   0.020663   0.002331  -0.004586
    13  H    0.021676   0.000014   0.024087  -0.067666  -0.001596  -0.010964
    14  O   -0.132336  -0.001253   0.255936  -0.230557  -0.007017   0.022884
    15  H   -0.104693  -0.002644   0.073838   0.050162  -0.000240  -0.001845
               7          8          9         10         11         12
     1  C   -0.226799   0.155852   0.004363  -0.039904   0.005669  -0.007894
     2  H   -0.000475  -0.000156   0.000168  -0.000336   0.000013   0.000017
     3  C   -0.509946   0.169540   0.007030  -0.088449   0.008144  -0.015329
     4  C    0.569311  -0.408465  -0.012408   0.114644  -0.014568   0.020663
     5  O    0.013334  -0.048930   0.003224  -0.025490  -0.001063   0.002331
     6  O    0.181875  -0.074495  -0.078784  -0.019635   0.015563  -0.004586
     7  C    5.432660  -0.080347   0.440001   0.453373  -0.046128  -0.022333
     8  C   -0.080347   5.515538  -0.050875  -0.042433   0.403920   0.408039
     9  H    0.440001  -0.050875   0.555239  -0.036010   0.003100  -0.007267
    10  H    0.453373  -0.042433  -0.036010   0.514787  -0.004776   0.001007
    11  H   -0.046128   0.403920   0.003100  -0.004776   0.554096  -0.032836
    12  H   -0.022333   0.408039  -0.007267   0.001007  -0.032836   0.569081
    13  H   -0.036770   0.416271   0.007410  -0.003485  -0.033942  -0.045183
    14  O   -0.020195   0.027225  -0.000359  -0.001291   0.002064  -0.001672
    15  H    0.002507   0.000154   0.000428  -0.000328   0.000014  -0.001082
              13         14         15
     1  C    0.021676  -0.132336  -0.104693
     2  H    0.000014  -0.001253  -0.002644
     3  C    0.024087   0.255936   0.073838
     4  C   -0.067666  -0.230557   0.050162
     5  O   -0.001596  -0.007017  -0.000240
     6  O   -0.010964   0.022884  -0.001845
     7  C   -0.036770  -0.020195   0.002507
     8  C    0.416271   0.027225   0.000154
     9  H    0.007410  -0.000359   0.000428
    10  H   -0.003485  -0.001291  -0.000328
    11  H   -0.033942   0.002064   0.000014
    12  H   -0.045183  -0.001672  -0.001082
    13  H    0.544860  -0.002207   0.000330
    14  O   -0.002207   7.963083   0.283652
    15  H    0.000330   0.283652   0.479446
          Atomic-Atomic Spin Densities.
               1          2          3          4          5          6
     1  C    0.040426  -0.068047   0.481359   0.481782   0.004185  -0.040133
     2  H   -0.068047  -0.045836   0.049842   0.016339   0.000221  -0.000512
     3  C    0.481359   0.049842  -1.120876  -0.104824  -0.001899   0.031302
     4  C    0.481782   0.016339  -0.104824  -0.380376   0.017946  -0.005213
     5  O    0.004185   0.000221  -0.001899   0.017946  -0.095238  -0.000658
     6  O   -0.040133  -0.000512   0.031302  -0.005213  -0.000658   0.012399
     7  C    0.007027   0.000444  -0.019167  -0.000955   0.001953   0.000921
     8  C   -0.004122  -0.000265   0.018406  -0.008839   0.000356  -0.000684
     9  H    0.000628   0.000012   0.000735  -0.001692   0.000211   0.000492
    10  H    0.001379  -0.000020   0.005200  -0.005131   0.000121   0.000280
    11  H   -0.000328  -0.000008   0.000196   0.000488   0.000039  -0.000040
    12  H   -0.002058   0.000006  -0.002778   0.004757  -0.000143  -0.000033
    13  H   -0.000541   0.000046  -0.005886   0.005010  -0.000090  -0.000100
    14  O   -0.268753  -0.002858   0.047352   0.156163   0.001286   0.002117
    15  H    0.039814   0.000361  -0.010464  -0.027430  -0.000051  -0.000117
               7          8          9         10         11         12
     1  C    0.007027  -0.004122   0.000628   0.001379  -0.000328  -0.002058
     2  H    0.000444  -0.000265   0.000012  -0.000020  -0.000008   0.000006
     3  C   -0.019167   0.018406   0.000735   0.005200   0.000196  -0.002778
     4  C   -0.000955  -0.008839  -0.001692  -0.005131   0.000488   0.004757
     5  O    0.001953   0.000356   0.000211   0.000121   0.000039  -0.000143
     6  O    0.000921  -0.000684   0.000492   0.000280  -0.000040  -0.000033
     7  C    0.012364  -0.003512   0.000881  -0.002426  -0.001557   0.000386
     8  C   -0.003512  -0.001881  -0.000724   0.000687   0.001681   0.000184
     9  H    0.000881  -0.000724  -0.000633  -0.000389   0.000027   0.000149
    10  H   -0.002426   0.000687  -0.000389   0.000140   0.000063   0.000046
    11  H   -0.001557   0.001681   0.000027   0.000063  -0.000022  -0.000221
    12  H    0.000386   0.000184   0.000149   0.000046  -0.000221  -0.000131
    13  H    0.000969   0.000614   0.000121  -0.000036  -0.000352  -0.000185
    14  O    0.005744  -0.002275   0.000293  -0.000017  -0.000060  -0.000111
    15  H   -0.001197   0.000686  -0.000129   0.000012   0.000043   0.000010
              13         14         15
     1  C   -0.000541  -0.268753   0.039814
     2  H    0.000046  -0.002858   0.000361
     3  C   -0.005886   0.047352  -0.010464
     4  C    0.005010   0.156163  -0.027430
     5  O   -0.000090   0.001286  -0.000051
     6  O   -0.000100   0.002117  -0.000117
     7  C    0.000969   0.005744  -0.001197
     8  C    0.000614  -0.002275   0.000686
     9  H    0.000121   0.000293  -0.000129
    10  H   -0.000036  -0.000017   0.000012
    11  H   -0.000352  -0.000060   0.000043
    12  H   -0.000185  -0.000111   0.000010
    13  H   -0.000071   0.000314  -0.000310
    14  O    0.000314   1.020892   0.009875
    15  H   -0.000310   0.009875  -0.049590
 Mulliken charges and spin densities:
               1          2
     1  C   -1.831659   0.672618
     2  H    0.200163  -0.050276
     3  C    1.797777  -0.631503
     4  C   -0.152953   0.148023
     5  O   -0.264974  -0.071759
     6  O   -0.077795   0.000020
     7  C   -0.150068   0.001873
     8  C   -0.390839   0.000311
     9  H    0.164741  -0.000016
    10  H    0.178326  -0.000094
    11  H    0.140729  -0.000052
    12  H    0.137044  -0.000123
    13  H    0.187165  -0.000496
    14  O   -0.157958   0.969961
    15  H    0.220301  -0.038489
 Sum of Mulliken charges =  -0.00000   1.00000
 Mulliken charges and spin densities with hydrogens summed into heavy atoms:
               1          2
     1  C   -1.631496   0.622342
     3  C    1.797777  -0.631503
     4  C   -0.152953   0.148023
     5  O   -0.264974  -0.071759
     6  O   -0.077795   0.000020
     7  C    0.193000   0.001763
     8  C    0.074098  -0.000359
    14  O    0.062343   0.931473
 Electronic spatial extent (au):  <R**2>=           1079.5442
 Charge=             -0.0000 electrons
 Dipole moment (field-independent basis, Debye):
    X=              0.0623    Y=              1.2641    Z=             -3.1626  Tot=              3.4065
 Quadrupole moment (field-independent basis, Debye-Ang):
   XX=            -33.5961   YY=            -47.4868   ZZ=            -51.7099
   XY=             -0.0714   XZ=              2.9273   YZ=             -0.1740
 Traceless Quadrupole moment (field-independent basis, Debye-Ang):
   XX=             10.6682   YY=             -3.2225   ZZ=             -7.4457
   XY=             -0.0714   XZ=              2.9273   YZ=             -0.1740
 Octapole moment (field-independent basis, Debye-Ang**2):
  XXX=            -26.9034  YYY=             13.7704  ZZZ=             -1.4147  XYY=              0.6200
  XXY=             -4.2633  XXZ=            -14.4562  XZZ=              3.2675  YZZ=              6.6052
  YYZ=             -9.8319  XYZ=              5.5169
 Hexadecapole moment (field-independent basis, Debye-Ang**3):
 XXXX=           -765.1219 YYYY=           -256.3304 ZZZZ=           -167.2305 XXXY=              3.4416
 XXXZ=             32.6866 YYYX=            -26.9849 YYYZ=            -11.5006 ZZZX=             -8.1721
 ZZZY=              1.1435 XXYY=           -213.8010 XXZZ=           -190.0762 YYZZ=            -77.2151
 XXYZ=             -5.9078 YYXZ=              8.4294 ZZXY=             -5.9164
 N-N= 3.599927084007D+02 E-N=-1.703149421053D+03  KE= 4.177268464690D+02
 1\1\GINC-CHEM-LAB-HP-Z2-TOWER-G9-WORKSTATION-DESKTOP-PC\SP\UCCSD(T)-FC
 \6-311++G(d,p)\C5H7O3(2)\CHEM-LAB\20-Aug-2025\0\\# ccsd(t)/6-311++g(d,
 p) sp\\Title Card Required\\0,2\C,0,2.74951,-0.405592,0.417252\H,0,3.7
 95114,-0.410352,0.619849\C,0,1.572778,-0.369979,0.168948\C,0,0.16077,-
 0.591071,-0.137073\O,0,-0.21046,-1.142958,-1.132389\O,0,-0.620484,-0.1
 4959,0.84765\C,0,-2.039763,-0.300563,0.63805\C,0,-2.564956,0.785475,-0
 .279139\H,0,-2.464815,-0.2287,1.637641\H,0,-2.229205,-1.295083,0.23256
 \H,0,-3.647654,0.688505,-0.380586\H,0,-2.340924,1.771149,0.131187\H,0,
 -2.11544,0.702215,-1.268766\O,0,1.395527,1.746938,-0.41425\H,0,1.49124
 9,2.059512,0.500411\\Version=ES64L-G16RevA.03\State=2-A\HF=-417.986988
 4\MP2=-419.2470009\MP3=-419.2753116\MP4D=-419.3059367\MP4DQ=-419.28097
 75\PUHF=-417.9979499\PMP2-0=-419.2564641\PMP3-0=-419.2821652\MP4SDQ=-4
 19.3004817\CCSD=-419.3024391\CCSD(T)=-419.3554246\S2=0.877579\S2-1=0.8
 41163\S2A=0.759527\RMSD=1.764e-09\PG=C01 [X(C5H7O3)]\\@


 I WOULD TAKE COUNSEL OF MYSELF.
 I WOULD STOP AND LOOK WITHIN
 AND LOOKING WITHIN, LOOK BACK, ALSO
 THAT I MAY LOOK AHEAD WITH CLEARER UNDERSTANDING
 OF THE WAY I HAVE BEEN MOVING, AND IN WHAT DIRECTION.
 I NEED TO KNOW IF I AM GOING FORWARD OR RETREATING,
 WHETHER I HAVE BEEN WASTING, OR ENJOYING
 THE PRECIOUS MOMENTS OF LIFE.  THERE HAVE BEEN FRICTIONS,
 ANNOYANCES AND SOMETIMES WRATH,
 BUT WERE THEY BECAUSE I WAS RIGHT AND OTHERS WRONG.....
 HAVE I HAD MY THOUGHTS TOO SHARPLY FOCUSED
 ON THAT WHICH PLEASED ME, SERVED MY SELF-ESTEEM,
 UNDERGIRDED MY SECURITY,
 OF WHICH I DID NOT INQUIRE WHETHER IT SERVED OR HAMPERED OTHERS.....
 HAVE I BEEN TRYING TO STOP THE CLOCK
 TO HOLD THE WORLD
 IN PERPETUATION OF WHAT WAS AN IS ALREADY SLIPPING AWAY.....
 HAVE I BEEN CRITICAL OF OTHERS FOR WHAT REALLY NEEDED CHANGING IN ME...
 LET ME INDEED TAKE COUNSEL OF MYSELF
 AND SET MY DIRECTIONS STRAIGHT.

                          R.T. WESTON AS ADAPTED BY D. OSBORN 1967
 Job cpu time:       1 days  4 hours 52 minutes 56.1 seconds.
 Elapsed time:       0 days  1 hours 15 minutes 58.6 seconds.
 File lengths (MBytes):  RWF=  44733 Int=      0 D2E=      0 Chk=      6 Scr=      1
 Normal termination of Gaussian 16 at Wed Aug 20 12:38:08 2025.
