 Entering Gaussian System, Link 0=g16
 Initial command:
 /opt/g16/l1.exe "/home/aayush/scratches/g16/Gau-58011.inp" -scrdir="/home/aayush/scratches/g16/"
 Entering Link 1 = /opt/g16/l1.exe PID=     58014.
  
 Copyright (c) 1988,1990,1992,1993,1995,1998,2003,2009,2016,
            Gaussian, Inc.  All Rights Reserved.
  
 This is part of the Gaussian(R) 16 program.  It is based on
 the Gaussian(R) 09 system (copyright 2009, Gaussian, Inc.),
 the Gaussian(R) 03 system (copyright 2003, Gaussian, Inc.),
 the Gaussian(R) 98 system (copyright 1998, Gaussian, Inc.),
 the Gaussian(R) 94 system (copyright 1995, Gaussian, Inc.),
 the Gaussian 92(TM) system (copyright 1992, Gaussian, Inc.),
 the Gaussian 90(TM) system (copyright 1990, Gaussian, Inc.),
 the Gaussian 88(TM) system (copyright 1988, Gaussian, Inc.),
 the Gaussian 86(TM) system (copyright 1986, Carnegie Mellon
 University), and the Gaussian 82(TM) system (copyright 1983,
 Carnegie Mellon University). Gaussian is a federally registered
 trademark of Gaussian, Inc.
  
 This software contains proprietary and confidential information,
 including trade secrets, belonging to Gaussian, Inc.
  
 This software is provided under written license and may be
 used, copied, transmitted, or stored only in accord with that
 written license.
  
 The following legend is applicable only to US Government
 contracts under FAR:
  
                    RESTRICTED RIGHTS LEGEND
  
 Use, reproduction and disclosure by the US Government is
 subject to restrictions as set forth in subparagraphs (a)
 and (c) of the Commercial Computer Software - Restricted
 Rights clause in FAR 52.227-19.
  
 Gaussian, Inc.
 340 Quinnipiac St., Bldg. 40, Wallingford CT 06492
  
  
 ---------------------------------------------------------------
 Warning -- This program may not be used in any manner that
 competes with the business of Gaussian, Inc. or will provide
 assistance to any competitor of Gaussian, Inc.  The licensee
 of this program is prohibited from giving any competitor of
 Gaussian, Inc. access to this program.  By using this program,
 the user acknowledges that Gaussian, Inc. is engaged in the
 business of creating and licensing software in the field of
 computational chemistry and represents and warrants to the
 licensee that it is not a competitor of Gaussian, Inc. and that
 it will not use this program in any manner prohibited above.
 ---------------------------------------------------------------
  

 Cite this work as:
 Gaussian 16, Revision A.03,
 M. J. Frisch, G. W. Trucks, H. B. Schlegel, G. E. Scuseria, 
 M. A. Robb, J. R. Cheeseman, G. Scalmani, V. Barone, 
 G. A. Petersson, H. Nakatsuji, X. Li, M. Caricato, A. V. Marenich, 
 J. Bloino, B. G. Janesko, R. Gomperts, B. Mennucci, H. P. Hratchian, 
 J. V. Ortiz, A. F. Izmaylov, J. L. Sonnenberg, D. Williams-Young, 
 F. Ding, F. Lipparini, F. Egidi, J. Goings, B. Peng, A. Petrone, 
 T. Henderson, D. Ranasinghe, V. G. Zakrzewski, J. Gao, N. Rega, 
 G. Zheng, W. Liang, M. Hada, M. Ehara, K. Toyota, R. Fukuda, 
 J. Hasegawa, M. Ishida, T. Nakajima, Y. Honda, O. Kitao, H. Nakai, 
 T. Vreven, K. Throssell, J. A. Montgomery, Jr., J. E. Peralta, 
 F. Ogliaro, M. J. Bearpark, J. J. Heyd, E. N. Brothers, K. N. Kudin, 
 V. N. Staroverov, T. A. Keith, R. Kobayashi, J. Normand, 
 K. Raghavachari, A. P. Rendell, J. C. Burant, S. S. Iyengar, 
 J. Tomasi, M. Cossi, J. M. Millam, M. Klene, C. Adamo, R. Cammi, 
 J. W. Ochterski, R. L. Martin, K. Morokuma, O. Farkas, 
 J. B. Foresman, and D. J. Fox, Gaussian, Inc., Wallingford CT, 2016.
 
 ******************************************
 Gaussian 16:  ES64L-G16RevA.03 25-Dec-2016
                20-Jun-2025 
 ******************************************
 %nprocshared=24
 Will use up to   24 processors via shared memory.
 %mem=12GB
 %chk=ethyl_propiolate_ts1.chk
 -------------------
 # freq 6-31+g m062x
 -------------------
 1/10=4,30=1,38=1/1,3;
 2/12=2,17=6,18=5,40=1/2;
 3/5=1,6=6,7=10,11=2,25=1,30=1,71=2,74=-55,140=1/1,2,3;
 4//1;
 5/5=2,38=5,98=1/2;
 8/6=4,10=90,11=11/1;
 11/6=1,8=1,9=11,15=111,16=1/1,2,10;
 10/6=1/2;
 6/7=2,8=2,9=2,10=2,28=1/1;
 7/8=1,10=1,25=1/1,2,3,16;
 1/10=4,30=1/3;
 99//99;
 -------------------
 Title Card Required
 -------------------
 Symbolic Z-matrix:
 Charge =  0 Multiplicity = 2
 C                     2.7538   -0.40665   0.41998 
 H                     3.80092  -0.38157   0.61326 
 C                     1.57562  -0.42323   0.18565 
 C                     0.16186  -0.60608  -0.133 
 O                    -0.21559  -1.14068  -1.13569 
 O                    -0.61834  -0.1503    0.84691 
 C                    -2.03835  -0.29792   0.6374 
 C                    -2.56517   0.78704  -0.27987 
 H                    -2.46267  -0.22553   1.63731 
 H                    -2.22886  -1.29248   0.2324 
 H                    -3.64795   0.68875  -0.37957 
 H                    -2.34202   1.77334   0.12947 
 H                    -2.11681   0.70349  -1.26991 
 O                     1.39207   1.79148  -0.42636 
 H                     1.4759    2.06488   0.50239 
 

 GradGradGradGradGradGradGradGradGradGradGradGradGradGradGradGradGradGrad
 Berny optimization.
 Initialization pass.
 Trust Radius=3.00D-01 FncErr=1.00D-07 GrdErr=1.00D-07 EigMax=2.50D+02 EigMin=1.00D-04
 Number of steps in this run=      2 maximum allowed number of steps=      2.
 GradGradGradGradGradGradGradGradGradGradGradGradGradGradGradGradGradGrad

                          Input orientation:                          
 ---------------------------------------------------------------------
 Center     Atomic      Atomic             Coordinates (Angstroms)
 Number     Number       Type             X           Y           Z
 ---------------------------------------------------------------------
      1          6           0        2.753800   -0.406651    0.419984
      2          1           0        3.800916   -0.381566    0.613262
      3          6           0        1.575616   -0.423232    0.185647
      4          6           0        0.161857   -0.606075   -0.132999
      5          8           0       -0.215586   -1.140684   -1.135693
      6          8           0       -0.618343   -0.150298    0.846906
      7          6           0       -2.038353   -0.297923    0.637396
      8          6           0       -2.565172    0.787038   -0.279870
      9          1           0       -2.462670   -0.225525    1.637306
     10          1           0       -2.228859   -1.292476    0.232400
     11          1           0       -3.647948    0.688751   -0.379567
     12          1           0       -2.342020    1.773339    0.129467
     13          1           0       -2.116815    0.703489   -1.269907
     14          8           0        1.392072    1.791484   -0.426360
     15          1           0        1.475900    2.064883    0.502394
 ---------------------------------------------------------------------
                    Distance matrix (angstroms):
                    1          2          3          4          5
     1  C    0.000000
     2  H    1.065100   0.000000
     3  C    1.201377   2.266396   0.000000
     4  C    2.657768   3.721567   1.460713   0.000000
     5  O    3.431645   4.446054   2.338607   1.197358   0.000000
     6  O    3.408713   4.431470   2.307642   1.332914   2.252504
     7  C    4.798314   5.839918   3.644249   2.351466   2.678912
     8  C    5.496012   6.533789   4.339076   3.065782   3.157388
     9  H    5.359686   6.348663   4.295830   3.188564   3.684620
    10  H    5.064263   6.110074   3.902794   2.513998   2.438850
    11  H    6.543819   7.590577   5.370437   4.031375   3.962281
    12  H    5.550148   6.527889   4.491765   3.464087   3.822811
    13  H    5.273617   6.304222   4.125795   2.863540   2.652105
    14  O    2.720735   3.406683   2.305040   2.710679   3.418381
    15  H    2.783577   3.376848   2.510177   3.043756   3.977451
                    6          7          8          9         10
     6  O    0.000000
     7  C    1.442954   0.000000
     8  C    2.436876   1.515274   0.000000
     9  H    2.007967   1.088626   2.170565   0.000000
    10  H    2.067837   1.090619   2.167927   1.779554   0.000000
    11  H    3.374425   2.144420   1.091789   2.511685   2.512683
    12  H    2.680701   2.154143   1.090937   2.506709   3.069629
    13  H    2.730434   2.155641   1.090036   3.071575   2.500671
    14  O    3.071399   4.155119   4.085358   4.815192   4.801658
    15  H    3.067828   4.236868   4.309883   4.695352   5.006995
                   11         12         13         14         15
    11  H    0.000000
    12  H    1.772257   0.000000
    13  H    1.771240   1.775822   0.000000
    14  O    5.159458   3.775277   3.769296   0.000000
    15  H    5.378235   3.847153   4.231081   0.971781   0.000000
 Stoichiometry    C5H7O3(2)
 Framework group  C1[X(C5H7O3)]
 Deg. of freedom    39
 Full point group                 C1      NOp   1
 Largest Abelian subgroup         C1      NOp   1
 Largest concise Abelian subgroup C1      NOp   1
                         Standard orientation:                         
 ---------------------------------------------------------------------
 Center     Atomic      Atomic             Coordinates (Angstroms)
 Number     Number       Type             X           Y           Z
 ---------------------------------------------------------------------
      1          6           0       -2.816429   -0.445598   -0.384426
      2          1           0       -3.864018   -0.426592   -0.575825
      3          6           0       -1.637657   -0.454718   -0.152649
      4          6           0       -0.223258   -0.627097    0.168978
      5          8           0        0.156253   -1.124343    1.189949
      6          8           0        0.554849   -0.209047   -0.829242
      7          6           0        1.975250   -0.350311   -0.618005
      8          6           0        2.505535    0.767534    0.256795
      9          1           0        2.397040   -0.315730   -1.621002
     10          1           0        2.165812   -1.329272   -0.176676
     11          1           0        3.588468    0.671847    0.357319
     12          1           0        2.282307    1.738123   -0.188480
     13          1           0        2.059668    0.721467    1.250404
     14          8           0       -1.450308    1.781085    0.375836
     15          1           0       -1.536275    2.019739   -0.562253
 ---------------------------------------------------------------------
 Rotational constants (GHZ):           3.4013672           1.3030169           1.1511469
 Standard basis: 6-31+G (6D, 7F)
 There are   118 symmetry adapted cartesian basis functions of A   symmetry.
 There are   118 symmetry adapted basis functions of A   symmetry.
   118 basis functions,   236 primitive gaussians,   118 cartesian basis functions
    31 alpha electrons       30 beta electrons
       nuclear repulsion energy       358.7594340456 Hartrees.
 NAtoms=   15 NActive=   15 NUniq=   15 SFac= 1.00D+00 NAtFMM=   60 NAOKFM=F Big=F
 Integral buffers will be    131072 words long.
 Raffenetti 2 integral format.
 Two-electron integral symmetry is turned on.
 One-electron integrals computed using PRISM.
 NBasis=   118 RedAO= T EigKep=  1.60D-06  NBF=   118
 NBsUse=   118 1.00D-06 EigRej= -1.00D+00 NBFU=   118
 ExpMin= 4.38D-02 ExpMax= 5.48D+03 ExpMxC= 8.25D+02 IAcc=3 IRadAn=         5 AccDes= 0.00D+00
 Harris functional with IExCor= 1009 and IRadAn=       5 diagonalized for initial guess.
 HarFok:  IExCor= 1009 AccDes= 0.00D+00 IRadAn=         5 IDoV= 1 UseB2=F ITyADJ=14
 ICtDFT=  3500011 ScaDFX=  1.000000  1.000000  1.000000  1.000000
 FoFCou: FMM=F IPFlag=           0 FMFlag=      100000 FMFlg1=           0
         NFxFlg=           0 DoJE=T BraDBF=F KetDBF=T FulRan=T
         wScrn=  0.000000 ICntrl=       500 IOpCl=  0 I1Cent=   200000004 NGrid=           0
         NMat0=    1 NMatS0=      1 NMatT0=    0 NMatD0=    1 NMtDS0=    0 NMtDT0=    0
 Petite list used in FoFCou.
 Initial guess <Sx>= 0.0000 <Sy>= 0.0000 <Sz>= 0.5000 <S**2>= 0.7500 S= 0.5000
 Requested convergence on RMS density matrix=1.00D-08 within 128 cycles.
 Requested convergence on MAX density matrix=1.00D-06.
 Requested convergence on             energy=1.00D-06.
 No special actions if energy rises.
 Restarting incremental Fock formation.
 SCF Done:  E(UM062X) =  -419.960634655     A.U. after   23 cycles
            NFock= 23  Conv=0.58D-08     -V/T= 2.0050
 <Sx>= 0.0000 <Sy>= 0.0000 <Sz>= 0.5000 <S**2>= 0.7562 S= 0.5031
 <L.S>=  0.00000000000    
 Annihilation of the first spin contaminant:
 S**2 before annihilation     0.7562,   after     0.7500
 DoSCS=F DFT=T ScalE2(SS,OS)=  1.000000  1.000000
 Range of M.O.s used for correlation:     1   118
 NBasis=   118 NAE=    31 NBE=    30 NFC=     0 NFV=     0
 NROrb=    118 NOA=    31 NOB=    30 NVA=    87 NVB=    88

 **** Warning!!: The largest alpha MO coefficient is  0.20659815D+03


 **** Warning!!: The largest beta MO coefficient is  0.20353495D+03

 Symmetrizing basis deriv contribution to polar:
 IMax=3 JMax=2 DiffMx= 0.00D+00
 G2DrvN: will do    16 centers at a time, making    1 passes.
 Calling FoFCou, ICntrl=  3107 FMM=F I1Cent=   0 AccDes= 0.00D+00.
 End of G2Drv F.D. properties file   721 does not exist.
 End of G2Drv F.D. properties file   722 does not exist.
 End of G2Drv F.D. properties file   788 does not exist.
          IDoAtm=111111111111111
          Differentiating once with respect to electric field.
                with respect to dipole field.
          Differentiating once with respect to nuclear coordinates.
 Keep R1 and R2 ints in memory in canonical form, NReq=71861349.
          There are    48 degrees of freedom in the 1st order CPHF.  IDoFFX=6 NUNeed=     3.
     45 vectors produced by pass  0 Test12= 1.11D-14 2.08D-09 XBig12= 9.10D+01 3.59D+00.
 AX will form    45 AO Fock derivatives at one time.
     45 vectors produced by pass  1 Test12= 1.11D-14 2.08D-09 XBig12= 1.91D+01 7.97D-01.
     45 vectors produced by pass  2 Test12= 1.11D-14 2.08D-09 XBig12= 5.07D-01 1.35D-01.
     45 vectors produced by pass  3 Test12= 1.11D-14 2.08D-09 XBig12= 2.68D-03 7.37D-03.
     45 vectors produced by pass  4 Test12= 1.11D-14 2.08D-09 XBig12= 1.61D-05 5.39D-04.
     45 vectors produced by pass  5 Test12= 1.11D-14 2.08D-09 XBig12= 1.85D-07 7.66D-05.
     32 vectors produced by pass  6 Test12= 1.11D-14 2.08D-09 XBig12= 1.26D-09 4.09D-06.
     12 vectors produced by pass  7 Test12= 1.11D-14 2.08D-09 XBig12= 9.05D-12 3.38D-07.
      3 vectors produced by pass  8 Test12= 1.11D-14 2.08D-09 XBig12= 9.58D-14 3.10D-08.
      3 vectors produced by pass  9 Test12= 1.11D-14 2.08D-09 XBig12= 1.88D-15 6.69D-09.
      1 vectors produced by pass 10 Test12= 1.11D-14 2.08D-09 XBig12= 2.67D-16 2.47D-09.
 InvSVY:  IOpt=1 It=  1 EMax= 1.42D-14
 Solved reduced A of dimension   321 with    48 vectors.
 Isotropic polarizability for W=    0.000000       67.32 Bohr**3.
 End of Minotr F.D. properties file   721 does not exist.
 End of Minotr F.D. properties file   722 does not exist.
 End of Minotr F.D. properties file   788 does not exist.

 **********************************************************************

            Population analysis using the SCF density.

 **********************************************************************

 Orbital symmetries:
 Alpha Orbitals:
       Occupied  (A) (A) (A) (A) (A) (A) (A) (A) (A) (A) (A) (A)
                 (A) (A) (A) (A) (A) (A) (A) (A) (A) (A) (A) (A)
                 (A) (A) (A) (A) (A) (A) (A)
       Virtual   (A) (A) (A) (A) (A) (A) (A) (A) (A) (A) (A) (A)
                 (A) (A) (A) (A) (A) (A) (A) (A) (A) (A) (A) (A)
                 (A) (A) (A) (A) (A) (A) (A) (A) (A) (A) (A) (A)
                 (A) (A) (A) (A) (A) (A) (A) (A) (A) (A) (A) (A)
                 (A) (A) (A) (A) (A) (A) (A) (A) (A) (A) (A) (A)
                 (A) (A) (A) (A) (A) (A) (A) (A) (A) (A) (A) (A)
                 (A) (A) (A) (A) (A) (A) (A) (A) (A) (A) (A) (A)
                 (A) (A) (A)
 Beta  Orbitals:
       Occupied  (A) (A) (A) (A) (A) (A) (A) (A) (A) (A) (A) (A)
                 (A) (A) (A) (A) (A) (A) (A) (A) (A) (A) (A) (A)
                 (A) (A) (A) (A) (A) (A)
       Virtual   (A) (A) (A) (A) (A) (A) (A) (A) (A) (A) (A) (A)
                 (A) (A) (A) (A) (A) (A) (A) (A) (A) (A) (A) (A)
                 (A) (A) (A) (A) (A) (A) (A) (A) (A) (A) (A) (A)
                 (A) (A) (A) (A) (A) (A) (A) (A) (A) (A) (A) (A)
                 (A) (A) (A) (A) (A) (A) (A) (A) (A) (A) (A) (A)
                 (A) (A) (A) (A) (A) (A) (A) (A) (A) (A) (A) (A)
                 (A) (A) (A) (A) (A) (A) (A) (A) (A) (A) (A) (A)
                 (A) (A) (A) (A)
 The electronic state is 2-A.
 Alpha  occ. eigenvalues --  -19.70672 -19.70129 -19.66190 -10.72953 -10.61585
 Alpha  occ. eigenvalues --  -10.59444 -10.59139 -10.54424  -1.27959  -1.18629
 Alpha  occ. eigenvalues --   -1.14462  -0.91371  -0.87970  -0.78576  -0.71212
 Alpha  occ. eigenvalues --   -0.64692  -0.61985  -0.58528  -0.56935  -0.54885
 Alpha  occ. eigenvalues --   -0.53922  -0.50449  -0.48990  -0.46646  -0.45232
 Alpha  occ. eigenvalues --   -0.42574  -0.42049  -0.39381  -0.38319  -0.36813
 Alpha  occ. eigenvalues --   -0.36227
 Alpha virt. eigenvalues --   -0.01206   0.01942   0.02343   0.03514   0.03808
 Alpha virt. eigenvalues --    0.03865   0.05203   0.06500   0.07488   0.08179
 Alpha virt. eigenvalues --    0.08469   0.08986   0.09635   0.12088   0.12542
 Alpha virt. eigenvalues --    0.13092   0.14657   0.15372   0.16035   0.16448
 Alpha virt. eigenvalues --    0.17335   0.19203   0.19564   0.20985   0.21384
 Alpha virt. eigenvalues --    0.21647   0.24126   0.24873   0.25036   0.27261
 Alpha virt. eigenvalues --    0.28991   0.29385   0.29568   0.30507   0.31744
 Alpha virt. eigenvalues --    0.33492   0.33618   0.34932   0.35212   0.36492
 Alpha virt. eigenvalues --    0.38246   0.38381   0.41816   0.44019   0.44702
 Alpha virt. eigenvalues --    0.47381   0.58422   0.60465   0.69045   0.70011
 Alpha virt. eigenvalues --    0.72081   0.73586   0.74991   0.76797   0.77518
 Alpha virt. eigenvalues --    0.80654   0.83289   0.86509   0.88162   0.92827
 Alpha virt. eigenvalues --    0.95308   0.96607   1.00698   1.07880   1.10091
 Alpha virt. eigenvalues --    1.11756   1.13054   1.15337   1.17505   1.20978
 Alpha virt. eigenvalues --    1.22592   1.25654   1.27388   1.29024   1.31702
 Alpha virt. eigenvalues --    1.34761   1.38591   1.39852   1.44427   1.46668
 Alpha virt. eigenvalues --    1.48067   1.60022   1.69667   1.74721   1.83674
 Alpha virt. eigenvalues --    2.02833   2.06031
  Beta  occ. eigenvalues --  -19.70676 -19.68482 -19.66202 -10.72942 -10.61585
  Beta  occ. eigenvalues --  -10.59421 -10.59061 -10.54425  -1.27967  -1.18651
  Beta  occ. eigenvalues --   -1.07169  -0.91148  -0.87776  -0.78500  -0.71134
  Beta  occ. eigenvalues --   -0.64665  -0.61753  -0.58442  -0.56787  -0.53961
  Beta  occ. eigenvalues --   -0.51695  -0.49447  -0.46891  -0.45270  -0.42055
  Beta  occ. eigenvalues --   -0.40134  -0.38795  -0.38127  -0.37966  -0.36633
  Beta virt. eigenvalues --   -0.08947  -0.00777   0.01981   0.02378   0.03605
  Beta virt. eigenvalues --    0.03836   0.04072   0.05183   0.06641   0.07553
  Beta virt. eigenvalues --    0.08143   0.08561   0.09061   0.09709   0.12202
  Beta virt. eigenvalues --    0.12631   0.13264   0.14788   0.15411   0.16014
  Beta virt. eigenvalues --    0.16495   0.17520   0.19414   0.19735   0.20893
  Beta virt. eigenvalues --    0.21401   0.21957   0.24169   0.24765   0.25172
  Beta virt. eigenvalues --    0.27365   0.29136   0.29447   0.29681   0.30673
  Beta virt. eigenvalues --    0.31778   0.33584   0.33627   0.34824   0.35236
  Beta virt. eigenvalues --    0.36531   0.38291   0.38400   0.41684   0.43983
  Beta virt. eigenvalues --    0.44787   0.47406   0.58397   0.60552   0.69087
  Beta virt. eigenvalues --    0.70128   0.72381   0.73740   0.75137   0.76870
  Beta virt. eigenvalues --    0.77903   0.80712   0.83505   0.86451   0.88189
  Beta virt. eigenvalues --    0.92813   0.95685   0.96849   1.01057   1.07861
  Beta virt. eigenvalues --    1.10319   1.11840   1.13933   1.16654   1.18053
  Beta virt. eigenvalues --    1.21000   1.23608   1.27286   1.28156   1.29644
  Beta virt. eigenvalues --    1.32499   1.35580   1.39342   1.41095   1.44531
  Beta virt. eigenvalues --    1.46827   1.48076   1.60544   1.70029   1.75186
  Beta virt. eigenvalues --    1.85003   2.02927   2.06154
          Condensed to atoms (all electrons):
               1          2          3          4          5          6
     1  C   41.645190   0.571349 -11.739247 -23.125952   0.117536  -0.716455
     2  H    0.571349   0.339835  -0.197588  -0.056523  -0.000109  -0.000387
     3  C  -11.739247  -0.197588  24.024026  -4.370606   0.323771  -1.266277
     4  C  -23.125952  -0.056523  -4.370606  31.522051  -0.267767   1.371208
     5  O    0.117536  -0.000109   0.323771  -0.267767   8.458097  -0.241329
     6  O   -0.716455  -0.000387  -1.266277   1.371208  -0.241329   9.080449
     7  C   -0.566706  -0.000070  -0.868365   1.084145  -0.019761   0.064399
     8  C    0.019007  -0.000106  -0.088803  -0.056442  -0.040516   0.017639
     9  H   -0.000480   0.000000  -0.005569   0.017049  -0.000030  -0.068500
    10  H    0.006026  -0.000000   0.026579  -0.036241   0.003691  -0.036050
    11  H   -0.000344   0.000000   0.000040   0.008852  -0.000210   0.006736
    12  H    0.006404  -0.000000   0.021206  -0.020463  -0.000437  -0.000690
    13  H   -0.000473  -0.000000  -0.011319   0.005936   0.001724  -0.008264
    14  O   -0.200742   0.000480   0.305645  -0.116994  -0.013695   0.016824
    15  H    0.119981   0.000023  -0.032483  -0.079546   0.000310  -0.000571
               7          8          9         10         11         12
     1  C   -0.566706   0.019007  -0.000480   0.006026  -0.000344   0.006404
     2  H   -0.000070  -0.000106   0.000000  -0.000000   0.000000  -0.000000
     3  C   -0.868365  -0.088803  -0.005569   0.026579   0.000040   0.021206
     4  C    1.084145  -0.056442   0.017049  -0.036241   0.008852  -0.020463
     5  O   -0.019761  -0.040516  -0.000030   0.003691  -0.000210  -0.000437
     6  O    0.064399   0.017639  -0.068500  -0.036050   0.006736  -0.000690
     7  C    5.993794  -0.119814   0.427162   0.421719  -0.071887  -0.056827
     8  C   -0.119814   5.758842  -0.056495  -0.075219   0.396943   0.393725
     9  H    0.427162  -0.056495   0.503070  -0.032460  -0.000614  -0.004609
    10  H    0.421719  -0.075219  -0.032460   0.490308  -0.000802   0.003836
    11  H   -0.071887   0.396943  -0.000614  -0.000802   0.503682  -0.025997
    12  H   -0.056827   0.393725  -0.004609   0.003836  -0.025997   0.493050
    13  H   -0.047589   0.407557   0.003519  -0.004464  -0.023110  -0.026317
    14  O   -0.012306   0.005391   0.000131   0.000046   0.000035  -0.000446
    15  H   -0.000760   0.002969  -0.000004  -0.000002   0.000000  -0.000013
              13         14         15
     1  C   -0.000473  -0.200742   0.119981
     2  H   -0.000000   0.000480   0.000023
     3  C   -0.011319   0.305645  -0.032483
     4  C    0.005936  -0.116994  -0.079546
     5  O    0.001724  -0.013695   0.000310
     6  O   -0.008264   0.016824  -0.000571
     7  C   -0.047589  -0.012306  -0.000760
     8  C    0.407557   0.005391   0.002969
     9  H    0.003519   0.000131  -0.000004
    10  H   -0.004464   0.000046  -0.000002
    11  H   -0.023110   0.000035   0.000000
    12  H   -0.026317  -0.000446  -0.000013
    13  H    0.458176  -0.000133   0.000014
    14  O   -0.000133   8.271124   0.143997
    15  H    0.000014   0.143997   0.443057
          Atomic-Atomic Spin Densities.
               1          2          3          4          5          6
     1  C    1.152871   0.000611  -0.324311  -0.519034   0.008677  -0.042554
     2  H    0.000611  -0.003862  -0.000566  -0.001060   0.000003  -0.000011
     3  C   -0.324311  -0.000566   0.293816   0.049979   0.003828  -0.012551
     4  C   -0.519034  -0.001060   0.049979   0.346839  -0.009149   0.044208
     5  O    0.008677   0.000003   0.003828  -0.009149  -0.007744  -0.000498
     6  O   -0.042554  -0.000011  -0.012551   0.044208  -0.000498   0.003319
     7  C   -0.033195  -0.000017  -0.031667   0.047648  -0.001133   0.004401
     8  C    0.009254   0.000003   0.011120  -0.012072   0.000230  -0.001906
     9  H   -0.000320  -0.000000  -0.000859   0.001085  -0.000002  -0.000065
    10  H    0.000151  -0.000000   0.000233  -0.000281  -0.000072  -0.000010
    11  H    0.000031   0.000000   0.000240  -0.000352   0.000012   0.000022
    12  H    0.000029  -0.000000  -0.000069   0.000123  -0.000035   0.000044
    13  H   -0.000476  -0.000000  -0.001975   0.002647  -0.000080  -0.000106
    14  O   -0.174635  -0.000380   0.005279   0.088121   0.001238   0.002543
    15  H   -0.010021   0.000018   0.000929   0.008837  -0.000013   0.000334
               7          8          9         10         11         12
     1  C   -0.033195   0.009254  -0.000320   0.000151   0.000031   0.000029
     2  H   -0.000017   0.000003  -0.000000  -0.000000   0.000000  -0.000000
     3  C   -0.031667   0.011120  -0.000859   0.000233   0.000240  -0.000069
     4  C    0.047648  -0.012072   0.001085  -0.000281  -0.000352   0.000123
     5  O   -0.001133   0.000230  -0.000002  -0.000072   0.000012  -0.000035
     6  O    0.004401  -0.001906  -0.000065  -0.000010   0.000022   0.000044
     7  C    0.015944  -0.006607   0.000296  -0.000093  -0.000116  -0.000080
     8  C   -0.006607   0.001815  -0.000114   0.000097   0.000179   0.000020
     9  H    0.000296  -0.000114  -0.000024  -0.000000  -0.000004   0.000003
    10  H   -0.000093   0.000097  -0.000000  -0.000100  -0.000001  -0.000004
    11  H   -0.000116   0.000179  -0.000004  -0.000001  -0.000025  -0.000003
    12  H   -0.000080   0.000020   0.000003  -0.000004  -0.000003  -0.000065
    13  H    0.000394  -0.000388  -0.000000  -0.000002   0.000008  -0.000017
    14  O    0.002229  -0.000498   0.000003   0.000004   0.000001  -0.000011
    15  H    0.000559  -0.000403   0.000000   0.000000  -0.000000   0.000001
              13         14         15
     1  C   -0.000476  -0.174635  -0.010021
     2  H   -0.000000  -0.000380   0.000018
     3  C   -0.001975   0.005279   0.000929
     4  C    0.002647   0.088121   0.008837
     5  O   -0.000080   0.001238  -0.000013
     6  O   -0.000106   0.002543   0.000334
     7  C    0.000394   0.002229   0.000559
     8  C   -0.000388  -0.000498  -0.000403
     9  H   -0.000000   0.000003   0.000000
    10  H   -0.000002   0.000004   0.000000
    11  H    0.000008   0.000001  -0.000000
    12  H   -0.000017  -0.000011   0.000001
    13  H   -0.000071  -0.000017  -0.000001
    14  O   -0.000017   1.017886  -0.000106
    15  H   -0.000001  -0.000106  -0.036067
 Mulliken charges and spin densities:
               1          2
     1  C   -0.135093   0.067078
     2  H    0.343096  -0.005260
     3  C   -0.121010  -0.006575
     4  C    0.121294   0.047538
     5  O   -0.321276  -0.004736
     6  O   -0.218731  -0.002828
     7  C   -0.227135  -0.001436
     8  C   -0.564677   0.000729
     9  H    0.217831  -0.000001
    10  H    0.233033  -0.000079
    11  H    0.206676  -0.000008
    12  H    0.217577  -0.000065
    13  H    0.244745  -0.000084
    14  O   -0.399358   0.941657
    15  H    0.403028  -0.035932
 Sum of Mulliken charges =  -0.00000   1.00000
 Mulliken charges and spin densities with hydrogens summed into heavy atoms:
               1          2
     1  C    0.208003   0.061818
     3  C   -0.121010  -0.006575
     4  C    0.121294   0.047538
     5  O   -0.321276  -0.004736
     6  O   -0.218731  -0.002828
     7  C    0.223728  -0.001515
     8  C    0.104321   0.000573
    14  O    0.003670   0.905725
 APT charges:
               1
     1  C   -0.235564
     2  H    0.255631
     3  C   -0.325205
     4  C    1.433594
     5  O   -0.740493
     6  O   -0.940096
     7  C    0.502990
     8  C   -0.057382
     9  H   -0.005651
    10  H   -0.003512
    11  H    0.014719
    12  H    0.017362
    13  H    0.043737
    14  O   -0.229763
    15  H    0.269633
 Sum of APT charges =   0.00000
 APT charges with hydrogens summed into heavy atoms:
               1
     1  C    0.020066
     3  C   -0.325205
     4  C    1.433594
     5  O   -0.740493
     6  O   -0.940096
     7  C    0.493827
     8  C    0.018436
    14  O    0.039870
 Electronic spatial extent (au):  <R**2>=           1087.0842
 Charge=             -0.0000 electrons
 Dipole moment (field-independent basis, Debye):
    X=              0.1636    Y=              0.7802    Z=             -3.2557  Tot=              3.3518
 Quadrupole moment (field-independent basis, Debye-Ang):
   XX=            -33.4080   YY=            -48.1323   ZZ=            -52.5267
   XY=              0.5750   XZ=              3.2237   YZ=             -0.7117
 Traceless Quadrupole moment (field-independent basis, Debye-Ang):
   XX=             11.2810   YY=             -3.4433   ZZ=             -7.8377
   XY=              0.5750   XZ=              3.2237   YZ=             -0.7117
 Octapole moment (field-independent basis, Debye-Ang**2):
  XXX=            -26.0281  YYY=             11.3816  ZZZ=             -1.7215  XYY=              1.6976
  XXY=             -4.6892  XXZ=            -14.8745  XZZ=              3.0958  YZZ=              6.1550
  YYZ=            -10.8881  XYZ=              6.7313
 Hexadecapole moment (field-independent basis, Debye-Ang**3):
 XXXX=           -768.8247 YYYY=           -272.0569 ZZZZ=           -171.7778 XXXY=              6.2741
 XXXZ=             32.7537 YYYX=            -21.6486 YYYZ=            -14.1957 ZZZX=             -7.3275
 ZZZY=              1.4120 XXYY=           -218.1775 XXZZ=           -191.3889 YYZZ=            -81.1449
 XXYZ=             -7.0258 YYXZ=              9.9712 ZZXY=             -4.6915
 N-N= 3.587594340456D+02 E-N=-1.700318261235D+03  KE= 4.178883879548D+02
  Exact polarizability:  86.820   3.506  59.374   4.507  -1.933  55.779
 Approx polarizability:  92.449   1.220  60.261   8.875  -6.995  69.300
                          Isotropic Fermi Contact Couplings
        Atom                 a.u.       MegaHertz       Gauss      10(-4) cm-1
     1  C(13)              0.01716      19.28620       6.88179       6.43318
     2  H(1)              -0.00215      -9.58890      -3.42156      -3.19851
     3  C(13)              0.00892      10.02833       3.57836       3.34509
     4  C(13)              0.00518       5.81826       2.07610       1.94076
     5  O(17)             -0.00150       0.90669       0.32353       0.30244
     6  O(17)             -0.00105       0.63421       0.22630       0.21155
     7  C(13)              0.00002       0.02569       0.00917       0.00857
     8  C(13)             -0.00024      -0.26557      -0.09476      -0.08859
     9  H(1)               0.00000       0.00659       0.00235       0.00220
    10  H(1)              -0.00004      -0.17739      -0.06330      -0.05917
    11  H(1)              -0.00000      -0.02103      -0.00751      -0.00702
    12  H(1)              -0.00001      -0.03200      -0.01142      -0.01067
    13  H(1)              -0.00001      -0.02464      -0.00879      -0.00822
    14  O(17)              0.13508     -81.88216     -29.21759     -27.31295
    15  H(1)              -0.01599     -71.48925     -25.50914     -23.84625
 --------------------------------------------------------
       Center         ----  Spin Dipole Couplings  ----
                      3XX-RR        3YY-RR        3ZZ-RR
 --------------------------------------------------------
     1   Atom       -0.074976      0.126623     -0.051647
     2   Atom        0.013177     -0.002494     -0.010683
     3   Atom        0.003883      0.027659     -0.031543
     4   Atom        0.001446      0.010464     -0.011910
     5   Atom        0.012181     -0.013871      0.001690
     6   Atom        0.005161     -0.006294      0.001133
     7   Atom        0.002249     -0.000559     -0.001690
     8   Atom        0.003545     -0.001607     -0.001938
     9   Atom        0.001176     -0.000557     -0.000619
    10   Atom        0.001009      0.000242     -0.001250
    11   Atom        0.001822     -0.000828     -0.000994
    12   Atom        0.004797     -0.002446     -0.002350
    13   Atom        0.003948     -0.001779     -0.002169
    14   Atom       -1.009211      2.474941     -1.465730
    15   Atom       -0.108641     -0.043807      0.152448
 --------------------------------------------------------
                        XY            XZ            YZ
 --------------------------------------------------------
     1   Atom        0.027439      0.003581      0.045349
     2   Atom        0.004856      0.005969      0.003121
     3   Atom       -0.004534      0.007274      0.012843
     4   Atom       -0.013863     -0.000386      0.002681
     5   Atom       -0.016428     -0.005122     -0.015345
     6   Atom       -0.005699     -0.004708      0.001557
     7   Atom       -0.002382     -0.001079      0.000667
     8   Atom       -0.001493     -0.000173      0.000046
     9   Atom       -0.001186     -0.001189      0.000638
    10   Atom       -0.001727     -0.000267      0.000269
    11   Atom       -0.000618     -0.000009      0.000017
    12   Atom       -0.000210     -0.001171      0.000103
    13   Atom       -0.001997      0.001624     -0.000447
    14   Atom        1.638452      0.369523      0.928827
    15   Atom        0.016651      0.027392     -0.060553
 --------------------------------------------------------


 ---------------------------------------------------------------------------------
              Anisotropic Spin Dipole Couplings in Principal Axis System
 ---------------------------------------------------------------------------------

       Atom             a.u.   MegaHertz   Gauss  10(-4) cm-1        Axes

              Baa    -0.0790   -10.600    -3.782    -3.536  0.9771 -0.1611  0.1392
     1 C(13)  Bbb    -0.0620    -8.321    -2.969    -2.776 -0.1713 -0.2067  0.9633
              Bcc     0.1410    18.921     6.752     6.311  0.1264  0.9651  0.2295
 
              Baa    -0.0125    -6.673    -2.381    -2.226 -0.1834 -0.2103  0.9603
     2 H(1)   Bbb    -0.0037    -1.962    -0.700    -0.655 -0.3206  0.9362  0.1438
              Bcc     0.0162     8.635     3.081     2.880  0.9293  0.2815  0.2391
 
              Baa    -0.0358    -4.810    -1.716    -1.604 -0.1991 -0.2079  0.9577
     3 C(13)  Bbb     0.0052     0.695     0.248     0.232  0.9733  0.0718  0.2179
              Bcc     0.0307     4.115     1.468     1.373 -0.1141  0.9755  0.1881
 
              Baa    -0.0125    -1.677    -0.598    -0.559 -0.2099 -0.2375  0.9484
     4 C(13)  Bbb    -0.0082    -1.102    -0.393    -0.368  0.7845  0.5380  0.3083
              Bcc     0.0207     2.779     0.992     0.927 -0.5835  0.8088  0.0734
 
              Baa    -0.0300     2.168     0.774     0.723  0.3710  0.8106  0.4530
     5 O(17)  Bbb     0.0095    -0.688    -0.245    -0.229 -0.3492 -0.3302  0.8769
              Bcc     0.0205    -1.480    -0.528    -0.494  0.8605 -0.4835  0.1605
 
              Baa    -0.0087     0.627     0.224     0.209  0.3933  0.9184  0.0431
     6 O(17)  Bbb    -0.0015     0.112     0.040     0.037  0.4256 -0.2234  0.8769
              Bcc     0.0102    -0.739    -0.264    -0.246  0.8150 -0.3266 -0.4787
 
              Baa    -0.0020    -0.268    -0.096    -0.090 -0.0642 -0.5046  0.8610
     7 C(13)  Bbb    -0.0019    -0.255    -0.091    -0.085  0.5295  0.7141  0.4580
              Bcc     0.0039     0.523     0.187     0.174  0.8459 -0.4853 -0.2213
 
              Baa    -0.0020    -0.270    -0.096    -0.090  0.2596  0.9657  0.0013
     8 C(13)  Bbb    -0.0019    -0.261    -0.093    -0.087  0.0289 -0.0092  0.9995
              Bcc     0.0040     0.530     0.189     0.177  0.9653 -0.2595 -0.0303
 
              Baa    -0.0012    -0.659    -0.235    -0.220  0.1853 -0.4819  0.8564
     9 H(1)   Bbb    -0.0011    -0.613    -0.219    -0.205  0.5538  0.7711  0.3141
              Bcc     0.0024     1.272     0.454     0.424  0.8118 -0.4161 -0.4098
 
              Baa    -0.0013    -0.694    -0.248    -0.231 -0.0869 -0.2646  0.9604
    10 H(1)   Bbb    -0.0011    -0.604    -0.216    -0.201  0.6257  0.7357  0.2593
              Bcc     0.0024     1.298     0.463     0.433  0.7752 -0.6235 -0.1016
 
              Baa    -0.0010    -0.534    -0.190    -0.178 -0.0800 -0.3785  0.9221
    11 H(1)   Bbb    -0.0010    -0.511    -0.182    -0.171  0.2011  0.8999  0.3868
              Bcc     0.0020     1.045     0.373     0.349  0.9763 -0.2164 -0.0042
 
              Baa    -0.0026    -1.374    -0.490    -0.458  0.1234 -0.4877  0.8643
    12 H(1)   Bbb    -0.0024    -1.288    -0.460    -0.430  0.1030  0.8725  0.4776
              Bcc     0.0050     2.663     0.950     0.888  0.9870 -0.0301 -0.1578
 
              Baa    -0.0026    -1.380    -0.492    -0.460 -0.3014 -0.2343  0.9243
    13 H(1)   Bbb    -0.0024    -1.273    -0.454    -0.425  0.2143  0.9279  0.3051
              Bcc     0.0050     2.653     0.947     0.885  0.9291 -0.2900  0.2295
 
              Baa    -1.6741   121.135    43.224    40.406 -0.1492 -0.1595  0.9758
    14 O(17)  Bbb    -1.6586   120.012    42.823    40.032  0.9206 -0.3825  0.0783
              Bcc     3.3326  -241.147   -86.047   -80.438  0.3608  0.9101  0.2039
 
              Baa    -0.1197   -63.860   -22.787   -21.301  0.9261 -0.3376 -0.1683
    15 H(1)   Bbb    -0.0517   -27.559    -9.834    -9.193  0.3690  0.9034  0.2185
              Bcc     0.1713    91.419    32.621    30.494  0.0783 -0.2645  0.9612
 

 ---------------------------------------------------------------------------------

 Calling FoFJK, ICntrl=    100127 FMM=F ISym2X=0 I1Cent= 0 IOpClX= 1 NMat=1 NMatS=1 NMatT=0.
 Full mass-weighted force constant matrix:
 Low frequencies --- -488.3942 -196.9207 -135.1577  -78.1072  -59.0015  -37.1466
 Low frequencies ---   -0.0013   -0.0009    0.0008
 ******    3 imaginary frequencies (negative Signs) ****** 
 Diagonal vibrational polarizability:
       55.6882771     595.3044954      71.8689587
 Harmonic frequencies (cm**-1), IR intensities (KM/Mole), Raman scattering
 activities (A**4/AMU), depolarization ratios for plane and unpolarized
 incident light, reduced masses (AMU), force constants (mDyne/A),
 and normal coordinates:
                      1                      2                      3
                      A                      A                      A
 Frequencies --   -487.7659              -183.1327               -44.4081
 Red. masses --      1.0750                 1.9765                 4.4097
 Frc consts  --      0.1507                 0.0391                 0.0051
 IR Inten    --    129.2389                57.6892                 0.6033
  Atom  AN      X      Y      Z        X      Y      Z        X      Y      Z
     1   6     0.00   0.00   0.00     0.00   0.02  -0.05    -0.02   0.11   0.02
     2   1     0.00   0.04   0.00     0.00   0.02  -0.04    -0.02   0.27   0.07
     3   6    -0.00  -0.01   0.01     0.00   0.04  -0.05    -0.01  -0.09  -0.04
     4   6    -0.00  -0.01   0.00    -0.01   0.03  -0.01    -0.01  -0.11  -0.05
     5   8     0.01  -0.01  -0.00    -0.03   0.12   0.04    -0.00   0.02   0.01
     6   8    -0.01   0.01   0.00     0.02  -0.05  -0.03    -0.01  -0.18  -0.09
     7   6    -0.00   0.00  -0.01     0.01  -0.04   0.01    -0.01   0.06   0.03
     8   6     0.00   0.00  -0.00     0.00   0.02  -0.05    -0.26   0.18   0.04
     9   1    -0.01   0.00  -0.01     0.04  -0.12   0.02     0.06   0.10   0.06
    10   1    -0.01   0.00  -0.01     0.00  -0.01   0.09     0.12   0.11   0.08
    11   1     0.00  -0.00  -0.01    -0.00   0.02  -0.02    -0.25   0.36   0.12
    12   1     0.01   0.00  -0.00     0.02  -0.01  -0.13    -0.38   0.13  -0.01
    13   1     0.00  -0.00  -0.00    -0.02   0.09  -0.06    -0.32   0.14   0.01
    14   8    -0.06   0.02   0.01    -0.03  -0.16   0.09     0.28  -0.00   0.06
    15   1     0.95  -0.26  -0.16     0.34   0.82   0.30     0.21  -0.26  -0.00
                      4                      5                      6
                      A                      A                      A
 Frequencies --     20.3157                81.4717                84.8259
 Red. masses --      3.2364                 3.4446                 4.9237
 Frc consts  --      0.0008                 0.0135                 0.0209
 IR Inten    --      7.7318                14.7904                 2.8477
  Atom  AN      X      Y      Z        X      Y      Z        X      Y      Z
     1   6     0.02  -0.06  -0.05     0.07   0.06  -0.23    -0.00  -0.14  -0.25
     2   1     0.02  -0.06  -0.07     0.10   0.13  -0.41     0.05  -0.23  -0.55
     3   6     0.01  -0.06  -0.02     0.02  -0.05  -0.01    -0.07  -0.03   0.09
     4   6     0.02   0.04  -0.02     0.01  -0.05   0.05    -0.07   0.04   0.14
     5   8     0.08   0.25   0.06     0.00   0.01   0.07     0.00  -0.01   0.08
     6   8    -0.03  -0.06  -0.09     0.01  -0.08   0.03    -0.14   0.14   0.12
     7   6    -0.01   0.01  -0.11     0.01  -0.07   0.01    -0.12   0.07  -0.06
     8   6    -0.05  -0.17   0.14     0.03   0.06  -0.16     0.04  -0.00  -0.07
     9   1    -0.03   0.26  -0.11    -0.01  -0.21  -0.00    -0.25   0.12  -0.12
    10   1     0.05  -0.09  -0.34     0.01  -0.00   0.15    -0.10   0.04  -0.15
    11   1    -0.02  -0.08  -0.03     0.03   0.06  -0.14     0.06  -0.02  -0.28
    12   1    -0.21  -0.07   0.43     0.05  -0.01  -0.31    -0.03   0.04   0.05
    13   1     0.09  -0.50   0.18     0.03   0.22  -0.15     0.23  -0.08   0.01
    14   8    -0.03   0.04   0.07    -0.11   0.13   0.21     0.28  -0.09  -0.02
    15   1    -0.09  -0.27  -0.00    -0.30  -0.50   0.07     0.26   0.02   0.01
                      7                      8                      9
                      A                      A                      A
 Frequencies --    118.6914               183.1904               216.8418
 Red. masses --      2.7720                 1.3377                 3.1538
 Frc consts  --      0.0230                 0.0264                 0.0874
 IR Inten    --     17.2154                 1.8038                 5.5641
  Atom  AN      X      Y      Z        X      Y      Z        X      Y      Z
     1   6     0.07   0.21  -0.06     0.03   0.03  -0.03     0.05  -0.20  -0.04
     2   1     0.10   0.37  -0.19     0.04   0.07  -0.11     0.07  -0.52  -0.17
     3   6     0.04   0.01   0.11     0.01  -0.01   0.06     0.03   0.18   0.09
     4   6     0.03  -0.06   0.08     0.01  -0.00   0.02     0.02   0.06   0.03
     5   8     0.10  -0.10   0.04     0.09   0.01  -0.00     0.03  -0.10  -0.04
     6   8    -0.03  -0.06   0.04    -0.04   0.01  -0.02     0.01  -0.08  -0.04
     7   6    -0.01   0.04  -0.06    -0.04   0.01  -0.03     0.00  -0.06  -0.01
     8   6    -0.06   0.00   0.01    -0.05  -0.03   0.03    -0.15  -0.01   0.01
     9   1    -0.08   0.18  -0.09    -0.02   0.04  -0.02     0.04  -0.04   0.01
    10   1     0.11   0.01  -0.18    -0.04  -0.00  -0.06     0.03  -0.05   0.00
    11   1    -0.01   0.23  -0.26    -0.12  -0.36   0.51    -0.14   0.15   0.05
    12   1    -0.38   0.03   0.23     0.45  -0.01  -0.19    -0.27  -0.04   0.00
    13   1     0.18  -0.27   0.11    -0.48   0.23  -0.15    -0.18  -0.07  -0.01
    14   8    -0.11  -0.05  -0.11    -0.01  -0.02  -0.02     0.00   0.19   0.02
    15   1    -0.03   0.39  -0.01    -0.02   0.05  -0.00     0.18   0.56   0.10
                     10                     11                     12
                      A                      A                      A
 Frequencies --    290.7534               316.0500               421.1203
 Red. masses --      2.7954                 3.0978                 3.8696
 Frc consts  --      0.1392                 0.1823                 0.4043
 IR Inten    --     45.4673                14.0680                 1.9052
  Atom  AN      X      Y      Z        X      Y      Z        X      Y      Z
     1   6     0.03   0.04  -0.02    -0.02   0.02  -0.02     0.11   0.01   0.04
     2   1     0.05  -0.13  -0.11    -0.01   0.13  -0.06     0.08   0.12   0.24
     3   6     0.02   0.25   0.09    -0.04  -0.13   0.03     0.13  -0.09  -0.14
     4   6     0.02   0.13   0.02    -0.01   0.00  -0.05     0.07   0.02   0.03
     5   8     0.01   0.01  -0.04     0.21   0.05  -0.11    -0.07  -0.00   0.08
     6   8     0.02   0.01  -0.04    -0.04   0.12  -0.04     0.05   0.22   0.13
     7   6     0.01  -0.08   0.03    -0.09  -0.13   0.18     0.01  -0.12  -0.10
     8   6    -0.08  -0.01  -0.01    -0.04  -0.02   0.02    -0.21  -0.09  -0.08
     9   1     0.07  -0.16   0.06     0.08  -0.43   0.24    -0.04  -0.14  -0.12
    10   1    -0.07  -0.05   0.12    -0.36  -0.05   0.45    -0.10  -0.15  -0.12
    11   1    -0.06   0.14  -0.04    -0.00   0.15  -0.22    -0.21   0.24   0.15
    12   1    -0.22  -0.05  -0.04    -0.28  -0.09  -0.01    -0.43  -0.17  -0.16
    13   1    -0.05  -0.03   0.00     0.18  -0.01   0.11    -0.43  -0.17  -0.18
    14   8    -0.01  -0.20   0.01     0.01   0.03  -0.00     0.01   0.00   0.00
    15   1    -0.13  -0.81  -0.13    -0.00   0.18   0.04    -0.02   0.02   0.01
                     13                     14                     15
                      A                      A                      A
 Frequencies --    569.7573               627.9332               761.8605
 Red. masses --      4.1290                 5.5431                 3.3090
 Frc consts  --      0.7897                 1.2878                 1.1316
 IR Inten    --      3.7146                15.5614                81.1332
  Atom  AN      X      Y      Z        X      Y      Z        X      Y      Z
     1   6    -0.23   0.01  -0.05     0.18  -0.01   0.05     0.01  -0.07  -0.06
     2   1    -0.19   0.10  -0.32     0.30   0.28  -0.56    -0.08   0.71   0.51
     3   6    -0.24  -0.08   0.16     0.08  -0.19   0.38     0.00  -0.14  -0.03
     4   6    -0.03   0.05  -0.01     0.04   0.04  -0.12     0.01   0.36   0.16
     5   8     0.04   0.02  -0.05    -0.29   0.02  -0.01    -0.01  -0.08  -0.05
     6   8     0.16   0.04   0.08     0.02   0.08  -0.20    -0.00  -0.09  -0.04
     7   6     0.26  -0.08  -0.07     0.03   0.01  -0.01    -0.01  -0.00   0.01
     8   6     0.00  -0.01  -0.02     0.01   0.00   0.02     0.00   0.00   0.01
     9   1     0.12   0.08  -0.13     0.20  -0.17   0.06    -0.01   0.07   0.01
    10   1     0.33  -0.13  -0.21    -0.17   0.05   0.15     0.05  -0.02  -0.04
    11   1     0.00   0.35   0.28     0.01   0.00   0.01     0.00  -0.03  -0.03
    12   1    -0.22  -0.10  -0.11     0.01   0.03   0.08     0.04   0.00  -0.01
    13   1    -0.27  -0.10  -0.14     0.02  -0.06   0.02     0.05   0.04   0.03
    14   8     0.00   0.00  -0.00    -0.00   0.00  -0.01     0.00  -0.00   0.01
    15   1     0.01   0.05   0.01     0.02   0.11   0.02     0.00   0.01   0.01
                     16                     17                     18
                      A                      A                      A
 Frequencies --    794.6620               814.7135               819.5690
 Red. masses --      1.3996                 1.5557                 1.4504
 Frc consts  --      0.5207                 0.6084                 0.5740
 IR Inten    --     61.4465                 9.8630                 4.3857
  Atom  AN      X      Y      Z        X      Y      Z        X      Y      Z
     1   6     0.02   0.07  -0.13    -0.02  -0.13  -0.05     0.05  -0.06  -0.05
     2   1    -0.16  -0.48   0.82    -0.06   0.73   0.25    -0.01   0.35   0.30
     3   6    -0.02  -0.03   0.09    -0.02   0.11   0.02     0.02   0.05   0.07
     4   6     0.01  -0.02  -0.01     0.01  -0.10  -0.01    -0.03  -0.07  -0.07
     5   8    -0.02  -0.00   0.01     0.01   0.00   0.05    -0.01   0.04  -0.04
     6   8    -0.00   0.02  -0.03    -0.01   0.03  -0.02     0.00   0.01   0.04
     7   6     0.02   0.00  -0.01     0.03   0.02  -0.04    -0.02  -0.04   0.06
     8   6     0.01   0.01   0.00     0.01   0.02  -0.01    -0.01  -0.02   0.02
     9   1     0.05  -0.10  -0.01     0.07  -0.32  -0.03    -0.09   0.45   0.05
    10   1    -0.03   0.03   0.07    -0.09   0.13   0.26     0.11  -0.21  -0.38
    11   1     0.01   0.02   0.05    -0.00  -0.01   0.12     0.01   0.07  -0.14
    12   1    -0.00   0.03   0.06     0.02   0.12   0.22    -0.06  -0.19  -0.34
    13   1    -0.03  -0.07  -0.02    -0.09  -0.25  -0.06     0.10   0.37   0.08
    14   8    -0.00   0.00  -0.00     0.00   0.00  -0.00     0.00   0.00  -0.00
    15   1     0.01   0.01   0.00    -0.02  -0.00   0.00    -0.01  -0.00  -0.00
                     19                     20                     21
                      A                      A                      A
 Frequencies --    899.6489               944.5572              1113.7492
 Red. masses --      3.3986                 2.5219                 4.1774
 Frc consts  --      1.6207                 1.3257                 3.0530
 IR Inten    --     17.8615                 5.1060                 7.7041
  Atom  AN      X      Y      Z        X      Y      Z        X      Y      Z
     1   6     0.08  -0.00  -0.00    -0.10   0.00  -0.03     0.07  -0.00   0.02
     2   1     0.08   0.01   0.06    -0.11   0.00  -0.00     0.08  -0.00   0.02
     3   6     0.04  -0.03   0.08    -0.07   0.01   0.01     0.04   0.01  -0.03
     4   6    -0.08   0.04  -0.11     0.14  -0.01   0.01    -0.16  -0.01   0.05
     5   8    -0.01   0.08  -0.17    -0.00  -0.04   0.08     0.01   0.00  -0.01
     6   8     0.10  -0.10   0.24     0.15   0.04  -0.05    -0.18   0.02  -0.04
     7   6    -0.08   0.07   0.01    -0.04   0.10   0.05     0.29   0.17   0.18
     8   6    -0.08  -0.02  -0.09    -0.16  -0.09  -0.07    -0.04  -0.19  -0.15
     9   1    -0.27  -0.15  -0.08     0.26   0.18   0.18     0.28   0.28   0.19
    10   1     0.21   0.24   0.27     0.02   0.12   0.07     0.39   0.22   0.22
    11   1    -0.11  -0.41  -0.09    -0.16  -0.57  -0.50    -0.05  -0.10  -0.05
    12   1     0.16   0.22   0.33     0.17  -0.03  -0.09    -0.13  -0.23  -0.17
    13   1    -0.04  -0.39  -0.09     0.22   0.09   0.10    -0.15  -0.31  -0.22
    14   8    -0.00  -0.00   0.00    -0.00   0.00  -0.00     0.00  -0.00  -0.00
    15   1     0.01  -0.01  -0.00     0.01   0.01   0.00    -0.01  -0.00   0.00
                     22                     23                     24
                      A                      A                      A
 Frequencies --   1158.8138              1227.9267              1323.5419
 Red. masses --      2.0878                 1.7595                 2.3178
 Frc consts  --      1.6518                 1.5631                 2.3922
 IR Inten    --     17.9210                 5.3028               383.5870
  Atom  AN      X      Y      Z        X      Y      Z        X      Y      Z
     1   6    -0.02   0.00  -0.01    -0.02   0.00  -0.01    -0.05   0.00  -0.01
     2   1    -0.03   0.00  -0.01    -0.03  -0.00  -0.01    -0.06   0.00  -0.02
     3   6    -0.01   0.00   0.01    -0.01   0.00  -0.00    -0.01   0.00   0.00
     4   6     0.06   0.01  -0.01     0.07   0.00  -0.02     0.25   0.03  -0.09
     5   8    -0.00  -0.01   0.00    -0.00  -0.01   0.03    -0.03   0.00  -0.01
     6   8     0.08  -0.05  -0.01     0.00   0.03  -0.06    -0.13  -0.02   0.04
     7   6    -0.14   0.17   0.06    -0.05  -0.08   0.16     0.09   0.03   0.02
     8   6     0.11  -0.13  -0.04     0.03   0.06  -0.11    -0.03  -0.04   0.06
     9   1    -0.13   0.02   0.06    -0.41   0.33   0.03    -0.69  -0.24  -0.31
    10   1    -0.30   0.14   0.04     0.29  -0.20  -0.24     0.25   0.16   0.23
    11   1     0.11   0.46   0.31    -0.02  -0.09   0.26    -0.00   0.02  -0.11
    12   1    -0.38  -0.31  -0.21     0.00   0.25   0.34     0.01  -0.15  -0.19
    13   1    -0.33  -0.08  -0.23    -0.10  -0.42  -0.18     0.05   0.15   0.10
    14   8    -0.00   0.00   0.00    -0.00   0.00   0.00    -0.00   0.00  -0.00
    15   1     0.01  -0.00  -0.00     0.01   0.00  -0.00     0.02   0.01   0.00
                     25                     26                     27
                      A                      A                      A
 Frequencies --   1369.6761              1443.0483              1458.4203
 Red. masses --      1.5836                 1.3499                 1.2636
 Frc consts  --      1.7504                 1.6562                 1.5836
 IR Inten    --    231.9184                29.1150                17.8062
  Atom  AN      X      Y      Z        X      Y      Z        X      Y      Z
     1   6     0.02  -0.00   0.01    -0.01   0.00  -0.00     0.00  -0.00   0.00
     2   1     0.03  -0.00   0.01    -0.02   0.00  -0.01     0.01  -0.00   0.00
     3   6     0.00   0.00  -0.00    -0.00  -0.00   0.00     0.00   0.00  -0.00
     4   6    -0.13  -0.02   0.05     0.08   0.01  -0.02    -0.02  -0.00   0.01
     5   8     0.01  -0.01   0.02    -0.01   0.01  -0.01     0.00  -0.00   0.00
     6   8     0.09   0.05  -0.09    -0.06   0.00   0.04     0.02  -0.00  -0.01
     7   6    -0.06  -0.01  -0.02    -0.08  -0.06  -0.05     0.04   0.03   0.03
     8   6     0.00  -0.04   0.05     0.02  -0.05  -0.03    -0.07  -0.09  -0.07
     9   1    -0.45  -0.17  -0.19     0.51   0.30   0.22    -0.17  -0.13  -0.07
    10   1     0.71   0.25   0.24     0.49   0.22   0.32    -0.17  -0.08  -0.13
    11   1     0.02   0.06  -0.03     0.03   0.23   0.18    -0.04   0.46   0.27
    12   1    -0.05  -0.10  -0.08     0.01   0.07   0.21     0.35   0.22   0.37
    13   1     0.01   0.17   0.06     0.05   0.22   0.00     0.35   0.38   0.15
    14   8     0.00  -0.00   0.00    -0.00   0.00   0.00     0.00  -0.00  -0.00
    15   1    -0.01  -0.01  -0.00     0.01   0.00  -0.00    -0.00   0.00   0.00
                     28                     29                     30
                      A                      A                      A
 Frequencies --   1526.8877              1536.7363              1544.1346
 Red. masses --      1.0416                 1.0619                 1.0808
 Frc consts  --      1.4308                 1.4776                 1.5183
 IR Inten    --     13.8847                 3.3647                25.7388
  Atom  AN      X      Y      Z        X      Y      Z        X      Y      Z
     1   6     0.00  -0.00  -0.00     0.00  -0.00   0.00     0.00  -0.00   0.00
     2   1    -0.00   0.00   0.00     0.00  -0.00   0.00     0.00   0.00   0.00
     3   6    -0.00   0.00   0.00    -0.00   0.00  -0.00    -0.00   0.00  -0.00
     4   6    -0.00   0.00  -0.00    -0.02  -0.00  -0.00    -0.02   0.00  -0.00
     5   8     0.00  -0.00   0.00     0.00  -0.00   0.01     0.00  -0.00   0.01
     6   8     0.00   0.00  -0.00     0.02  -0.00  -0.01     0.02  -0.00  -0.01
     7   6    -0.01  -0.02   0.01     0.01  -0.04  -0.03     0.05  -0.04  -0.02
     8   6    -0.02  -0.02   0.04    -0.03   0.02  -0.01     0.03  -0.02  -0.00
     9   1    -0.01   0.14   0.02    -0.16   0.46  -0.08    -0.23   0.41  -0.11
    10   1    -0.02   0.01   0.07    -0.25   0.13   0.42    -0.32   0.06   0.34
    11   1     0.08   0.47  -0.46    -0.04   0.05   0.33     0.03  -0.13  -0.24
    12   1     0.57   0.07  -0.09     0.11  -0.10  -0.32    -0.21   0.11   0.37
    13   1    -0.32  -0.27  -0.13     0.38  -0.30   0.16    -0.30   0.39  -0.13
    14   8     0.00   0.00  -0.00     0.00  -0.00  -0.00    -0.00  -0.00  -0.00
    15   1    -0.00  -0.00  -0.00    -0.00  -0.00  -0.00     0.00   0.00   0.00
                     31                     32                     33
                      A                      A                      A
 Frequencies --   1917.8724              2309.7948              3107.7634
 Red. masses --     12.3191                 5.6390                 1.0353
 Frc consts  --     26.6974                17.7254                 5.8914
 IR Inten    --    302.5766                64.2751                13.6215
  Atom  AN      X      Y      Z        X      Y      Z        X      Y      Z
     1   6    -0.07   0.00  -0.01    -0.36   0.01  -0.07     0.00   0.00  -0.00
     2   1    -0.11  -0.01  -0.01    -0.75   0.00  -0.14    -0.00   0.00  -0.00
     3   6     0.05   0.01  -0.01     0.51  -0.02   0.10    -0.00   0.00   0.00
     4   6     0.24  -0.33   0.68    -0.09   0.02  -0.03     0.00   0.00  -0.00
     5   8    -0.18   0.22  -0.45     0.00  -0.00   0.01     0.00   0.00   0.00
     6   8     0.03   0.03  -0.06    -0.00  -0.00   0.00    -0.00  -0.00   0.00
     7   6     0.02  -0.01   0.01     0.00   0.00  -0.00     0.00   0.00   0.00
     8   6    -0.01   0.01   0.00    -0.00  -0.00  -0.00    -0.02  -0.04  -0.02
     9   1    -0.15   0.09  -0.05     0.01  -0.00  -0.00    -0.00   0.00  -0.00
    10   1    -0.12  -0.03   0.08     0.00  -0.00  -0.00     0.00  -0.02   0.01
    11   1    -0.00  -0.02  -0.05     0.00  -0.00   0.00     0.63  -0.06   0.06
    12   1     0.03   0.01  -0.01     0.00   0.00   0.00    -0.13   0.52  -0.25
    13   1    -0.03  -0.05  -0.01     0.00   0.00   0.00    -0.21  -0.03   0.45
    14   8     0.00   0.00  -0.00     0.00   0.00   0.00     0.00   0.00   0.00
    15   1    -0.02   0.02   0.01    -0.00  -0.00   0.00    -0.00  -0.00  -0.00
                     34                     35                     36
                      A                      A                      A
 Frequencies --   3136.7773              3185.8886              3191.2606
 Red. masses --      1.0599                 1.1008                 1.1027
 Frc consts  --      6.1442                 6.5829                 6.6165
 IR Inten    --     21.2864                14.1882                 8.0435
  Atom  AN      X      Y      Z        X      Y      Z        X      Y      Z
     1   6    -0.00   0.00   0.00    -0.00   0.00  -0.00     0.00  -0.00   0.00
     2   1     0.00  -0.00   0.00     0.00  -0.00  -0.00     0.00  -0.00  -0.00
     3   6     0.00  -0.00  -0.00     0.00  -0.00   0.00    -0.00   0.00   0.00
     4   6    -0.00  -0.00   0.00    -0.00  -0.00   0.00    -0.00   0.00  -0.00
     5   8    -0.00   0.00  -0.00     0.00  -0.00  -0.00     0.00  -0.00   0.00
     6   8     0.00   0.00  -0.00    -0.00   0.00  -0.00     0.00   0.00  -0.00
     7   6     0.03  -0.06  -0.02     0.01   0.02  -0.04     0.01   0.03  -0.05
     8   6    -0.01   0.01   0.00     0.05  -0.05   0.04    -0.06   0.01   0.03
     9   1    -0.22  -0.04   0.53    -0.18  -0.02   0.43    -0.17  -0.01   0.40
    10   1    -0.13   0.72  -0.34     0.04  -0.18   0.08     0.07  -0.38   0.17
    11   1     0.12  -0.01   0.01    -0.51   0.03  -0.04     0.54  -0.05   0.06
    12   1     0.01  -0.06   0.03    -0.13   0.59  -0.28     0.01  -0.13   0.07
    13   1     0.01   0.01  -0.03     0.08  -0.00  -0.13     0.22   0.03  -0.50
    14   8     0.00  -0.00  -0.00     0.00  -0.00  -0.00    -0.00  -0.00   0.00
    15   1    -0.00   0.00   0.00    -0.00  -0.00   0.00     0.00   0.00  -0.00
                     37                     38                     39
                      A                      A                      A
 Frequencies --   3211.8896              3531.0708              3802.7928
 Red. masses --      1.1046                 1.1752                 1.0671
 Frc consts  --      6.7141                 8.6331                 9.0922
 IR Inten    --     16.5669                60.3614                11.2260
  Atom  AN      X      Y      Z        X      Y      Z        X      Y      Z
     1   6    -0.00   0.00   0.00    -0.12   0.00  -0.02     0.00  -0.00   0.00
     2   1     0.00  -0.00  -0.00     0.98  -0.02   0.18     0.00   0.00  -0.00
     3   6     0.00  -0.00   0.00     0.04  -0.00   0.01    -0.00  -0.00  -0.00
     4   6    -0.00   0.00  -0.00    -0.00   0.00  -0.00    -0.00   0.00  -0.00
     5   8     0.00  -0.00   0.00     0.00   0.00  -0.00     0.00  -0.00   0.00
     6   8    -0.00   0.00  -0.00     0.00   0.00  -0.00     0.00  -0.00  -0.00
     7   6     0.01   0.03  -0.05    -0.00   0.00   0.00    -0.00   0.00   0.00
     8   6     0.02   0.03  -0.06     0.00  -0.00   0.00    -0.00   0.00  -0.00
     9   1    -0.19  -0.01   0.47     0.00   0.00  -0.00     0.00   0.00  -0.00
    10   1     0.06  -0.31   0.13     0.00   0.00   0.00     0.00  -0.00   0.00
    11   1    -0.13   0.02  -0.03     0.00   0.00   0.00     0.00  -0.00   0.00
    12   1     0.09  -0.37   0.16    -0.00   0.00  -0.00    -0.00   0.00   0.00
    13   1    -0.27  -0.02   0.59    -0.00  -0.00  -0.00    -0.00  -0.00  -0.00
    14   8    -0.00  -0.00   0.00     0.00   0.00   0.00    -0.01   0.02  -0.06
    15   1     0.00   0.00   0.00    -0.00  -0.00   0.00     0.09  -0.24   0.96

 -------------------
 - Thermochemistry -
 -------------------
 Temperature   298.150 Kelvin.  Pressure   1.00000 Atm.
 Atom     1 has atomic number  6 and mass  12.00000
 Atom     2 has atomic number  1 and mass   1.00783
 Atom     3 has atomic number  6 and mass  12.00000
 Atom     4 has atomic number  6 and mass  12.00000
 Atom     5 has atomic number  8 and mass  15.99491
 Atom     6 has atomic number  8 and mass  15.99491
 Atom     7 has atomic number  6 and mass  12.00000
 Atom     8 has atomic number  6 and mass  12.00000
 Atom     9 has atomic number  1 and mass   1.00783
 Atom    10 has atomic number  1 and mass   1.00783
 Atom    11 has atomic number  1 and mass   1.00783
 Atom    12 has atomic number  1 and mass   1.00783
 Atom    13 has atomic number  1 and mass   1.00783
 Atom    14 has atomic number  8 and mass  15.99491
 Atom    15 has atomic number  1 and mass   1.00783
 Molecular mass:   115.03952 amu.
 Principal axes and moments of inertia in atomic units:
                           1         2         3
     Eigenvalues --   530.592881385.048181567.77669
           X            0.99990   0.01211   0.00748
           Y           -0.01220   0.99985   0.01261
           Z           -0.00732  -0.01270   0.99989
 This molecule is an asymmetric top.
 Rotational symmetry number  1.
 Warning -- assumption of classical behavior for rotation
           may cause significant error
 Rotational temperatures (Kelvin)      0.16324     0.06253     0.05525
 Rotational constants (GHZ):           3.40137     1.30302     1.15115
    3 imaginary frequencies ignored.
 Zero-point vibrational energy     293467.9 (Joules/Mol)
                                   70.14052 (Kcal/Mol)
 Warning -- explicit consideration of  10 degrees of freedom as
           vibrations may cause significant error
 Vibrational temperatures:     29.23   117.22   122.05   170.77   263.57
          (Kelvin)            311.99   418.33   454.73   605.90   819.75
                              903.46  1096.15  1143.34  1172.19  1179.18
                             1294.39  1359.01  1602.44  1667.27  1766.71
                             1904.28  1970.66  2076.22  2098.34  2196.85
                             2211.02  2221.67  2759.39  3323.28  4471.38
                             4513.12  4583.78  4591.51  4621.19  5080.42
                             5471.37
 
 Zero-point correction=                           0.111776 (Hartree/Particle)
 Thermal correction to Energy=                    0.120828
 Thermal correction to Enthalpy=                  0.121772
 Thermal correction to Gibbs Free Energy=         0.075385
 Sum of electronic and zero-point Energies=           -419.848859
 Sum of electronic and thermal Energies=              -419.839807
 Sum of electronic and thermal Enthalpies=            -419.838863
 Sum of electronic and thermal Free Energies=         -419.885250
 
                     E (Thermal)             CV                S
                      KCal/Mol        Cal/Mol-Kelvin    Cal/Mol-Kelvin
 Total                   75.821             29.212             97.629
 Electronic               0.000              0.000              1.377
 Translational            0.889              2.981             40.136
 Rotational               0.889              2.981             28.534
 Vibrational             74.043             23.250             27.582
 Vibration     1          0.593              1.986              6.603
 Vibration     2          0.600              1.962              3.855
 Vibration     3          0.601              1.960              3.776
 Vibration     4          0.609              1.934              3.122
 Vibration     5          0.631              1.863              2.296
 Vibration     6          0.646              1.815              1.985
 Vibration     7          0.687              1.691              1.470
 Vibration     8          0.703              1.643              1.330
 Vibration     9          0.784              1.424              0.888
 Vibration    10          0.926              1.097              0.505
                       Q            Log10(Q)             Ln(Q)
 Total Bot       0.211479D-34        -34.674732        -79.841521
 Total V=0       0.547808D+17         16.738629         38.542117
 Vib (Bot)       0.567430D-48        -48.246087       -111.090722
 Vib (Bot)    1  0.101961D+02          1.008436          2.322010
 Vib (Bot)    2  0.252721D+01          0.402641          0.927115
 Vib (Bot)    3  0.242597D+01          0.384885          0.886230
 Vib (Bot)    4  0.172227D+01          0.236102          0.543645
 Vib (Bot)    5  0.109519D+01          0.039488          0.090925
 Vib (Bot)    6  0.913402D+00         -0.039338         -0.090580
 Vib (Bot)    7  0.657445D+00         -0.182140         -0.419394
 Vib (Bot)    8  0.596184D+00         -0.224620         -0.517206
 Vib (Bot)    9  0.416600D+00         -0.380281         -0.875629
 Vib (Bot)   10  0.270189D+00         -0.568333         -1.308634
 Vib (V=0)       0.146985D+04          3.167273          7.292916
 Vib (V=0)    1  0.107084D+02          1.029724          2.371028
 Vib (V=0)    2  0.307619D+01          0.488014          1.123693
 Vib (V=0)    3  0.297696D+01          0.473773          1.090902
 Vib (V=0)    4  0.229338D+01          0.360477          0.830028
 Vib (V=0)    5  0.170392D+01          0.231450          0.532934
 Vib (V=0)    6  0.154130D+01          0.187887          0.432625
 Vib (V=0)    7  0.132597D+01          0.122535          0.282148
 Vib (V=0)    8  0.127810D+01          0.106564          0.245372
 Vib (V=0)    9  0.115081D+01          0.061004          0.140467
 Vib (V=0)   10  0.106833D+01          0.028706          0.066099
 Electronic      0.200000D+01          0.301030          0.693147
 Translational   0.484981D+08          7.685724         17.697035
 Rotational      0.384238D+06          5.584601         12.859019
 ***** Axes restored to original set *****
 -------------------------------------------------------------------
 Center     Atomic                   Forces (Hartrees/Bohr)
 Number     Number              X              Y              Z
 -------------------------------------------------------------------
      1        6           0.021687559    0.001466103    0.004471241
      2        1           0.000808851   -0.000149812   -0.000137821
      3        6          -0.024903800   -0.010567897   -0.001637416
      4        6           0.045163997    0.014519841    0.025808420
      5        8          -0.020303977   -0.021937114   -0.041336659
      6        8          -0.001760427    0.006660338    0.013657973
      7        6          -0.017033212    0.000100693    0.003493923
      8        6          -0.000349713    0.000389012   -0.000318927
      9        1          -0.000370757    0.000021655    0.000780969
     10        1          -0.000477439   -0.001344203   -0.000831788
     11        1          -0.001412039    0.000228307   -0.000521181
     12        1           0.000299750    0.001197065    0.000240208
     13        1           0.000291773    0.000386755   -0.001635819
     14        8          -0.002581348    0.003582573   -0.018155982
     15        1           0.000940781    0.005446683    0.016122857
 -------------------------------------------------------------------
 Cartesian Forces:  Max     0.045163997 RMS     0.013277621

 GradGradGradGradGradGradGradGradGradGradGradGradGradGradGradGradGradGrad
 Berny optimization.
 Search for a local minimum.
 Step number   1 out of a maximum of    2
 All quantities printed in internal units (Hartrees-Bohrs-Radians)
 Second derivative matrix not updated -- analytic derivatives used.
 ITU=  0
     Eigenvalues ---   -0.01558  -0.00594  -0.00122  -0.00031   0.00105
     Eigenvalues ---    0.00145   0.00197   0.00381   0.00845   0.01819
     Eigenvalues ---    0.02528   0.03395   0.03598   0.05480   0.06726
     Eigenvalues ---    0.07670   0.08398   0.09396   0.09982   0.10587
     Eigenvalues ---    0.12122   0.14933   0.17971   0.18649   0.21486
     Eigenvalues ---    0.28730   0.29995   0.43487   0.50130   0.64635
     Eigenvalues ---    0.73961   0.77824   0.80672   0.88377   0.91409
     Eigenvalues ---    0.95334   0.97096   1.87728   2.83994
 Eigenvalue     1 is  -1.56D-02 should be greater than     0.000000 Eigenvector:
                          X15       X14       Y15       Z15       Y14
   1                    0.74332  -0.53295   0.21590  -0.18414  -0.15047
                          Y5        Y6        X12       X13       X8
   1                    0.09545  -0.07591   0.07499   0.06399   0.06193
 Eigenvalue     2 is  -5.94D-03 should be greater than     0.000000 Eigenvector:
                          Y5        Z15       Y15       Y14       Z14
   1                    0.53134  -0.39639   0.35135  -0.26669  -0.25525
                          X15       Y6        Z5        Z6        Z3
   1                   -0.25454  -0.20116  -0.19988   0.15703   0.15618
 Eigenvalue     3 is  -1.22D-03 should be greater than     0.000000 Eigenvector:
                          Y15       Y13       Z12       Y5        Z10
   1                    0.43999   0.38596   0.34472  -0.32523  -0.31192
                          Y9        X12       Z15       Y14       Z5
   1                   -0.26660  -0.21189  -0.16053  -0.13786   0.12901
 Eigenvalue     4 is  -3.08D-04 should be greater than     0.000000 Eigenvector:
                          X14       X15       X12       Y11       Y2
   1                    0.37677   0.37012  -0.31744  -0.30133  -0.30005
                          X13       X8        X11       Y6        Y13
   1                   -0.29688  -0.22343  -0.21925   0.18271  -0.16586
 Quadratic step=4.406D+00 exceeds max=3.000D-01 adjusted using Lamda=-2.081D-02.
 Angle between NR and scaled steps=  66.91 degrees.
 Angle between quadratic step and forces=  68.94 degrees.
 Linear search not attempted -- first point.
 B after Tr=     0.000434   -0.001075   -0.003215
         Rot=    1.000000   -0.000201   -0.000433   -0.000175 Ang=  -0.06 deg.
 Variable       Old X    -DE/DX   Delta X   Delta X   Delta X     New X
                                 (Linear)    (Quad)   (Total)
    X1        5.20393   0.02169   0.00000   0.03478   0.03620   5.24013
    Y1       -0.76846   0.00147   0.00000  -0.01417  -0.01374  -0.78220
    Z1        0.79365   0.00447   0.00000   0.02842   0.02035   0.81401
    X2        7.18269   0.00081   0.00000   0.03678   0.03846   7.22115
    Y2       -0.72106  -0.00015   0.00000   0.03604   0.03702  -0.68403
    Z2        1.15890  -0.00014   0.00000   0.01406   0.00431   1.16321
    X3        2.97748  -0.02490   0.00000   0.02275   0.02386   3.00134
    Y3       -0.79979  -0.01057   0.00000  -0.16058  -0.16076  -0.96055
    Z3        0.35082  -0.00164   0.00000   0.03508   0.02887   0.37970
    X4        0.30587   0.04516   0.00000   0.05124   0.05189   0.35776
    Y4       -1.14532   0.01452   0.00000  -0.06503  -0.06588  -1.21120
    Z4       -0.25133   0.02581   0.00000   0.01351   0.00950  -0.24183
    X5       -0.40740  -0.02030   0.00000  -0.04223  -0.04294  -0.45034
    Y5       -2.15558  -0.02194   0.00000  -0.00467  -0.00502  -2.16060
    Z5       -2.14615  -0.04134   0.00000  -0.04445  -0.04814  -2.19429
    X6       -1.16850  -0.00176   0.00000   0.01659   0.01854  -1.14996
    Y6       -0.28402   0.00666   0.00000  -0.01958  -0.02171  -0.30573
    Z6        1.60042   0.01366   0.00000   0.02477   0.02243   1.62285
    X7       -3.85193  -0.01703   0.00000  -0.03379  -0.03210  -3.88403
    Y7       -0.56299   0.00010   0.00000   0.00740   0.00448  -0.55852
    Z7        1.20450   0.00349   0.00000   0.01113   0.01106   1.21556
    X8       -4.84747  -0.00035   0.00000  -0.00387  -0.00442  -4.85189
    Y8        1.48729   0.00039   0.00000   0.01233   0.00977   1.49706
    Z8       -0.52888  -0.00032   0.00000  -0.00488  -0.00328  -0.53216
    X9       -4.65377  -0.00037   0.00000  -0.01570  -0.01242  -4.66619
    Y9       -0.42618   0.00002   0.00000   0.01582   0.01186  -0.41432
    Z9        3.09406   0.00078   0.00000   0.01817   0.01883   3.11289
   X10       -4.21193  -0.00048   0.00000  -0.02653  -0.02486  -4.23679
   Y10       -2.44243  -0.00134   0.00000   0.00438   0.00164  -2.44078
   Z10        0.43917  -0.00083   0.00000   0.00518   0.00466   0.44383
   X11       -6.89362  -0.00141   0.00000  -0.00786  -0.00852  -6.90214
   Y11        1.30155   0.00023   0.00000   0.02246   0.01926   1.32082
   Z11       -0.71728  -0.00052   0.00000  -0.01706  -0.01376  -0.73104
   X12       -4.42578   0.00030   0.00000   0.00309   0.00255  -4.42322
   Y12        3.35113   0.00120   0.00000   0.01528   0.01256   3.36368
   Z12        0.24466   0.00024   0.00000  -0.00875  -0.00678   0.23788
   X13       -4.00020   0.00029   0.00000   0.00531   0.00320  -3.99700
   Y13        1.32940   0.00039   0.00000   0.00147  -0.00004   1.32936
   Z13       -2.39978  -0.00164   0.00000  -0.00369  -0.00291  -2.40268
   X14        2.63063  -0.00258   0.00000  -0.02680  -0.02837   2.60226
   Y14        3.38541   0.00358   0.00000   0.18664   0.18683   3.57224
   Z14       -0.80570  -0.01816   0.00000  -0.06517  -0.06921  -0.87491
   X15        2.78905   0.00094   0.00000  -0.02099  -0.02108   2.76797
   Y15        3.90206   0.00545   0.00000  -0.01578  -0.01628   3.88579
   Z15        0.94939   0.01612   0.00000   0.02810   0.02405   0.97343
         Item               Value     Threshold  Converged?
 Maximum Force            0.045164     0.000450     NO 
 RMS     Force            0.013278     0.000300     NO 
 Maximum Displacement     0.186827     0.001800     NO 
 RMS     Displacement     0.044695     0.001200     NO 
 Predicted change in Energy=-5.778553D-03
 GradGradGradGradGradGradGradGradGradGradGradGradGradGradGradGradGradGrad


 ----------------------------------------------------------------------

 Electric dipole moment (input orientation):
 (Debye = 10**-18 statcoulomb cm , SI units = C m)
                  (au)            (Debye)         (10**-30 SI)
   Tot        0.131871D+01      0.335183D+01      0.111805D+02
   x         -0.673099D-01     -0.171085D+00     -0.570677D+00
   y          0.354589D+00      0.901274D+00      0.300633D+01
   z          0.126836D+01      0.322385D+01      0.107536D+02

 Dipole polarizability, Alpha (input orientation).
 (esu units = cm**3 , SI units = C**2 m**2 J**-1)
 Alpha(0;0):
               (au)            (10**-24 esu)      (10**-40 SI)
   iso        0.673242D+02      0.997642D+01      0.111003D+02
   aniso      0.312078D+02      0.462452D+01      0.514548D+01
   xx         0.867895D+02      0.128609D+02      0.143096D+02
   yx        -0.336717D+01     -0.498964D+00     -0.555172D+00
   yy         0.595194D+02      0.881987D+01      0.981343D+01
   zx         0.471691D+01      0.698975D+00      0.777714D+00
   zy         0.177976D+01      0.263733D+00      0.293443D+00
   zz         0.556638D+02      0.824852D+01      0.917771D+01

 ----------------------------------------------------------------------

 Dipole orientation:
     6          5.23215074         -0.91713753          0.29109979
     1          7.22725980         -0.95584769          0.55414240
     6          2.98584002         -0.84381889         -0.02960710
     6          0.28461813         -1.03338508         -0.56531163
     8         -0.53148191         -1.50190858         -2.62302348
     8         -1.08724519         -0.71206696          1.52258407
     6         -3.78927168         -0.89307137          1.20374025
     6         -4.85762518          1.54077039          0.13865891
     1         -4.49264554         -1.27499428          3.09886343
     1         -4.20101035         -2.49996663         -0.01935494
     1         -6.91197372          1.39822431          0.01194997
     1         -4.38396682          3.13087214          1.36230219
     1         -4.10807775          1.89769863         -1.74650434
     8          2.60970060          3.49569567          0.00109226
     1          2.86110031          3.52248519          1.82000530

 Electric dipole moment (dipole orientation):
 (Debye = 10**-18 statcoulomb cm , SI units = C m)
                  (au)            (Debye)         (10**-30 SI)
   Tot        0.131871D+01      0.335183D+01      0.111805D+02
   x          0.000000D+00      0.000000D+00      0.000000D+00
   y          0.000000D+00      0.000000D+00      0.000000D+00
   z          0.131871D+01      0.335183D+01      0.111805D+02

 Dipole polarizability, Alpha (dipole orientation).
 (esu units = cm**3 , SI units = C**2 m**2 J**-1)
 Alpha(0;0):
               (au)            (10**-24 esu)      (10**-40 SI)
   iso        0.673242D+02      0.997642D+01      0.111003D+02
   aniso      0.312078D+02      0.462452D+01      0.514548D+01
   xx         0.871421D+02      0.129131D+02      0.143678D+02
   yx        -0.417631D+01     -0.618865D+00     -0.688580D+00
   yy         0.582570D+02      0.863280D+01      0.960529D+01
   zx         0.207254D+01      0.307119D+00      0.341716D+00
   zy         0.276315D+01      0.409456D+00      0.455581D+00
   zz         0.565735D+02      0.838333D+01      0.932771D+01

 ----------------------------------------------------------------------
 1\1\GINC-AJ\Freq\UM062X\6-31+G\C5H7O3(2)\AAYUSH\20-Jun-2025\0\\# freq 
 6-31+g m062x\\Title Card Required\\0,2\C,2.7538,-0.406651,0.419984\H,3
 .800916,-0.381566,0.613262\C,1.575616,-0.423232,0.185647\C,0.161857,-0
 .606075,-0.132999\O,-0.215586,-1.140684,-1.135693\O,-0.618343,-0.15029
 8,0.846906\C,-2.038353,-0.297923,0.637396\C,-2.565172,0.787038,-0.2798
 7\H,-2.46267,-0.225525,1.637306\H,-2.228859,-1.292476,0.2324\H,-3.6479
 48,0.688751,-0.379567\H,-2.34202,1.773339,0.129467\H,-2.116815,0.70348
 9,-1.269907\O,1.392072,1.791484,-0.42636\H,1.4759,2.064883,0.502394\\V
 ersion=ES64L-G16RevA.03\State=2-A\HF=-419.9606347\S2=0.756192\S2-1=0.\
 S2A=0.750027\RMSD=5.825e-09\RMSF=1.328e-02\ZeroPoint=0.111776\Thermal=
 0.1208278\Dipole=-0.0673099,0.3545887,1.2683589\DipoleDeriv=-0.2505394
 ,-0.1865469,0.0167791,-0.0174725,-0.2439509,0.0020403,-0.0626415,-0.02
 30247,-0.2122024,0.267296,-0.0125891,-0.0019289,-0.0007259,0.2395021,0
 .0050592,0.0109639,0.0045744,0.2600935,-0.5978625,0.1750982,-0.0959211
 ,-0.0046508,-0.2740534,-0.0027632,-0.0387573,0.0680093,-0.1037004,2.12
 11586,0.1117108,-0.0771931,-0.175554,0.7785342,0.5167521,-0.4257838,0.
 5801935,1.4010897,-0.7856365,-0.1448971,-0.1879984,0.0151694,-0.557551
 9,-0.3062726,0.0122873,-0.3470085,-0.8782902,-1.540822,0.1926198,0.316
 4059,0.2270181,-0.4800251,-0.1671523,0.4801347,-0.1871912,-0.7994396,0
 .8962769,-0.0990724,-0.0810578,-0.0102477,0.3059314,-0.071304,0.015962
 1,-0.0230443,0.3067627,-0.0882214,0.0369453,0.0255754,0.049007,-0.0290
 302,0.0936381,-0.032145,0.0623814,-0.0548932,-0.0101598,0.0135657,0.02
 78852,0.0240247,0.0840852,-0.0050798,0.0760541,0.0220761,-0.0908789,-0
 .0066783,0.042106,0.0125029,-0.0383601,-0.0728634,-0.003949,-0.0577397
 ,-0.0470985,0.0690057,-0.1458235,0.0003215,-0.0235559,-0.0277288,0.081
 471,0.0036536,-0.016585,0.0185134,0.1085081,0.1025143,-0.0611584,-0.03
 44595,-0.0091894,-0.0864153,-0.0312097,-0.0302458,-0.0753012,0.0359882
 ,0.0971131,-0.0017624,0.0837557,0.0124599,0.0653771,-0.0215734,0.05685
 27,0.0150978,-0.0312795,-0.410086,-0.0899627,0.0315537,-0.0539675,-0.2
 034233,0.0528769,0.044818,-0.0503356,-0.0757801,0.3514705,0.0236218,-0
 .0123432,0.0102175,0.3924125,-0.0647162,-0.0331748,-0.0178419,0.065016
 6\Polar=86.7894641,-3.3671741,59.5194421,4.7169138,1.7797588,55.663753
 8\Quadrupole=8.3738382,-2.5244397,-5.8493985,-0.3497464,2.4484391,0.40
 25275\PG=C01 [X(C5H7O3)]\NImag=3\\1.56814969,0.03377369,0.06733846,0.2
 9327376,0.00344107,0.12002532,-0.42048891,-0.00896527,-0.07213393,0.41
 004083,-0.01116107,-0.03270491,-0.00145819,0.00918733,0.01898589,-0.07
 121279,-0.00086511,-0.04503852,0.07248104,0.00169940,0.03146846,-1.151
 05025,-0.02468312,-0.21896947,0.01132612,0.00217137,-0.00025034,1.4845
 8511,-0.04088752,-0.03739979,-0.00667700,-0.00018900,0.01058135,-0.001
 40378,0.06753774,0.09440346,-0.21705020,-0.00393309,-0.08556451,0.0003
 2673,-0.00068444,0.00974431,0.26818480,0.03116150,0.17314196,0.0153652
 4,-0.00298552,0.00036105,-0.00159064,-0.00042771,-0.00156924,-0.267324
 28,-0.01290345,-0.03914386,0.69148454,0.00874894,0.01090824,-0.0003561
 7,0.00011681,0.00401244,0.00022613,-0.02439184,-0.08474114,0.00430370,
 0.07755914,0.38270131,-0.00276391,-0.00309412,0.01109702,-0.00060374,-
 0.00001254,0.00379348,-0.02771155,0.00753762,-0.08123427,0.12213637,0.
 35086645,0.86725076,-0.00498608,0.00163810,0.00058964,0.00017626,0.000
 39214,0.00132073,-0.02611878,-0.03000113,-0.04981446,-0.17388430,-0.11
 456140,-0.21408858,0.17757126,-0.00082195,-0.00106541,0.00068175,-0.00
 008537,-0.00043617,0.00058450,-0.01814667,0.01248388,-0.02357954,-0.10
 974538,-0.21401330,-0.28602683,0.12411163,0.20343454,0.00094473,0.0004
 4303,0.00011144,0.00003308,0.00068152,0.00030142,-0.03435441,-0.023106
 03,-0.01832484,-0.20536083,-0.28647662,-0.59753794,0.22887487,0.359819
 00,0.69565735,-0.00605174,-0.00075488,-0.00281030,0.00072241,-0.000517
 84,-0.00085082,-0.05554477,0.01268497,0.03637295,-0.20263702,0.0564032
 8,0.11884112,0.02580129,0.00764305,0.01851089,0.53869719,-0.00039184,0
 .00064851,0.00015114,-0.00011539,-0.00042972,-0.00017062,0.00292673,0.
 00999136,-0.00336624,0.03679565,-0.09435213,-0.06910116,0.01360318,0.0
 0315686,-0.05429012,-0.04023944,0.14521957,-0.00043426,0.00102904,0.00
 015812,-0.00020246,-0.00019473,-0.00052075,0.00795178,-0.00429145,0.00
 313938,0.08345954,-0.07100425,-0.20312225,0.02794830,-0.05381674,-0.07
 993568,-0.11148355,0.13835184,0.35660455,0.00205952,-0.00010258,0.0013
 5976,-0.00029119,0.00005555,-0.00013593,0.00391359,0.00214005,-0.00129
 354,-0.05909528,0.00865403,0.02648340,-0.00075944,-0.00858437,-0.01569
 605,-0.20116258,-0.01362223,-0.00448321,0.48332521,-0.00026146,-0.0003
 7837,0.00042425,-0.00003522,-0.00017093,0.00009325,0.00148804,0.004796
 25,-0.00423326,0.01618729,0.00576412,0.00677095,-0.00169708,-0.0049739
 3,0.00003035,-0.02823695,-0.07218517,-0.01379227,0.00654020,0.58705876
 ,0.00080158,0.00073377,0.00022016,0.00002640,0.00006296,0.00015096,0.0
 0322534,-0.00457118,-0.00171215,0.04047330,0.00431742,0.00298863,0.002
 08252,0.00144945,-0.00265190,-0.03745127,-0.01392199,-0.08172141,-0.06
 426550,0.04923334,0.61969536,-0.00030651,-0.00006040,-0.00014378,0.000
 09612,0.00007894,-0.00004248,-0.00073389,-0.00128339,0.00129732,0.0021
 4457,-0.00147140,-0.00829654,0.00061284,0.00222144,0.00213695,-0.03800
 133,0.03091367,-0.02562391,-0.08518703,0.02098944,-0.01405645,0.587744
 76,-0.00016777,0.00009826,-0.00015704,0.00001842,-0.00002487,0.0000154
 8,0.00009744,-0.00063280,0.00049000,0.00074642,-0.00116946,-0.00316620
 ,0.00093277,0.00022657,0.00148005,-0.00231444,0.00735452,-0.00007918,0
 .03179789,-0.16159275,0.05969904,0.02665911,0.55212646,-0.00001936,0.0
 0003069,-0.00011156,-0.00000946,-0.00000369,0.00001269,-0.00039071,-0.
 00024759,0.00021327,0.00142377,-0.00001254,0.00295847,-0.00144220,0.00
 131145,-0.00086336,-0.00703687,0.00234910,-0.00119502,-0.02130786,0.05
 865976,-0.13779153,-0.02408237,0.04117671,0.56821898,-0.00055154,-0.00
 012852,-0.00027101,0.00004185,-0.00003757,-0.00001821,-0.00110877,0.00
 078003,0.00102231,-0.00438041,-0.00460738,-0.00418277,0.00165564,0.000
 73040,0.00077012,-0.03483016,0.00560083,0.03501356,-0.08189168,0.00570
 798,0.09019786,0.00706140,-0.00046123,-0.01256614,0.10949007,0.0000179
 6,-0.00007359,-0.00000443,-0.00001183,0.00000468,-0.00000704,-0.000154
 04,0.00039406,0.00006204,-0.00077816,-0.00129874,-0.00244788,0.0019277
 5,0.00075544,0.00035735,-0.00471551,0.00144922,0.00464062,0.00900430,-
 0.05659102,-0.02291166,-0.00908239,0.00095464,0.02683191,-0.00978256,0
 .05619760,0.00001325,-0.00014672,0.00001903,-0.00000307,0.00001357,-0.
 00002346,0.00004330,0.00051561,0.00014964,-0.00314952,-0.00026387,0.00
 006654,0.00110620,0.00034147,0.00057061,-0.00622376,-0.00066926,0.0071
 5830,0.10405184,-0.02157439,-0.29209986,0.00628340,-0.00156472,-0.0178
 9761,-0.10469900,0.02000090,0.31111026,-0.00003649,-0.00013781,-0.0000
 5939,0.00004474,-0.00003473,0.00001341,-0.00009193,0.00088758,0.000073
 45,0.00183815,-0.00510671,-0.00779801,0.00077294,0.00164655,0.00330919
 ,-0.02947899,-0.03509722,-0.01387398,-0.05546847,-0.03188180,-0.010578
 40,0.00430979,0.01259704,0.00451138,0.00438946,0.01221746,0.00435945,0
 .07390966,0.00014103,0.00008728,-0.00003684,0.00000631,0.00001043,-0.0
 0001278,-0.00015937,-0.00034739,0.00045833,0.00089156,-0.00052514,-0.0
 0339019,0.00273147,0.00081097,0.00056212,-0.00503080,0.00052188,-0.001
 15776,-0.04260046,-0.28026386,-0.09288293,-0.00223508,-0.02202403,-0.0
 0886809,0.00036445,-0.00029813,0.00064108,0.04414626,0.30256549,-0.000
 16944,0.00013438,-0.00005361,0.00001088,0.00000009,0.00000864,-0.00035
 722,-0.00064541,0.00000511,0.00277843,0.00039741,0.00088361,0.00068077
 ,0.00044326,-0.00112310,-0.00536260,-0.00306919,-0.00139838,-0.0170410
 6,-0.09651491,-0.09230447,0.00312635,0.02286446,0.00791447,-0.00485991
 ,-0.02809996,-0.00968978,0.02194512,0.10224323,0.09667048,-0.00010437,
 0.00003031,-0.00004330,0.00003542,-0.00000407,0.00001095,-0.00022130,-
 0.00024486,0.00010301,0.00165008,-0.00087751,-0.00113687,-0.00011200,0
 .00059259,0.00032531,-0.00045613,0.00294820,-0.00106490,-0.01189242,-0
 .00422755,0.00143045,-0.31859813,-0.02447786,-0.02479750,0.00029700,-0
 .00002223,-0.00039805,0.00018267,0.00049078,0.00016037,0.34843924,0.00
 013576,-0.00003090,0.00006937,-0.00000992,-0.00000262,0.00000656,0.000
 12470,0.00042536,-0.00039683,-0.00064039,0.00035945,0.00201208,-0.0001
 9131,-0.00057397,-0.00059077,0.00483974,-0.00396685,0.00326042,0.02491
 170,0.00314649,0.00075285,-0.02663038,-0.05130867,-0.00169211,-0.00054
 438,0.00094970,-0.00020678,-0.00050440,0.00022299,-0.00105864,0.026950
 30,0.05260901,-0.00007386,-0.00004233,-0.00000689,0.00001014,0.0000073
 3,-0.00000513,-0.00011509,0.00001322,0.00017170,0.00032724,-0.00057039
 ,-0.00280078,0.00059726,-0.00006300,0.00108681,-0.00454655,0.00438814,
 -0.00165470,-0.02067374,-0.00392219,-0.00140852,-0.02285156,-0.0010682
 9,-0.05034142,0.00053660,-0.00087351,-0.00000791,0.00037170,-0.0002521
 1,0.00078008,0.02806897,0.00012091,0.05140368,-0.00001741,0.00000580,-
 0.00000300,-0.00002771,0.00000164,-0.00000192,0.00014144,-0.00008791,0
 .00000109,-0.00055759,0.00098471,0.00135719,-0.00043486,-0.00018059,-0
 .00068484,0.00218141,-0.00088883,0.00066500,0.00113255,0.01415765,0.00
 303995,-0.06114358,-0.05318289,-0.02085304,0.00009962,-0.00081666,0.00
 042268,-0.00034286,0.00194142,-0.00157947,-0.00601131,-0.03145536,-0.0
 1320974,0.06178812,0.00011980,0.00003689,0.00003988,0.00000338,-0.0000
 0536,-0.00000796,0.00002262,0.00005719,-0.00001550,-0.00024196,-0.0006
 4900,-0.00062497,0.00035163,0.00019560,0.00046665,-0.00058065,0.002832
 20,-0.00081343,-0.00607376,-0.02595640,-0.00966022,-0.05072655,-0.2716
 6960,-0.09514985,-0.00011440,0.00100462,0.00002739,0.00173603,-0.00166
 456,0.00367632,0.00063983,-0.00161728,-0.00087483,0.05589455,0.2992533
 1,0.00009780,-0.00001575,0.00000422,-0.00000111,0.00000140,0.00000249,
 0.,0.00031763,-0.00002906,-0.00053019,-0.00045561,-0.00009726,0.000535
 74,-0.00034751,0.00027239,0.00233616,-0.00167782,0.00055366,0.00352702
 ,0.02517964,0.00771549,-0.02196825,-0.09797781,-0.09167116,0.00062637,
 -0.00052780,0.00106363,-0.00216011,0.00309701,-0.00249235,0.00040160,-
 0.00230592,-0.00175007,0.02541088,0.10262522,0.09665804,0.00010489,-0.
 00004055,0.00003940,-0.00003517,0.00001407,-0.00000036,0.00015335,0.00
 018505,-0.00004984,-0.00135696,0.00025067,-0.00087285,-0.00050185,0.00
 074252,0.00042081,0.00146779,-0.00123482,0.00079528,0.00481539,0.00109
 400,-0.01474229,-0.09800542,0.00788899,0.10664683,-0.00021251,0.002253
 90,-0.00186600,0.00000101,-0.00070113,0.00067220,-0.01311272,0.0030328
 3,0.03148271,0.00316375,-0.00109283,-0.00818466,0.10332244,-0.00015822
 ,-0.00000536,-0.00004835,0.00000555,0.00001665,0.00001321,0.00000905,-
 0.00038744,-0.00004838,0.00127789,0.00135939,0.00210066,-0.00068243,-0
 .00082854,-0.00127845,-0.00030779,0.00074395,-0.00272798,-0.01208557,0
 .00084804,0.02801012,0.01053682,-0.05229298,-0.02443334,0.00242346,-0.
 00344702,0.00285775,-0.00056683,0.00090534,-0.00036384,-0.00178843,-0.
 00022433,0.00312463,0.01366649,-0.00185016,-0.02792838,-0.01245738,0.0
 5520343,0.00008975,-0.00005004,0.00004361,-0.00002266,-0.00001199,-0.0
 0001166,0.00008413,0.00038916,0.00000562,-0.00124343,-0.00015468,-0.00
 185055,0.00123972,-0.00079355,0.00108205,-0.00056716,-0.00092655,0.001
 85857,0.00992194,-0.00036156,-0.02121116,0.10418148,-0.02155087,-0.279
 26988,-0.00162565,0.00299430,-0.00042109,-0.00022323,-0.00045517,0.000
 78357,-0.00308648,-0.00002135,0.00449615,0.00554910,0.00023256,-0.0103
 1655,-0.11441391,0.02072084,0.30487065,-0.00136053,0.00222487,-0.00129
 560,0.00006971,-0.00049120,0.00020695,0.00285518,0.00128268,-0.0005500
 4,-0.00553691,0.00102459,0.00189959,0.00098501,-0.00043502,-0.00019614
 ,0.00043375,-0.00380933,0.00023145,0.00086075,0.00032806,-0.00046914,-
 0.00011582,0.00019661,0.00004818,-0.00002528,0.00000862,0.00005346,-0.
 00015151,-0.00009620,-0.00003464,-0.00018044,-0.00019475,0.00006424,0.
 00030804,-0.00018605,-0.00022236,0.00022034,0.00019999,0.00018881,-0.0
 0199540,0.01096605,-0.00652375,0.00431796,-0.00023713,0.00009865,-0.00
 019653,-0.00746702,-0.00593215,0.00153250,-0.00277124,-0.00590269,0.00
 081762,0.00032434,0.00053670,0.00049312,-0.00054074,-0.00163516,0.0004
 2057,0.00097836,0.00027329,-0.00038438,-0.00006479,-0.00009054,0.00001
 435,-0.00003639,0.00002631,0.00003500,-0.00011757,-0.00000495,-0.00009
 177,-0.00006591,0.00007264,-0.00003396,-0.00002598,0.00003988,0.000115
 24,0.00010876,-0.00014616,-0.00000210,0.01090633,0.05389285,-0.0043696
 8,0.00105921,-0.00146508,0.00005390,0.00000839,0.00010369,0.00370489,-
 0.00172771,0.00014092,0.00140831,-0.00027630,-0.00207319,-0.00018869,-
 0.00030081,0.00088195,0.00001464,0.00198712,0.00060225,-0.00039332,0.0
 0003205,0.00013203,0.00004289,-0.00013303,-0.00010547,0.00001578,-0.00
 002926,0.00001098,0.00012360,0.00005050,0.00002416,0.00001512,0.000036
 35,0.00002193,-0.00006214,0.00009167,0.00005106,0.00005771,-0.00000185
 ,-0.00005086,0.04468155,0.13551859,0.47600089,-0.00072551,0.00018589,0
 .00010620,-0.00011983,0.00077314,0.00004901,-0.00078081,0.00009914,0.0
 0052028,0.00388082,-0.00272594,-0.00326285,-0.00077794,0.00031117,0.00
 096633,-0.00114113,0.00261083,0.00110138,-0.00035892,-0.00015259,0.000
 28563,0.00012222,-0.00033051,-0.00012467,-0.00003469,-0.00006661,0.000
 00582,0.00012181,0.00010975,0.00003022,0.00008441,0.00017587,0.0000116
 8,-0.00027962,0.00024835,0.00013110,-0.00002433,-0.00007260,-0.0000724
 1,0.00363310,-0.01195708,-0.04510456,-0.00359958,-0.00005339,-0.000935
 56,-0.00038739,0.00031132,0.00006449,0.00002528,0.00062437,-0.00369219
 ,-0.00175080,-0.00296415,-0.00245335,-0.00224149,0.00112035,0.00029076
 ,0.00140880,0.00166801,0.00065095,0.00017528,-0.00101312,0.00022548,0.
 00007340,0.00015494,0.00004525,0.00003323,0.00010528,-0.00002778,-0.00
 000702,0.00021615,0.00000367,0.00008458,0.00005640,-0.00006105,0.00004
 638,-0.00001405,-0.00000733,-0.00009953,-0.00004407,0.00010518,-0.0000
 0899,-0.01095921,-0.03470492,-0.13631495,0.01079118,0.04049640,0.00087
 261,0.00127596,0.00056125,0.00003426,-0.00010909,0.00001337,-0.0010454
 5,0.00273542,0.00015291,-0.00137093,-0.00054067,-0.00032226,0.00055818
 ,0.00029708,0.00047281,0.00025712,-0.00003438,-0.00052663,-0.00005374,
 -0.00002501,-0.00000163,-0.00000305,-0.00002859,-0.00007089,0.00004009
 ,0.00001441,-0.00000928,-0.00001417,0.00000359,-0.00000841,0.00001132,
 0.00001386,0.00001507,-0.00005174,-0.00001292,0.00003546,0.00001497,0.
 00000335,-0.00000847,-0.04460630,-0.14255621,-0.47427526,0.04535683,0.
 13896321,0.47397199\\-0.02168756,-0.00146610,-0.00447124,-0.00080885,0
 .00014981,0.00013782,0.02490380,0.01056790,0.00163742,-0.04516400,-0.0
 1451984,-0.02580842,0.02030398,0.02193711,0.04133666,0.00176043,-0.006
 66034,-0.01365797,0.01703321,-0.00010069,-0.00349392,0.00034971,-0.000
 38901,0.00031893,0.00037076,-0.00002165,-0.00078097,0.00047744,0.00134
 420,0.00083179,0.00141204,-0.00022831,0.00052118,-0.00029975,-0.001197
 07,-0.00024021,-0.00029177,-0.00038675,0.00163582,0.00258135,-0.003582
 57,0.01815598,-0.00094078,-0.00544668,-0.01612286\\\@


 IF YOU WISH TO UNDERSTAND THE FRAGRANCE OF THE ROSE, 
 OR THE TENACITY OF THE OAK; 
 IF YOU ARE NOT SATISFIED UNTIL YOU KNOW THE SECRET PATHS 
 BY WHICH THE SUNSHINE AND THE AIR ACHIEVE THESE WONDERS; 
 IF YOU WISH TO SEE THE PATTERN WHICH UNDERLIES ONE LARGE FIELD OF 
 HUMAN EXPERIENCE AND HUMAN MEASUREMENT, THEN TAKE UP CHEMISTRY.

                                         -- C. A. COULSON, 1973.
 Job cpu time:       0 days  0 hours 19 minutes 12.5 seconds.
 Elapsed time:       0 days  0 hours  0 minutes 48.1 seconds.
 File lengths (MBytes):  RWF=     59 Int=      0 D2E=      0 Chk=      8 Scr=      1
 Normal termination of Gaussian 16 at Fri Jun 20 13:41:07 2025.
