 Entering Gaussian System, Link 0=g16
 Initial command:
 /opt/g16/l1.exe "/home/aayush/scratches/g16/Gau-7457.inp" -scrdir="/home/aayush/scratches/g16/"
 Entering Link 1 = /opt/g16/l1.exe PID=      7460.
  
 Copyright (c) 1988,1990,1992,1993,1995,1998,2003,2009,2016,
            Gaussian, Inc.  All Rights Reserved.
  
 This is part of the Gaussian(R) 16 program.  It is based on
 the Gaussian(R) 09 system (copyright 2009, Gaussian, Inc.),
 the Gaussian(R) 03 system (copyright 2003, Gaussian, Inc.),
 the Gaussian(R) 98 system (copyright 1998, Gaussian, Inc.),
 the Gaussian(R) 94 system (copyright 1995, Gaussian, Inc.),
 the Gaussian 92(TM) system (copyright 1992, Gaussian, Inc.),
 the Gaussian 90(TM) system (copyright 1990, Gaussian, Inc.),
 the Gaussian 88(TM) system (copyright 1988, Gaussian, Inc.),
 the Gaussian 86(TM) system (copyright 1986, Carnegie Mellon
 University), and the Gaussian 82(TM) system (copyright 1983,
 Carnegie Mellon University). Gaussian is a federally registered
 trademark of Gaussian, Inc.
  
 This software contains proprietary and confidential information,
 including trade secrets, belonging to Gaussian, Inc.
  
 This software is provided under written license and may be
 used, copied, transmitted, or stored only in accord with that
 written license.
  
 The following legend is applicable only to US Government
 contracts under FAR:
  
                    RESTRICTED RIGHTS LEGEND
  
 Use, reproduction and disclosure by the US Government is
 subject to restrictions as set forth in subparagraphs (a)
 and (c) of the Commercial Computer Software - Restricted
 Rights clause in FAR 52.227-19.
  
 Gaussian, Inc.
 340 Quinnipiac St., Bldg. 40, Wallingford CT 06492
  
  
 ---------------------------------------------------------------
 Warning -- This program may not be used in any manner that
 competes with the business of Gaussian, Inc. or will provide
 assistance to any competitor of Gaussian, Inc.  The licensee
 of this program is prohibited from giving any competitor of
 Gaussian, Inc. access to this program.  By using this program,
 the user acknowledges that Gaussian, Inc. is engaged in the
 business of creating and licensing software in the field of
 computational chemistry and represents and warrants to the
 licensee that it is not a competitor of Gaussian, Inc. and that
 it will not use this program in any manner prohibited above.
 ---------------------------------------------------------------
  

 Cite this work as:
 Gaussian 16, Revision A.03,
 M. J. Frisch, G. W. Trucks, H. B. Schlegel, G. E. Scuseria, 
 M. A. Robb, J. R. Cheeseman, G. Scalmani, V. Barone, 
 G. A. Petersson, H. Nakatsuji, X. Li, M. Caricato, A. V. Marenich, 
 J. Bloino, B. G. Janesko, R. Gomperts, B. Mennucci, H. P. Hratchian, 
 J. V. Ortiz, A. F. Izmaylov, J. L. Sonnenberg, D. Williams-Young, 
 F. Ding, F. Lipparini, F. Egidi, J. Goings, B. Peng, A. Petrone, 
 T. Henderson, D. Ranasinghe, V. G. Zakrzewski, J. Gao, N. Rega, 
 G. Zheng, W. Liang, M. Hada, M. Ehara, K. Toyota, R. Fukuda, 
 J. Hasegawa, M. Ishida, T. Nakajima, Y. Honda, O. Kitao, H. Nakai, 
 T. Vreven, K. Throssell, J. A. Montgomery, Jr., J. E. Peralta, 
 F. Ogliaro, M. J. Bearpark, J. J. Heyd, E. N. Brothers, K. N. Kudin, 
 V. N. Staroverov, T. A. Keith, R. Kobayashi, J. Normand, 
 K. Raghavachari, A. P. Rendell, J. C. Burant, S. S. Iyengar, 
 J. Tomasi, M. Cossi, J. M. Millam, M. Klene, C. Adamo, R. Cammi, 
 J. W. Ochterski, R. L. Martin, K. Morokuma, O. Farkas, 
 J. B. Foresman, and D. J. Fox, Gaussian, Inc., Wallingford CT, 2016.
 
 ******************************************
 Gaussian 16:  ES64L-G16RevA.03 25-Dec-2016
                 3-Aug-2025 
 ******************************************
 %nprocshared=24
 Will use up to   24 processors via shared memory.
 %mem=12GB
 %chk=ethyl_propiolate_ts1.chk
 --------------------------
 # ccsd(t)/6-311++g(d,p) sp
 --------------------------
 1/38=1,172=1/1;
 2/12=2,17=6,18=5,40=1/2;
 3/5=4,6=6,7=1111,11=9,25=1,30=1/1,2,3;
 4//1;
 5/5=2,38=5/2;
 8/6=4,9=120000,10=2/1,4;
 9/5=7,14=2/13;
 6/7=2,8=2,9=2,10=2/1;
 99/5=1,9=1/99;
 -------------------
 Title Card Required
 -------------------
 Symbolic Z-matrix:
 Charge =  0 Multiplicity = 2
 C                    -2.79642  -0.4411   -0.41533 
 H                    -3.83891  -0.48348  -0.63419 
 C                    -1.6243   -0.17329  -0.09962 
 C                    -0.22013  -0.59874   0.14245 
 O                     0.13771  -1.19843   1.11295 
 O                     0.56146  -0.16212  -0.84068 
 C                     1.98124  -0.31638  -0.63228 
 C                     2.50182   0.75295   0.30767 
 H                     2.40727  -0.22321  -1.62952 
 H                     2.17181  -1.31867  -0.24728 
 H                     3.58437   0.65474   0.4094 
 H                     2.27634   1.74608  -0.08293 
 H                     2.05068   0.65023   1.29485 
 O                    -1.4683    1.56499   0.41724 
 H                    -1.55175   1.9981   -0.44376 
 
                          Input orientation:                          
 ---------------------------------------------------------------------
 Center     Atomic      Atomic             Coordinates (Angstroms)
 Number     Number       Type             X           Y           Z
 ---------------------------------------------------------------------
      1          6           0       -2.796418   -0.441101   -0.415331
      2          1           0       -3.838907   -0.483479   -0.634190
      3          6           0       -1.624298   -0.173290   -0.099615
      4          6           0       -0.220132   -0.598735    0.142445
      5          8           0        0.137707   -1.198429    1.112949
      6          8           0        0.561457   -0.162115   -0.840678
      7          6           0        1.981242   -0.316381   -0.632281
      8          6           0        2.501823    0.752954    0.307671
      9          1           0        2.407268   -0.223213   -1.629516
     10          1           0        2.171808   -1.318672   -0.247276
     11          1           0        3.584374    0.654740    0.409403
     12          1           0        2.276341    1.746080   -0.082930
     13          1           0        2.050681    0.650226    1.294849
     14          8           0       -1.468304    1.564986    0.417239
     15          1           0       -1.551747    1.998099   -0.443755
 ---------------------------------------------------------------------
                    Distance matrix (angstroms):
                    1          2          3          4          5
     1  C    0.000000
     2  H    1.066057   0.000000
     3  C    1.243087   2.299235   0.000000
     4  C    2.640684   3.702969   1.487037   0.000000
     5  O    3.393858   4.401944   2.371894   1.195642   0.000000
     6  O    3.396186   4.416912   2.307991   1.329680   2.251704
     7  C    4.784209   5.822548   3.647482   2.350739   2.687463
     8  C    5.479038   6.528455   4.248374   3.043584   3.169450
     9  H    5.347903   6.330333   4.312379   3.191253   3.690944
    10  H    5.047935   6.080785   3.967887   2.528155   2.449946
    11  H    6.526527   7.582198   5.298584   4.014565   3.976019
    12  H    5.534179   6.532310   4.347326   3.432394   3.830668
    13  H    5.254529   6.300296   4.015990   2.836288   2.666474
    14  O    2.545868   3.304765   1.820186   2.512993   3.271047
    15  H    2.738560   3.380177   2.199688   2.976638   3.936416
                    6          7          8          9         10
     6  O    0.000000
     7  C    1.443266   0.000000
     8  C    2.433326   1.515913   0.000000
     9  H    2.008237   1.088419   2.171298   0.000000
    10  H    2.069536   1.090473   2.169910   1.779342   0.000000
    11  H    3.371644   2.144345   1.091747   2.512682   2.514145
    12  H    2.675111   2.154673   1.090739   2.507426   3.070935
    13  H    2.727299   2.157077   1.090231   3.072777   2.503873
    14  O    2.947060   4.066989   4.053802   4.733595   4.691213
    15  H    3.047901   4.227809   4.306560   4.691914   4.990434
                   11         12         13         14         15
    11  H    0.000000
    12  H    1.773236   0.000000
    13  H    1.770946   1.774850   0.000000
    14  O    5.134020   3.782239   3.740353   0.000000
    15  H    5.377009   3.853306   4.221018   0.967399   0.000000
 Stoichiometry    C5H7O3(2)
 Framework group  C1[X(C5H7O3)]
 Deg. of freedom    39
 Full point group                 C1      NOp   1
 Largest Abelian subgroup         C1      NOp   1
 Largest concise Abelian subgroup C1      NOp   1
                         Standard orientation:                         
 ---------------------------------------------------------------------
 Center     Atomic      Atomic             Coordinates (Angstroms)
 Number     Number       Type             X           Y           Z
 ---------------------------------------------------------------------
      1          6           0       -2.796418   -0.441101   -0.415331
      2          1           0       -3.838907   -0.483479   -0.634190
      3          6           0       -1.624298   -0.173290   -0.099615
      4          6           0       -0.220132   -0.598735    0.142445
      5          8           0        0.137707   -1.198429    1.112949
      6          8           0        0.561457   -0.162115   -0.840678
      7          6           0        1.981242   -0.316381   -0.632281
      8          6           0        2.501823    0.752954    0.307671
      9          1           0        2.407268   -0.223213   -1.629516
     10          1           0        2.171808   -1.318672   -0.247276
     11          1           0        3.584374    0.654740    0.409403
     12          1           0        2.276341    1.746080   -0.082930
     13          1           0        2.050681    0.650226    1.294849
     14          8           0       -1.468304    1.564986    0.417239
     15          1           0       -1.551747    1.998099   -0.443755
 ---------------------------------------------------------------------
 Rotational constants (GHZ):           3.7468511           1.3111570           1.1877104
 Standard basis: 6-311++G(d,p) (5D, 7F)
 There are   233 symmetry adapted cartesian basis functions of A   symmetry.
 There are   225 symmetry adapted basis functions of A   symmetry.
   225 basis functions,   351 primitive gaussians,   233 cartesian basis functions
    31 alpha electrons       30 beta electrons
       nuclear repulsion energy       363.9731738966 Hartrees.
 NAtoms=   15 NActive=   15 NUniq=   15 SFac= 1.00D+00 NAtFMM=   60 NAOKFM=F Big=F
 Integral buffers will be    131072 words long.
 Raffenetti 2 integral format.
 Two-electron integral symmetry is turned on.
 One-electron integrals computed using PRISM.
 NBasis=   225 RedAO= T EigKep=  5.03D-06  NBF=   225
 NBsUse=   225 1.00D-06 EigRej= -1.00D+00 NBFU=   225
 ExpMin= 3.60D-02 ExpMax= 8.59D+03 ExpMxC= 1.30D+03 IAcc=3 IRadAn=         5 AccDes= 0.00D+00
 Harris functional with IExCor=  205 and IRadAn=       5 diagonalized for initial guess.
 HarFok:  IExCor=  205 AccDes= 0.00D+00 IRadAn=         5 IDoV= 1 UseB2=F ITyADJ=14
 ICtDFT=  3500011 ScaDFX=  1.000000  1.000000  1.000000  1.000000
 FoFCou: FMM=F IPFlag=           0 FMFlag=      100000 FMFlg1=           0
         NFxFlg=           0 DoJE=T BraDBF=F KetDBF=T FulRan=T
         wScrn=  0.000000 ICntrl=       500 IOpCl=  0 I1Cent=   200000004 NGrid=           0
         NMat0=    1 NMatS0=      1 NMatT0=    0 NMatD0=    1 NMtDS0=    0 NMtDT0=    0
 Petite list used in FoFCou.
 Initial guess <Sx>= 0.0000 <Sy>= 0.0000 <Sz>= 0.5000 <S**2>= 0.7500 S= 0.5000
 Requested convergence on RMS density matrix=1.00D-08 within 128 cycles.
 Requested convergence on MAX density matrix=1.00D-06.
 Requested convergence on             energy=1.00D-06.
 No special actions if energy rises.
 Initial convergence to 1.0D-05 achieved.  Increase integral accuracy.
 SCF Done:  E(UHF) =  -417.977094672     A.U. after   30 cycles
            NFock= 30  Conv=0.54D-08     -V/T= 2.0008
 <Sx>= 0.0000 <Sy>= 0.0000 <Sz>= 0.5000 <S**2>= 1.0963 S= 0.6603
 <L.S>=  0.00000000000    
 Annihilation of the first spin contaminant:
 S**2 before annihilation     1.0963,   after     0.8326
 ExpMin= 3.60D-02 ExpMax= 8.59D+03 ExpMxC= 1.30D+03 IAcc=3 IRadAn=         5 AccDes= 0.00D+00
 HarFok:  IExCor=  205 AccDes= 0.00D+00 IRadAn=         5 IDoV=-2 UseB2=F ITyADJ=14
 ICtDFT= 12500011 ScaDFX=  1.000000  1.000000  1.000000  1.000000
 Range of M.O.s used for correlation:     9   225
 NBasis=   225 NAE=    31 NBE=    30 NFC=     8 NFV=     0
 NROrb=    217 NOA=    23 NOB=    22 NVA=   194 NVB=   195

 **** Warning!!: The largest alpha MO coefficient is  0.12519515D+03


 **** Warning!!: The largest beta MO coefficient is  0.13556868D+03

 Semi-Direct transformation.
 ModeAB=           4 MOrb=            23 LenV=    1609173599
 LASXX=    109339976 LTotXX=   109339976 LenRXX=   221407890
 LTotAB=   112067914 MaxLAS=   130334974 LenRXY=           0
 NonZer=   330747866 LenScr=   498067456 LnRSAI=   130334974
 LnScr1=   196270080 LExtra=           0 Total=   1046080400
 MaxDsk=          -1 SrtSym=           T ITran=            4
 JobTyp=1 Pass  1:  I=   1 to  23.
 (rs|ai) integrals will be sorted in core.
 ModeAB=           4 MOrb=            22 LenV=    1609173599
 LASXX=    104936601 LTotXX=   104936601 LenRXX=   190867446
 LTotAB=    85930845 MaxLAS=   124668236 LenRXY=           0
 NonZer=   295804047 LenScr=   445446144 LnRSAI=   124668236
 LnScr1=   187766784 LExtra=           0 Total=    948748610
 MaxDsk=          -1 SrtSym=           T ITran=            4
 JobTyp=2 Pass  1:  I=   1 to  22.
 (rs|ai) integrals will be sorted in core.
 SymMOI:  orbitals are not symmetric.
 Spin components of T(2) and E(2):
     alpha-alpha T2 =       0.5205183067D-01 E2=     -0.1702451657D+00
     alpha-beta  T2 =       0.2797442634D+00 E2=     -0.9295627263D+00
     beta-beta   T2 =       0.5010679912D-01 E2=     -0.1592512809D+00
 ANorm=    0.1175543659D+01
 E2 =    -0.1259059173D+01 EUMP2 =    -0.41923615384519D+03
 (S**2,0)=  0.10963D+01           (S**2,1)=  0.99968D+00
 E(PUHF)=      -0.41800670409D+03        E(PMP2)=      -0.41926214154D+03
 Keep R2 and R3 ints in memory in canonical form, NReq=652884060.
 CIDS: In Core Option IDoMem=           1.
 Iterations=  50 Convergence= 0.100D-06
 Produce multiple copies of IABC intergrals
 Iteration Nr.   1
 **********************
 DD1Dir will call FoFMem   1 times, MxPair=      1496
 NAB=   506 NAA=   253 NBB=   231.
 E(PMP3)=      -0.41928599493D+03
 MP4(R+Q)=  0.24397154D-01
 E3=       -0.29775766D-01        EUMP3=      -0.41926592961D+03
 E4(DQ)=   -0.63599385D-02        UMP4(DQ)=   -0.41927228955D+03
 E4(SDQ)=  -0.28964373D-01        UMP4(SDQ)=  -0.41929489398D+03
 DE(Corr)=  -1.2642601     E(Corr)=     -419.24135477    
 NORM(A)=   0.11865976D+01
 Iteration Nr.   2
 **********************
 DD1Dir will call FoFMem   1 times, MxPair=      1496
 NAB=   506 NAA=   253 NBB=   231.
 DE(Corr)=  -1.3092533     E(CORR)=     -419.28634794     Delta=-4.50D-02
 NORM(A)=   0.12104195D+01
 Iteration Nr.   3
 **********************
 DD1Dir will call FoFMem   1 times, MxPair=      1496
 NAB=   506 NAA=   253 NBB=   231.
 DE(Corr)=  -1.3136087     E(CORR)=     -419.29070336     Delta=-4.36D-03
 NORM(A)=   0.12263303D+01
 Iteration Nr.   4
 **********************
 DD1Dir will call FoFMem   1 times, MxPair=      1496
 NAB=   506 NAA=   253 NBB=   231.
 DE(Corr)=  -1.3226802     E(CORR)=     -419.29977486     Delta=-9.07D-03
 NORM(A)=   0.12369626D+01
 Iteration Nr.   5
 **********************
 DD1Dir will call FoFMem   1 times, MxPair=      1496
 NAB=   506 NAA=   253 NBB=   231.
 DE(Corr)=  -1.3255067     E(CORR)=     -419.30260140     Delta=-2.83D-03
 NORM(A)=   0.12414308D+01
 Iteration Nr.   6
 **********************
 DD1Dir will call FoFMem   1 times, MxPair=      1496
 NAB=   506 NAA=   253 NBB=   231.
 DE(Corr)=  -1.3262753     E(CORR)=     -419.30337000     Delta=-7.69D-04
 NORM(A)=   0.12420530D+01
 Iteration Nr.   7
 **********************
 DD1Dir will call FoFMem   1 times, MxPair=      1496
 NAB=   506 NAA=   253 NBB=   231.
 DE(Corr)=  -1.3263733     E(CORR)=     -419.30346794     Delta=-9.79D-05
 NORM(A)=   0.12422070D+01
 Iteration Nr.   8
 **********************
 DD1Dir will call FoFMem   1 times, MxPair=      1496
 NAB=   506 NAA=   253 NBB=   231.
 DE(Corr)=  -1.3263477     E(CORR)=     -419.30344236     Delta= 2.56D-05
 NORM(A)=   0.12422401D+01
 Iteration Nr.   9
 **********************
 DD1Dir will call FoFMem   1 times, MxPair=      1496
 NAB=   506 NAA=   253 NBB=   231.
 DE(Corr)=  -1.3263709     E(CORR)=     -419.30346558     Delta=-2.32D-05
 NORM(A)=   0.12422334D+01
 Iteration Nr.  10
 **********************
 DD1Dir will call FoFMem   1 times, MxPair=      1496
 NAB=   506 NAA=   253 NBB=   231.
 DE(Corr)=  -1.3263526     E(CORR)=     -419.30344730     Delta= 1.83D-05
 NORM(A)=   0.12422492D+01
 Iteration Nr.  11
 **********************
 DD1Dir will call FoFMem   1 times, MxPair=      1496
 NAB=   506 NAA=   253 NBB=   231.
 DE(Corr)=  -1.3263759     E(CORR)=     -419.30347061     Delta=-2.33D-05
 NORM(A)=   0.12423051D+01
 Iteration Nr.  12
 **********************
 DD1Dir will call FoFMem   1 times, MxPair=      1496
 NAB=   506 NAA=   253 NBB=   231.
 DE(Corr)=  -1.3263794     E(CORR)=     -419.30347408     Delta=-3.46D-06
 NORM(A)=   0.12423788D+01
 Iteration Nr.  13
 **********************
 DD1Dir will call FoFMem   1 times, MxPair=      1496
 NAB=   506 NAA=   253 NBB=   231.
 DE(Corr)=  -1.3263956     E(CORR)=     -419.30349026     Delta=-1.62D-05
 NORM(A)=   0.12424395D+01
 Iteration Nr.  14
 **********************
 DD1Dir will call FoFMem   1 times, MxPair=      1496
 NAB=   506 NAA=   253 NBB=   231.
 DE(Corr)=  -1.3264077     E(CORR)=     -419.30350235     Delta=-1.21D-05
 NORM(A)=   0.12424797D+01
 Iteration Nr.  15
 **********************
 DD1Dir will call FoFMem   1 times, MxPair=      1496
 NAB=   506 NAA=   253 NBB=   231.
 DE(Corr)=  -1.3264137     E(CORR)=     -419.30350840     Delta=-6.05D-06
 NORM(A)=   0.12425015D+01
 Iteration Nr.  16
 **********************
 DD1Dir will call FoFMem   1 times, MxPair=      1496
 NAB=   506 NAA=   253 NBB=   231.
 DE(Corr)=  -1.3264191     E(CORR)=     -419.30351375     Delta=-5.35D-06
 NORM(A)=   0.12425099D+01
 Iteration Nr.  17
 **********************
 DD1Dir will call FoFMem   1 times, MxPair=      1496
 NAB=   506 NAA=   253 NBB=   231.
 DE(Corr)=  -1.3264199     E(CORR)=     -419.30351457     Delta=-8.21D-07
 NORM(A)=   0.12425120D+01
 Iteration Nr.  18
 **********************
 DD1Dir will call FoFMem   1 times, MxPair=      1496
 NAB=   506 NAA=   253 NBB=   231.
 DE(Corr)=  -1.3264203     E(CORR)=     -419.30351502     Delta=-4.47D-07
 NORM(A)=   0.12425115D+01
 Iteration Nr.  19
 **********************
 DD1Dir will call FoFMem   1 times, MxPair=      1496
 NAB=   506 NAA=   253 NBB=   231.
 DE(Corr)=  -1.3264201     E(CORR)=     -419.30351474     Delta= 2.79D-07
 NORM(A)=   0.12425109D+01
 Iteration Nr.  20
 **********************
 DD1Dir will call FoFMem   1 times, MxPair=      1496
 NAB=   506 NAA=   253 NBB=   231.
 DE(Corr)=  -1.3264197     E(CORR)=     -419.30351440     Delta= 3.39D-07
 NORM(A)=   0.12425102D+01
 Iteration Nr.  21
 **********************
 DD1Dir will call FoFMem   1 times, MxPair=      1496
 NAB=   506 NAA=   253 NBB=   231.
 DE(Corr)=  -1.3264195     E(CORR)=     -419.30351417     Delta= 2.27D-07
 NORM(A)=   0.12425106D+01
 Iteration Nr.  22
 **********************
 DD1Dir will call FoFMem   1 times, MxPair=      1496
 NAB=   506 NAA=   253 NBB=   231.
 DE(Corr)=  -1.3264195     E(CORR)=     -419.30351414     Delta= 3.49D-08
 NORM(A)=   0.12425116D+01
 Wavefunction amplitudes converged. E(Corr)=     -419.30351414    
 Largest amplitude= 6.10D-02
 Time for triples=    37793.65 seconds.
 T4(CCSD)= -0.59481399D-01
 T5(CCSD)=  0.43235459D-02
 CCSD(T)= -0.41935867199D+03

 S**2, projected HF & approx projected MPn energies after annihilation of
 unwanted spin states (see manual for definitions):

 spins       (S**2,0) (S**2,1)    PUHF        PMP2        PMP3        PMP4
 annihilated
 s+1         0.70123  0.73108 -418.006704 -419.262142 -419.285995
 s+1,s+2     0.75099  0.74982 -418.003489 -419.259070 -419.283117
 s+1 to s+3  0.74999  0.75001 -418.003570 -419.259128 -419.283141
 s+1 to s+4  0.75000  0.75000 -418.003570 -419.259128 -419.283141
 s+1 to s+5  0.75000  0.75000 -418.003570
 s+1 to s+6  0.75000  0.75000 -418.003570

 Discarding MO integrals.

 **********************************************************************

            Population analysis using the SCF density.

 **********************************************************************

 Orbital symmetries:
 Alpha Orbitals:
       Occupied  (A) (A) (A) (A) (A) (A) (A) (A) (A) (A) (A) (A)
                 (A) (A) (A) (A) (A) (A) (A) (A) (A) (A) (A) (A)
                 (A) (A) (A) (A) (A) (A) (A)
       Virtual   (A) (A) (A) (A) (A) (A) (A) (A) (A) (A) (A) (A)
                 (A) (A) (A) (A) (A) (A) (A) (A) (A) (A) (A) (A)
                 (A) (A) (A) (A) (A) (A) (A) (A) (A) (A) (A) (A)
                 (A) (A) (A) (A) (A) (A) (A) (A) (A) (A) (A) (A)
                 (A) (A) (A) (A) (A) (A) (A) (A) (A) (A) (A) (A)
                 (A) (A) (A) (A) (A) (A) (A) (A) (A) (A) (A) (A)
                 (A) (A) (A) (A) (A) (A) (A) (A) (A) (A) (A) (A)
                 (A) (A) (A) (A) (A) (A) (A) (A) (A) (A) (A) (A)
                 (A) (A) (A) (A) (A) (A) (A) (A) (A) (A) (A) (A)
                 (A) (A) (A) (A) (A) (A) (A) (A) (A) (A) (A) (A)
                 (A) (A) (A) (A) (A) (A) (A) (A) (A) (A) (A) (A)
                 (A) (A) (A) (A) (A) (A) (A) (A) (A) (A) (A) (A)
                 (A) (A) (A) (A) (A) (A) (A) (A) (A) (A) (A) (A)
                 (A) (A) (A) (A) (A) (A) (A) (A) (A) (A) (A) (A)
                 (A) (A) (A) (A) (A) (A) (A) (A) (A) (A) (A) (A)
                 (A) (A) (A) (A) (A) (A) (A) (A) (A) (A) (A) (A)
                 (A) (A)
 Beta  Orbitals:
       Occupied  (A) (A) (A) (A) (A) (A) (A) (A) (A) (A) (A) (A)
                 (A) (A) (A) (A) (A) (A) (A) (A) (A) (A) (A) (A)
                 (A) (A) (A) (A) (A) (A)
       Virtual   (A) (A) (A) (A) (A) (A) (A) (A) (A) (A) (A) (A)
                 (A) (A) (A) (A) (A) (A) (A) (A) (A) (A) (A) (A)
                 (A) (A) (A) (A) (A) (A) (A) (A) (A) (A) (A) (A)
                 (A) (A) (A) (A) (A) (A) (A) (A) (A) (A) (A) (A)
                 (A) (A) (A) (A) (A) (A) (A) (A) (A) (A) (A) (A)
                 (A) (A) (A) (A) (A) (A) (A) (A) (A) (A) (A) (A)
                 (A) (A) (A) (A) (A) (A) (A) (A) (A) (A) (A) (A)
                 (A) (A) (A) (A) (A) (A) (A) (A) (A) (A) (A) (A)
                 (A) (A) (A) (A) (A) (A) (A) (A) (A) (A) (A) (A)
                 (A) (A) (A) (A) (A) (A) (A) (A) (A) (A) (A) (A)
                 (A) (A) (A) (A) (A) (A) (A) (A) (A) (A) (A) (A)
                 (A) (A) (A) (A) (A) (A) (A) (A) (A) (A) (A) (A)
                 (A) (A) (A) (A) (A) (A) (A) (A) (A) (A) (A) (A)
                 (A) (A) (A) (A) (A) (A) (A) (A) (A) (A) (A) (A)
                 (A) (A) (A) (A) (A) (A) (A) (A) (A) (A) (A) (A)
                 (A) (A) (A) (A) (A) (A) (A) (A) (A) (A) (A) (A)
                 (A) (A) (A)
 The electronic state is 2-A.
 Alpha  occ. eigenvalues --  -20.61245 -20.60808 -20.55812 -11.41290 -11.29704
 Alpha  occ. eigenvalues --  -11.28587 -11.27929 -11.22433  -1.48214  -1.37918
 Alpha  occ. eigenvalues --   -1.36539  -1.08448  -1.04538  -0.92768  -0.83870
 Alpha  occ. eigenvalues --   -0.76682  -0.73245  -0.69574  -0.68398  -0.65673
 Alpha  occ. eigenvalues --   -0.62815  -0.62328  -0.57895  -0.54924  -0.54003
 Alpha  occ. eigenvalues --   -0.52899  -0.50435  -0.47601  -0.46046  -0.43891
 Alpha  occ. eigenvalues --   -0.42052
 Alpha virt. eigenvalues --    0.03679   0.04411   0.05669   0.06284   0.07334
 Alpha virt. eigenvalues --    0.08801   0.09595   0.10651   0.11169   0.12035
 Alpha virt. eigenvalues --    0.13408   0.13647   0.14190   0.15977   0.16540
 Alpha virt. eigenvalues --    0.16888   0.17885   0.18131   0.18512   0.19041
 Alpha virt. eigenvalues --    0.19808   0.20787   0.21345   0.21651   0.23472
 Alpha virt. eigenvalues --    0.24265   0.24593   0.25949   0.27497   0.29317
 Alpha virt. eigenvalues --    0.30194   0.30745   0.32319   0.32781   0.34146
 Alpha virt. eigenvalues --    0.34813   0.37064   0.37806   0.38856   0.39839
 Alpha virt. eigenvalues --    0.40689   0.41830   0.42618   0.43461   0.44070
 Alpha virt. eigenvalues --    0.45671   0.46255   0.46981   0.48740   0.50355
 Alpha virt. eigenvalues --    0.51979   0.53587   0.57879   0.59872   0.61093
 Alpha virt. eigenvalues --    0.62125   0.65134   0.67662   0.69058   0.70782
 Alpha virt. eigenvalues --    0.71693   0.75374   0.79520   0.81194   0.82147
 Alpha virt. eigenvalues --    0.82961   0.86271   0.86850   0.87634   0.89704
 Alpha virt. eigenvalues --    0.90165   0.91366   0.93248   0.95292   0.97043
 Alpha virt. eigenvalues --    0.99846   1.03456   1.07734   1.10845   1.14626
 Alpha virt. eigenvalues --    1.18125   1.20867   1.24554   1.26794   1.30624
 Alpha virt. eigenvalues --    1.34822   1.38155   1.39413   1.40716   1.43698
 Alpha virt. eigenvalues --    1.44983   1.47674   1.50866   1.51744   1.52982
 Alpha virt. eigenvalues --    1.55860   1.56607   1.58504   1.63166   1.66712
 Alpha virt. eigenvalues --    1.69272   1.72131   1.73860   1.75220   1.78956
 Alpha virt. eigenvalues --    1.81003   1.81738   1.84012   1.86015   1.87897
 Alpha virt. eigenvalues --    1.89616   1.91500   1.94827   1.95401   1.98739
 Alpha virt. eigenvalues --    1.99464   2.05617   2.09049   2.12428   2.13831
 Alpha virt. eigenvalues --    2.17105   2.20081   2.24756   2.30991   2.34756
 Alpha virt. eigenvalues --    2.37096   2.38583   2.42251   2.48438   2.57646
 Alpha virt. eigenvalues --    2.60104   2.63824   2.71107   2.80574   2.82879
 Alpha virt. eigenvalues --    2.84709   2.85916   2.88925   2.91913   2.94053
 Alpha virt. eigenvalues --    2.96124   2.96818   3.01084   3.03542   3.05468
 Alpha virt. eigenvalues --    3.10396   3.12635   3.14378   3.18576   3.23333
 Alpha virt. eigenvalues --    3.27820   3.28375   3.31414   3.34990   3.38482
 Alpha virt. eigenvalues --    3.43578   3.47933   3.49358   3.51222   3.54534
 Alpha virt. eigenvalues --    3.60772   3.64407   3.68814   3.71488   3.80909
 Alpha virt. eigenvalues --    3.81525   3.87740   4.00475   4.12273   4.22045
 Alpha virt. eigenvalues --    4.22362   4.25439   4.27685   4.39829   4.47546
 Alpha virt. eigenvalues --    4.57161   4.67139   5.56985   5.60587   5.63319
 Alpha virt. eigenvalues --    5.66665   5.76837   5.93484   6.05140   6.21068
 Alpha virt. eigenvalues --    6.43188  24.66620  24.99534  25.02015  25.14540
 Alpha virt. eigenvalues --   25.94954  51.56166  51.60917  51.71400
  Beta  occ. eigenvalues --  -20.61250 -20.57751 -20.56180 -11.40918 -11.30820
  Beta  occ. eigenvalues --  -11.29705 -11.25132 -11.22435  -1.48356  -1.38508
  Beta  occ. eigenvalues --   -1.26624  -1.07586  -1.03407  -0.91420  -0.82762
  Beta  occ. eigenvalues --   -0.76361  -0.71804  -0.69809  -0.67625  -0.64002
  Beta  occ. eigenvalues --   -0.62605  -0.58160  -0.55590  -0.54110  -0.51108
  Beta  occ. eigenvalues --   -0.50427  -0.48255  -0.47069  -0.45533  -0.42766
  Beta virt. eigenvalues --    0.03742   0.04295   0.04548   0.06262   0.06783
  Beta virt. eigenvalues --    0.07733   0.09146   0.09584   0.10462   0.12015
  Beta virt. eigenvalues --    0.12498   0.13626   0.13933   0.15787   0.16233
  Beta virt. eigenvalues --    0.17018   0.17207   0.18014   0.18506   0.18812
  Beta virt. eigenvalues --    0.19480   0.20232   0.20914   0.21409   0.22221
  Beta virt. eigenvalues --    0.24007   0.24386   0.24818   0.25802   0.27618
  Beta virt. eigenvalues --    0.29754   0.30205   0.30564   0.32233   0.33362
  Beta virt. eigenvalues --    0.35223   0.36297   0.37126   0.37994   0.39122
  Beta virt. eigenvalues --    0.40024   0.40701   0.41799   0.42743   0.43560
  Beta virt. eigenvalues --    0.44474   0.45642   0.46189   0.47530   0.48830
  Beta virt. eigenvalues --    0.50330   0.52377   0.53859   0.57901   0.60011
  Beta virt. eigenvalues --    0.61354   0.62702   0.65338   0.68334   0.69996
  Beta virt. eigenvalues --    0.71671   0.73696   0.78215   0.79703   0.81419
  Beta virt. eigenvalues --    0.81779   0.85605   0.85817   0.87387   0.87917
  Beta virt. eigenvalues --    0.88908   0.90026   0.91253   0.93635   0.94863
  Beta virt. eigenvalues --    0.96787   0.99854   1.03430   1.07975   1.11402
  Beta virt. eigenvalues --    1.14606   1.18119   1.20802   1.24597   1.27204
  Beta virt. eigenvalues --    1.32604   1.36503   1.38526   1.40019   1.42104
  Beta virt. eigenvalues --    1.44708   1.45410   1.50097   1.51734   1.54462
  Beta virt. eigenvalues --    1.55365   1.56269   1.58030   1.59051   1.64310
  Beta virt. eigenvalues --    1.68647   1.70447   1.72265   1.74241   1.77202
  Beta virt. eigenvalues --    1.79538   1.81225   1.81914   1.83946   1.85178
  Beta virt. eigenvalues --    1.87760   1.89541   1.91539   1.94813   1.95224
  Beta virt. eigenvalues --    1.98786   1.99499   2.05633   2.09134   2.12508
  Beta virt. eigenvalues --    2.14151   2.17067   2.20994   2.24792   2.31138
  Beta virt. eigenvalues --    2.35373   2.37951   2.38814   2.42273   2.48519
  Beta virt. eigenvalues --    2.57294   2.60126   2.63847   2.71192   2.81094
  Beta virt. eigenvalues --    2.82886   2.84734   2.86037   2.89136   2.92075
  Beta virt. eigenvalues --    2.94457   2.96241   2.96918   3.01486   3.03909
  Beta virt. eigenvalues --    3.05791   3.11307   3.14341   3.15958   3.22792
  Beta virt. eigenvalues --    3.23829   3.27703   3.28237   3.31204   3.34586
  Beta virt. eigenvalues --    3.43690   3.44382   3.48940   3.51274   3.54427
  Beta virt. eigenvalues --    3.57308   3.60827   3.64286   3.69329   3.71244
  Beta virt. eigenvalues --    3.80828   3.83242   3.89073   4.00342   4.12033
  Beta virt. eigenvalues --    4.22062   4.22392   4.26678   4.28870   4.39782
  Beta virt. eigenvalues --    4.47316   4.57075   4.67133   5.59227   5.62490
  Beta virt. eigenvalues --    5.66911   5.69021   5.76689   5.93459   6.07049
  Beta virt. eigenvalues --    6.20998   6.43107  24.66480  24.99759  25.02066
  Beta virt. eigenvalues --   25.14539  25.95397  51.57614  51.61183  51.71205
          Condensed to atoms (all electrons):
               1          2          3          4          5          6
     1  C   13.697852   0.576084  -3.882178  -4.005348  -0.043429  -0.070509
     2  H    0.576084   0.407120  -0.159126  -0.048220  -0.001589  -0.001765
     3  C   -3.882178  -0.159126  11.171601  -1.483138   0.129422  -0.226331
     4  C   -4.005348  -0.048220  -1.483138  11.655373   0.361983   0.199705
     5  O   -0.043429  -0.001589   0.129422   0.361983   7.996317  -0.130541
     6  O   -0.070509  -0.001765  -0.226331   0.199705  -0.130541   8.304700
     7  C   -0.041968  -0.000358  -0.211547   0.119691   0.036480   0.163087
     8  C    0.057938  -0.000185   0.144108  -0.262335  -0.060221  -0.079365
     9  H    0.003685   0.000038   0.004539  -0.011310   0.006162  -0.081738
    10  H   -0.023256  -0.000174  -0.066731   0.085467  -0.023751  -0.019994
    11  H    0.001937   0.000016   0.010958  -0.009187  -0.002069   0.016150
    12  H   -0.009978   0.000011  -0.031835   0.041311   0.001384  -0.003539
    13  H    0.008011  -0.000163   0.019064  -0.048230   0.001641  -0.013796
    14  O   -0.137868  -0.003791   0.313008  -0.327227   0.000214   0.028891
    15  H   -0.092640  -0.003632   0.096696   0.019862   0.000134  -0.003177
               7          8          9         10         11         12
     1  C   -0.041968   0.057938   0.003685  -0.023256   0.001937  -0.009978
     2  H   -0.000358  -0.000185   0.000038  -0.000174   0.000016   0.000011
     3  C   -0.211547   0.144108   0.004539  -0.066731   0.010958  -0.031835
     4  C    0.119691  -0.262335  -0.011310   0.085467  -0.009187   0.041311
     5  O    0.036480  -0.060221   0.006162  -0.023751  -0.002069   0.001384
     6  O    0.163087  -0.079365  -0.081738  -0.019994   0.016150  -0.003539
     7  C    5.403533  -0.062016   0.444874   0.445846  -0.056390  -0.023283
     8  C   -0.062016   5.500296  -0.056069  -0.047709   0.412145   0.406268
     9  H    0.444874  -0.056069   0.562586  -0.037579   0.001313  -0.007182
    10  H    0.445846  -0.047709  -0.037579   0.520430  -0.004909   0.002465
    11  H   -0.056390   0.412145   0.001313  -0.004909   0.562216  -0.035103
    12  H   -0.023283   0.406268  -0.007182   0.002465  -0.035103   0.569007
    13  H   -0.032405   0.411058   0.008691  -0.004485  -0.035827  -0.045859
    14  O   -0.015472   0.026613   0.000457  -0.002313   0.001757  -0.003869
    15  H    0.000910   0.001069   0.000361  -0.000475   0.000054  -0.000888
              13         14         15
     1  C    0.008011  -0.137868  -0.092640
     2  H   -0.000163  -0.003791  -0.003632
     3  C    0.019064   0.313008   0.096696
     4  C   -0.048230  -0.327227   0.019862
     5  O    0.001641   0.000214   0.000134
     6  O   -0.013796   0.028891  -0.003177
     7  C   -0.032405  -0.015472   0.000910
     8  C    0.411058   0.026613   0.001069
     9  H    0.008691   0.000457   0.000361
    10  H   -0.004485  -0.002313  -0.000475
    11  H   -0.035827   0.001757   0.000054
    12  H   -0.045859  -0.003869  -0.000888
    13  H    0.546899  -0.000919   0.000824
    14  O   -0.000919   8.060336   0.264682
    15  H    0.000824   0.264682   0.477591
          Atomic-Atomic Spin Densities.
               1          2          3          4          5          6
     1  C    1.295005   0.001124   0.041019   0.480627  -0.001112  -0.022146
     2  H    0.001124  -0.086717  -0.007516  -0.003486   0.000135  -0.001114
     3  C    0.041019  -0.007516  -1.350414  -0.026302  -0.008771   0.064552
     4  C    0.480627  -0.003486  -0.026302  -0.358408   0.030552  -0.059661
     5  O   -0.001112   0.000135  -0.008771   0.030552  -0.099832   0.001590
     6  O   -0.022146  -0.001114   0.064552  -0.059661   0.001590   0.011097
     7  C    0.008221  -0.000282   0.002468  -0.016679   0.002538  -0.003625
     8  C    0.003465   0.000035   0.005981  -0.007105  -0.000020   0.001938
     9  H    0.001416  -0.000026  -0.000638  -0.001776   0.000139   0.000386
    10  H    0.000636  -0.000003   0.003202  -0.003052   0.000123   0.000621
    11  H    0.000201  -0.000001   0.000721  -0.000909   0.000032   0.000132
    12  H   -0.000597   0.000001   0.000379   0.000041   0.000092  -0.000198
    13  H   -0.002855  -0.000054  -0.005286   0.004468  -0.000280   0.000420
    14  O   -0.339666  -0.004514   0.114870   0.158128  -0.000626   0.009980
    15  H    0.031069   0.000244  -0.007126  -0.020998   0.000026  -0.000984
               7          8          9         10         11         12
     1  C    0.008221   0.003465   0.001416   0.000636   0.000201  -0.000597
     2  H   -0.000282   0.000035  -0.000026  -0.000003  -0.000001   0.000001
     3  C    0.002468   0.005981  -0.000638   0.003202   0.000721   0.000379
     4  C   -0.016679  -0.007105  -0.001776  -0.003052  -0.000909   0.000041
     5  O    0.002538  -0.000020   0.000139   0.000123   0.000032   0.000092
     6  O   -0.003625   0.001938   0.000386   0.000621   0.000132  -0.000198
     7  C    0.010139  -0.006489  -0.000130  -0.001602  -0.001528   0.000559
     8  C   -0.006489   0.005270   0.000194   0.000018   0.001897  -0.000933
     9  H   -0.000130   0.000194   0.000222  -0.000138  -0.000049  -0.000091
    10  H   -0.001602   0.000018  -0.000138   0.000018  -0.000006   0.000036
    11  H   -0.001528   0.001897  -0.000049  -0.000006  -0.000204  -0.000108
    12  H    0.000559  -0.000933  -0.000091   0.000036  -0.000108   0.000175
    13  H    0.002955  -0.001905   0.000270  -0.000017  -0.000368   0.000160
    14  O    0.006748  -0.001740   0.000375   0.000125   0.000037   0.000546
    15  H   -0.001215   0.000724  -0.000178   0.000029   0.000022  -0.000153
              13         14         15
     1  C   -0.002855  -0.339666   0.031069
     2  H   -0.000054  -0.004514   0.000244
     3  C   -0.005286   0.114870  -0.007126
     4  C    0.004468   0.158128  -0.020998
     5  O   -0.000280  -0.000626   0.000026
     6  O    0.000420   0.009980  -0.000984
     7  C    0.002955   0.006748  -0.001215
     8  C   -0.001905  -0.001740   0.000724
     9  H    0.000270   0.000375  -0.000178
    10  H   -0.000017   0.000125   0.000029
    11  H   -0.000368   0.000037   0.000022
    12  H    0.000160   0.000546  -0.000153
    13  H    0.001288   0.000552  -0.000366
    14  O    0.000552   0.739225   0.011478
    15  H   -0.000366   0.011478  -0.034598
 Mulliken charges and spin densities:
               1          2
     1  C   -0.038332   1.496404
     2  H    0.235735  -0.102175
     3  C    0.171491  -1.172862
     4  C   -0.288398   0.175439
     5  O   -0.272137  -0.075413
     6  O   -0.081778   0.002987
     7  C   -0.170981   0.002076
     8  C   -0.391595   0.001330
     9  H    0.161172  -0.000024
    10  H    0.177167  -0.000013
    11  H    0.136939  -0.000131
    12  H    0.141091  -0.000093
    13  H    0.185496  -0.001016
    14  O   -0.204498   0.695518
    15  H    0.238629  -0.022027
 Sum of Mulliken charges =  -0.00000   1.00000
 Mulliken charges and spin densities with hydrogens summed into heavy atoms:
               1          2
     1  C    0.197402   1.394229
     3  C    0.171491  -1.172862
     4  C   -0.288398   0.175439
     5  O   -0.272137  -0.075413
     6  O   -0.081778   0.002987
     7  C    0.167358   0.002040
     8  C    0.071931   0.000090
    14  O    0.034131   0.673491
 Electronic spatial extent (au):  <R**2>=           1059.5485
 Charge=             -0.0000 electrons
 Dipole moment (field-independent basis, Debye):
    X=             -0.0621    Y=              0.7934    Z=             -3.2368  Tot=              3.3332
 Quadrupole moment (field-independent basis, Debye-Ang):
   XX=            -33.4022   YY=            -48.2041   ZZ=            -51.5829
   XY=              0.9625   XZ=              3.2347   YZ=              0.0164
 Traceless Quadrupole moment (field-independent basis, Debye-Ang):
   XX=             10.9942   YY=             -3.8077   ZZ=             -7.1865
   XY=              0.9625   XZ=              3.2347   YZ=              0.0164
 Octapole moment (field-independent basis, Debye-Ang**2):
  XXX=            -25.5260  YYY=             11.6599  ZZZ=             -1.0378  XYY=             -0.0168
  XXY=             -6.1075  XXZ=            -14.9270  XZZ=              3.4383  YZZ=              5.0532
  YYZ=            -10.2564  XYZ=              5.0041
 Hexadecapole moment (field-independent basis, Debye-Ang**3):
 XXXX=           -772.7169 YYYY=           -239.9138 ZZZZ=           -164.8649 XXXY=              9.1264
 XXXZ=             33.1474 YYYX=            -23.8850 YYYZ=            -10.1005 ZZZX=             -8.0011
 ZZZY=              0.5432 XXYY=           -207.2762 XXZZ=           -188.7946 YYZZ=            -75.0724
 XXYZ=             -5.0111 YYXZ=              7.9549 ZZXY=             -3.8458
 N-N= 3.639731738966D+02 E-N=-1.710977390792D+03  KE= 4.176432727461D+02
 1\1\GINC-AJ\SP\UCCSD(T)-FC\6-311++G(d,p)\C5H7O3(2)\AAYUSH\03-Aug-2025\
 0\\# ccsd(t)/6-311++g(d,p) sp\\Title Card Required\\0,2\C,0,-2.796418,
 -0.441101,-0.415331\H,0,-3.838907,-0.483479,-0.63419\C,0,-1.624298,-0.
 17329,-0.099615\C,0,-0.220132,-0.598735,0.142445\O,0,0.137707,-1.19842
 9,1.112949\O,0,0.561457,-0.162115,-0.840678\C,0,1.981242,-0.316381,-0.
 632281\C,0,2.501823,0.752954,0.307671\H,0,2.407268,-0.223213,-1.629516
 \H,0,2.171808,-1.318672,-0.247276\H,0,3.584374,0.65474,0.409403\H,0,2.
 276341,1.74608,-0.08293\H,0,2.050681,0.650226,1.294849\O,0,-1.468304,1
 .564986,0.417239\H,0,-1.551747,1.998099,-0.443755\\Version=ES64L-G16Re
 vA.03\State=2-A\HF=-417.9770947\MP2=-419.2361538\MP3=-419.2659296\MP4D
 =-419.2966867\MP4DQ=-419.2722895\PUHF=-418.0067041\PMP2-0=-419.2621415
 \PMP3-0=-419.2859949\MP4SDQ=-419.294894\CCSD=-419.3035141\CCSD(T)=-419
 .358672\S2=1.096339\S2-1=0.999682\S2A=0.832611\RMSD=5.404e-09\PG=C01 [
 X(C5H7O3)]\\@


 A SLIP OF THE FOOT YOU MAY SOON RECOVER, BUT A SLIP OF THE TONGUE
 YOU MAY NEVER GET OVER. -- BEN FRANKLIN
 Job cpu time:       0 days 18 hours 38 minutes  0.6 seconds.
 Elapsed time:       0 days  0 hours 46 minutes 50.4 seconds.
 File lengths (MBytes):  RWF=  44733 Int=      0 D2E=      0 Chk=      7 Scr=      1
 Normal termination of Gaussian 16 at Sun Aug  3 20:09:59 2025.
