 Entering Gaussian System, Link 0=g16
 Initial command:
 /opt/g16/l1.exe "/home/aayush/scratches/g16/Gau-62607.inp" -scrdir="/home/aayush/scratches/g16/"
 Entering Link 1 = /opt/g16/l1.exe PID=     62610.
  
 Copyright (c) 1988,1990,1992,1993,1995,1998,2003,2009,2016,
            Gaussian, Inc.  All Rights Reserved.
  
 This is part of the Gaussian(R) 16 program.  It is based on
 the Gaussian(R) 09 system (copyright 2009, Gaussian, Inc.),
 the Gaussian(R) 03 system (copyright 2003, Gaussian, Inc.),
 the Gaussian(R) 98 system (copyright 1998, Gaussian, Inc.),
 the Gaussian(R) 94 system (copyright 1995, Gaussian, Inc.),
 the Gaussian 92(TM) system (copyright 1992, Gaussian, Inc.),
 the Gaussian 90(TM) system (copyright 1990, Gaussian, Inc.),
 the Gaussian 88(TM) system (copyright 1988, Gaussian, Inc.),
 the Gaussian 86(TM) system (copyright 1986, Carnegie Mellon
 University), and the Gaussian 82(TM) system (copyright 1983,
 Carnegie Mellon University). Gaussian is a federally registered
 trademark of Gaussian, Inc.
  
 This software contains proprietary and confidential information,
 including trade secrets, belonging to Gaussian, Inc.
  
 This software is provided under written license and may be
 used, copied, transmitted, or stored only in accord with that
 written license.
  
 The following legend is applicable only to US Government
 contracts under FAR:
  
                    RESTRICTED RIGHTS LEGEND
  
 Use, reproduction and disclosure by the US Government is
 subject to restrictions as set forth in subparagraphs (a)
 and (c) of the Commercial Computer Software - Restricted
 Rights clause in FAR 52.227-19.
  
 Gaussian, Inc.
 340 Quinnipiac St., Bldg. 40, Wallingford CT 06492
  
  
 ---------------------------------------------------------------
 Warning -- This program may not be used in any manner that
 competes with the business of Gaussian, Inc. or will provide
 assistance to any competitor of Gaussian, Inc.  The licensee
 of this program is prohibited from giving any competitor of
 Gaussian, Inc. access to this program.  By using this program,
 the user acknowledges that Gaussian, Inc. is engaged in the
 business of creating and licensing software in the field of
 computational chemistry and represents and warrants to the
 licensee that it is not a competitor of Gaussian, Inc. and that
 it will not use this program in any manner prohibited above.
 ---------------------------------------------------------------
  

 Cite this work as:
 Gaussian 16, Revision A.03,
 M. J. Frisch, G. W. Trucks, H. B. Schlegel, G. E. Scuseria, 
 M. A. Robb, J. R. Cheeseman, G. Scalmani, V. Barone, 
 G. A. Petersson, H. Nakatsuji, X. Li, M. Caricato, A. V. Marenich, 
 J. Bloino, B. G. Janesko, R. Gomperts, B. Mennucci, H. P. Hratchian, 
 J. V. Ortiz, A. F. Izmaylov, J. L. Sonnenberg, D. Williams-Young, 
 F. Ding, F. Lipparini, F. Egidi, J. Goings, B. Peng, A. Petrone, 
 T. Henderson, D. Ranasinghe, V. G. Zakrzewski, J. Gao, N. Rega, 
 G. Zheng, W. Liang, M. Hada, M. Ehara, K. Toyota, R. Fukuda, 
 J. Hasegawa, M. Ishida, T. Nakajima, Y. Honda, O. Kitao, H. Nakai, 
 T. Vreven, K. Throssell, J. A. Montgomery, Jr., J. E. Peralta, 
 F. Ogliaro, M. J. Bearpark, J. J. Heyd, E. N. Brothers, K. N. Kudin, 
 V. N. Staroverov, T. A. Keith, R. Kobayashi, J. Normand, 
 K. Raghavachari, A. P. Rendell, J. C. Burant, S. S. Iyengar, 
 J. Tomasi, M. Cossi, J. M. Millam, M. Klene, C. Adamo, R. Cammi, 
 J. W. Ochterski, R. L. Martin, K. Morokuma, O. Farkas, 
 J. B. Foresman, and D. J. Fox, Gaussian, Inc., Wallingford CT, 2016.
 
 ******************************************
 Gaussian 16:  ES64L-G16RevA.03 25-Dec-2016
                23-Jun-2025 
 ******************************************
 %nprocshared=24
 Will use up to   24 processors via shared memory.
 %mem=12GB
 %chk=ethyl_propiolate_ts1.chk
 --------------------------
 # freq 6-311++g(d,p) m062x
 --------------------------
 1/10=4,30=1,38=1/1,3;
 2/12=2,17=6,18=5,40=1/2;
 3/5=4,6=6,7=1111,11=2,25=1,30=1,71=2,74=-55,140=1/1,2,3;
 4//1;
 5/5=2,38=5,98=1/2;
 8/6=4,10=90,11=11/1;
 11/6=1,8=1,9=11,15=111,16=1/1,2,10;
 10/6=1/2;
 6/7=2,8=2,9=2,10=2,28=1/1;
 7/8=1,10=1,25=1/1,2,3,16;
 1/10=4,30=1/3;
 99//99;
 -------------------
 Title Card Required
 -------------------
 Symbolic Z-matrix:
 Charge =  0 Multiplicity = 2
 C                    -2.81326  -0.44217  -0.38808 
 H                    -3.85982  -0.44223  -0.58573 
 C                    -1.63535  -0.41841  -0.14774 
 C                    -0.22232  -0.6178    0.16609 
 O                     0.15242  -1.13547   1.17846 
 O                     0.55715  -0.20095  -0.83102 
 C                     1.9769   -0.34605  -0.61989 
 C                     2.50507   0.76535   0.26452 
 H                     2.39992  -0.30336  -1.62203 
 H                     2.1666   -1.32858  -0.18624 
 H                     3.58792   0.67021   0.36623 
 H                     2.28117   1.73907  -0.1735 
 H                     2.05767   0.71101   1.25708 
 O                    -1.45346   1.74738   0.38252 
 H                    -1.54857   2.02071  -0.54486 
 

 GradGradGradGradGradGradGradGradGradGradGradGradGradGradGradGradGradGrad
 Berny optimization.
 Initialization pass.
 Trust Radius=3.00D-01 FncErr=1.00D-07 GrdErr=1.00D-07 EigMax=2.50D+02 EigMin=1.00D-04
 Number of steps in this run=      2 maximum allowed number of steps=      2.
 GradGradGradGradGradGradGradGradGradGradGradGradGradGradGradGradGradGrad

                          Input orientation:                          
 ---------------------------------------------------------------------
 Center     Atomic      Atomic             Coordinates (Angstroms)
 Number     Number       Type             X           Y           Z
 ---------------------------------------------------------------------
      1          6           0       -2.813256   -0.442171   -0.388080
      2          1           0       -3.859817   -0.442228   -0.585730
      3          6           0       -1.635349   -0.418414   -0.147739
      4          6           0       -0.222317   -0.617800    0.166093
      5          8           0        0.152417   -1.135473    1.178456
      6          8           0        0.557146   -0.200949   -0.831024
      7          6           0        1.976896   -0.346047   -0.619889
      8          6           0        2.505072    0.765349    0.264517
      9          1           0        2.399915   -0.303360   -1.622027
     10          1           0        2.166603   -1.328580   -0.186243
     11          1           0        3.587916    0.670208    0.366225
     12          1           0        2.281170    1.739071   -0.173501
     13          1           0        2.057670    0.711011    1.257078
     14          8           0       -1.453458    1.747380    0.382523
     15          1           0       -1.548568    2.020710   -0.544860
 ---------------------------------------------------------------------
                    Distance matrix (angstroms):
                    1          2          3          4          5
     1  C    0.000000
     2  H    1.065061   0.000000
     3  C    1.202411   2.267303   0.000000
     4  C    2.655357   3.718531   1.461131   0.000000
     5  O    3.424897   4.437450   2.338605   1.197201   0.000000
     6  O    3.407931   4.430344   2.306773   1.332505   2.252809
     7  C    4.796721   5.837605   3.643690   2.351203   2.680664
     8  C    5.492595   6.533986   4.326007   3.059647   3.159651
     9  H    5.359015   6.346451   4.297688   3.189412   3.685969
    10  H    5.062159   6.104338   3.909568   2.517198   2.440623
    11  H    6.540747   7.590287   5.360201   4.027020   3.965206
    12  H    5.545903   6.529910   4.471524   3.455085   3.823922
    13  H    5.268994   6.304170   4.109440   2.855578   2.654369
    14  O    2.690170   3.394475   2.237169   2.675187   3.394582
    15  H    2.773049   3.377811   2.472764   3.037455   3.978022
                    6          7          8          9         10
     6  O    0.000000
     7  C    1.442679   0.000000
     8  C    2.434822   1.515370   0.000000
     9  H    2.007977   1.088599   2.170771   0.000000
    10  H    2.068247   1.090600   2.168475   1.779603   0.000000
    11  H    3.373112   2.144896   1.091763   2.512434   2.514061
    12  H    2.677363   2.153964   1.090929   2.506761   3.069816
    13  H    2.728262   2.155667   1.090091   3.071698   2.500994
    14  O    3.051428   4.141811   4.080229   4.803357   4.784336
    15  H    3.074360   4.246889   4.320072   4.706603   5.014862
                   11         12         13         14         15
    11  H    0.000000
    12  H    1.772387   0.000000
    13  H    1.771140   1.775786   0.000000
    14  O    5.155193   3.775802   3.763898   0.000000
    15  H    5.388636   3.857994   4.238779   0.971491   0.000000
 Stoichiometry    C5H7O3(2)
 Framework group  C1[X(C5H7O3)]
 Deg. of freedom    39
 Full point group                 C1      NOp   1
 Largest Abelian subgroup         C1      NOp   1
 Largest concise Abelian subgroup C1      NOp   1
                         Standard orientation:                         
 ---------------------------------------------------------------------
 Center     Atomic      Atomic             Coordinates (Angstroms)
 Number     Number       Type             X           Y           Z
 ---------------------------------------------------------------------
      1          6           0       -2.813256   -0.442171   -0.388080
      2          1           0       -3.859817   -0.442228   -0.585730
      3          6           0       -1.635349   -0.418414   -0.147739
      4          6           0       -0.222317   -0.617800    0.166093
      5          8           0        0.152417   -1.135473    1.178456
      6          8           0        0.557146   -0.200949   -0.831024
      7          6           0        1.976896   -0.346047   -0.619889
      8          6           0        2.505072    0.765349    0.264517
      9          1           0        2.399915   -0.303360   -1.622027
     10          1           0        2.166603   -1.328580   -0.186243
     11          1           0        3.587916    0.670208    0.366225
     12          1           0        2.281170    1.739071   -0.173501
     13          1           0        2.057670    0.711011    1.257078
     14          8           0       -1.453458    1.747380    0.382523
     15          1           0       -1.548568    2.020710   -0.544860
 ---------------------------------------------------------------------
 Rotational constants (GHZ):           3.4572035           1.3040099           1.1571350
 Standard basis: 6-311++G(d,p) (5D, 7F)
 There are   233 symmetry adapted cartesian basis functions of A   symmetry.
 There are   225 symmetry adapted basis functions of A   symmetry.
   225 basis functions,   351 primitive gaussians,   233 cartesian basis functions
    31 alpha electrons       30 beta electrons
       nuclear repulsion energy       359.5832028914 Hartrees.
 NAtoms=   15 NActive=   15 NUniq=   15 SFac= 1.00D+00 NAtFMM=   60 NAOKFM=F Big=F
 Integral buffers will be    131072 words long.
 Raffenetti 2 integral format.
 Two-electron integral symmetry is turned on.
 One-electron integrals computed using PRISM.
 NBasis=   225 RedAO= T EigKep=  8.18D-06  NBF=   225
 NBsUse=   224 1.00D-06 EigRej=  9.50D-07 NBFU=   224
 ExpMin= 3.60D-02 ExpMax= 8.59D+03 ExpMxC= 1.30D+03 IAcc=3 IRadAn=         5 AccDes= 0.00D+00
 Harris functional with IExCor= 1009 and IRadAn=       5 diagonalized for initial guess.
 HarFok:  IExCor= 1009 AccDes= 0.00D+00 IRadAn=         5 IDoV= 1 UseB2=F ITyADJ=14
 ICtDFT=  3500011 ScaDFX=  1.000000  1.000000  1.000000  1.000000
 FoFCou: FMM=F IPFlag=           0 FMFlag=      100000 FMFlg1=           0
         NFxFlg=           0 DoJE=T BraDBF=F KetDBF=T FulRan=T
         wScrn=  0.000000 ICntrl=       500 IOpCl=  0 I1Cent=   200000004 NGrid=           0
         NMat0=    1 NMatS0=      1 NMatT0=    0 NMatD0=    1 NMtDS0=    0 NMtDT0=    0
 Petite list used in FoFCou.
 Initial guess <Sx>= 0.0000 <Sy>= 0.0000 <Sz>= 0.5000 <S**2>= 0.7500 S= 0.5000
 Requested convergence on RMS density matrix=1.00D-08 within 128 cycles.
 Requested convergence on MAX density matrix=1.00D-06.
 Requested convergence on             energy=1.00D-06.
 No special actions if energy rises.
 Restarting incremental Fock formation.
 SCF Done:  E(UM062X) =  -420.206107312     A.U. after   23 cycles
            NFock= 23  Conv=0.18D-08     -V/T= 2.0032
 <Sx>= 0.0000 <Sy>= 0.0000 <Sz>= 0.5000 <S**2>= 0.7585 S= 0.5042
 <L.S>=  0.00000000000    
 Annihilation of the first spin contaminant:
 S**2 before annihilation     0.7585,   after     0.7500
 DoSCS=F DFT=T ScalE2(SS,OS)=  1.000000  1.000000
 Range of M.O.s used for correlation:     1   224
 NBasis=   225 NAE=    31 NBE=    30 NFC=     0 NFV=     0
 NROrb=    224 NOA=    31 NOB=    30 NVA=   193 NVB=   194

 **** Warning!!: The largest alpha MO coefficient is  0.75095241D+02


 **** Warning!!: The largest beta MO coefficient is  0.77769554D+02

 Symmetrizing basis deriv contribution to polar:
 IMax=3 JMax=2 DiffMx= 0.00D+00
 G2DrvN: will do    16 centers at a time, making    1 passes.
 Calling FoFCou, ICntrl=  3107 FMM=F I1Cent=   0 AccDes= 0.00D+00.
 End of G2Drv F.D. properties file   721 does not exist.
 End of G2Drv F.D. properties file   722 does not exist.
 End of G2Drv F.D. properties file   788 does not exist.
          IDoAtm=111111111111111
          Differentiating once with respect to electric field.
                with respect to dipole field.
          Differentiating once with respect to nuclear coordinates.
 Keep R1 and R2 ints in memory in canonical form, NReq=671901989.
          There are    48 degrees of freedom in the 1st order CPHF.  IDoFFX=6 NUNeed=     3.
     45 vectors produced by pass  0 Test12= 2.46D-14 2.08D-09 XBig12= 9.46D+01 3.45D+00.
 AX will form    45 AO Fock derivatives at one time.
     45 vectors produced by pass  1 Test12= 2.46D-14 2.08D-09 XBig12= 2.00D+01 7.75D-01.
     45 vectors produced by pass  2 Test12= 2.46D-14 2.08D-09 XBig12= 7.09D-01 1.30D-01.
     45 vectors produced by pass  3 Test12= 2.46D-14 2.08D-09 XBig12= 1.00D-02 1.23D-02.
     45 vectors produced by pass  4 Test12= 2.46D-14 2.08D-09 XBig12= 8.93D-05 1.16D-03.
     45 vectors produced by pass  5 Test12= 2.46D-14 2.08D-09 XBig12= 7.08D-07 6.97D-05.
     37 vectors produced by pass  6 Test12= 2.46D-14 2.08D-09 XBig12= 6.31D-09 8.40D-06.
     19 vectors produced by pass  7 Test12= 2.46D-14 2.08D-09 XBig12= 4.02D-11 5.40D-07.
      4 vectors produced by pass  8 Test12= 2.46D-14 2.08D-09 XBig12= 3.34D-13 5.39D-08.
      3 vectors produced by pass  9 Test12= 2.46D-14 2.08D-09 XBig12= 3.67D-15 4.91D-09.
 InvSVY:  IOpt=1 It=  1 EMax= 9.77D-15
 Solved reduced A of dimension   333 with    48 vectors.
 Isotropic polarizability for W=    0.000000       71.65 Bohr**3.
 End of Minotr F.D. properties file   721 does not exist.
 End of Minotr F.D. properties file   722 does not exist.
 End of Minotr F.D. properties file   788 does not exist.

 **********************************************************************

            Population analysis using the SCF density.

 **********************************************************************

 Orbital symmetries:
 Alpha Orbitals:
       Occupied  (A) (A) (A) (A) (A) (A) (A) (A) (A) (A) (A) (A)
                 (A) (A) (A) (A) (A) (A) (A) (A) (A) (A) (A) (A)
                 (A) (A) (A) (A) (A) (A) (A)
       Virtual   (A) (A) (A) (A) (A) (A) (A) (A) (A) (A) (A) (A)
                 (A) (A) (A) (A) (A) (A) (A) (A) (A) (A) (A) (A)
                 (A) (A) (A) (A) (A) (A) (A) (A) (A) (A) (A) (A)
                 (A) (A) (A) (A) (A) (A) (A) (A) (A) (A) (A) (A)
                 (A) (A) (A) (A) (A) (A) (A) (A) (A) (A) (A) (A)
                 (A) (A) (A) (A) (A) (A) (A) (A) (A) (A) (A) (A)
                 (A) (A) (A) (A) (A) (A) (A) (A) (A) (A) (A) (A)
                 (A) (A) (A) (A) (A) (A) (A) (A) (A) (A) (A) (A)
                 (A) (A) (A) (A) (A) (A) (A) (A) (A) (A) (A) (A)
                 (A) (A) (A) (A) (A) (A) (A) (A) (A) (A) (A) (A)
                 (A) (A) (A) (A) (A) (A) (A) (A) (A) (A) (A) (A)
                 (A) (A) (A) (A) (A) (A) (A) (A) (A) (A) (A) (A)
                 (A) (A) (A) (A) (A) (A) (A) (A) (A) (A) (A) (A)
                 (A) (A) (A) (A) (A) (A) (A) (A) (A) (A) (A) (A)
                 (A) (A) (A) (A) (A) (A) (A) (A) (A) (A) (A) (A)
                 (A) (A) (A) (A) (A) (A) (A) (A) (A) (A) (A) (A)
                 (A)
 Beta  Orbitals:
       Occupied  (A) (A) (A) (A) (A) (A) (A) (A) (A) (A) (A) (A)
                 (A) (A) (A) (A) (A) (A) (A) (A) (A) (A) (A) (A)
                 (A) (A) (A) (A) (A) (A)
       Virtual   (A) (A) (A) (A) (A) (A) (A) (A) (A) (A) (A) (A)
                 (A) (A) (A) (A) (A) (A) (A) (A) (A) (A) (A) (A)
                 (A) (A) (A) (A) (A) (A) (A) (A) (A) (A) (A) (A)
                 (A) (A) (A) (A) (A) (A) (A) (A) (A) (A) (A) (A)
                 (A) (A) (A) (A) (A) (A) (A) (A) (A) (A) (A) (A)
                 (A) (A) (A) (A) (A) (A) (A) (A) (A) (A) (A) (A)
                 (A) (A) (A) (A) (A) (A) (A) (A) (A) (A) (A) (A)
                 (A) (A) (A) (A) (A) (A) (A) (A) (A) (A) (A) (A)
                 (A) (A) (A) (A) (A) (A) (A) (A) (A) (A) (A) (A)
                 (A) (A) (A) (A) (A) (A) (A) (A) (A) (A) (A) (A)
                 (A) (A) (A) (A) (A) (A) (A) (A) (A) (A) (A) (A)
                 (A) (A) (A) (A) (A) (A) (A) (A) (A) (A) (A) (A)
                 (A) (A) (A) (A) (A) (A) (A) (A) (A) (A) (A) (A)
                 (A) (A) (A) (A) (A) (A) (A) (A) (A) (A) (A) (A)
                 (A) (A) (A) (A) (A) (A) (A) (A) (A) (A) (A) (A)
                 (A) (A) (A) (A) (A) (A) (A) (A) (A) (A) (A) (A)
                 (A) (A)
 The electronic state is 2-A.
 Alpha  occ. eigenvalues --  -19.68246 -19.67279 -19.63065 -10.70603 -10.60556
 Alpha  occ. eigenvalues --  -10.57886 -10.57601 -10.53604  -1.25626  -1.16376
 Alpha  occ. eigenvalues --   -1.13099  -0.90693  -0.87292  -0.78093  -0.70636
 Alpha  occ. eigenvalues --   -0.64507  -0.61689  -0.58524  -0.56742  -0.55027
 Alpha  occ. eigenvalues --   -0.53451  -0.50420  -0.48881  -0.46328  -0.45225
 Alpha  occ. eigenvalues --   -0.42509  -0.41977  -0.39312  -0.38487  -0.36548
 Alpha  occ. eigenvalues --   -0.35681
 Alpha virt. eigenvalues --   -0.01065  -0.00492   0.00509   0.01354   0.02187
 Alpha virt. eigenvalues --    0.02851   0.03671   0.04599   0.05485   0.06152
 Alpha virt. eigenvalues --    0.07295   0.07939   0.07974   0.10297   0.10583
 Alpha virt. eigenvalues --    0.10894   0.11899   0.12780   0.13196   0.13542
 Alpha virt. eigenvalues --    0.14036   0.14864   0.15154   0.15792   0.16667
 Alpha virt. eigenvalues --    0.17165   0.18032   0.18466   0.19633   0.20512
 Alpha virt. eigenvalues --    0.20940   0.22235   0.23583   0.23986   0.24815
 Alpha virt. eigenvalues --    0.26746   0.28424   0.28925   0.29623   0.30215
 Alpha virt. eigenvalues --    0.31138   0.32365   0.32587   0.33451   0.34607
 Alpha virt. eigenvalues --    0.35165   0.36575   0.37280   0.40337   0.41374
 Alpha virt. eigenvalues --    0.42472   0.44960   0.46861   0.49370   0.50345
 Alpha virt. eigenvalues --    0.52211   0.54784   0.57083   0.58029   0.60545
 Alpha virt. eigenvalues --    0.61607   0.63490   0.65684   0.67171   0.69662
 Alpha virt. eigenvalues --    0.70407   0.70870   0.72103   0.73397   0.74529
 Alpha virt. eigenvalues --    0.75487   0.76243   0.77849   0.80211   0.85000
 Alpha virt. eigenvalues --    0.88572   0.90254   0.95765   1.00030   1.01713
 Alpha virt. eigenvalues --    1.03304   1.06385   1.09197   1.09652   1.14249
 Alpha virt. eigenvalues --    1.16673   1.18843   1.20030   1.23042   1.24443
 Alpha virt. eigenvalues --    1.24870   1.29449   1.32456   1.34251   1.35481
 Alpha virt. eigenvalues --    1.36384   1.37084   1.37990   1.43580   1.45712
 Alpha virt. eigenvalues --    1.49291   1.50719   1.51325   1.54672   1.58376
 Alpha virt. eigenvalues --    1.59824   1.60860   1.61952   1.64519   1.66266
 Alpha virt. eigenvalues --    1.66935   1.70432   1.72216   1.75147   1.76038
 Alpha virt. eigenvalues --    1.81635   1.83698   1.86826   1.87938   1.91592
 Alpha virt. eigenvalues --    1.97339   1.99301   2.02916   2.05290   2.09189
 Alpha virt. eigenvalues --    2.10069   2.14014   2.21447   2.31604   2.35675
 Alpha virt. eigenvalues --    2.41123   2.47732   2.51650   2.52388   2.54382
 Alpha virt. eigenvalues --    2.56528   2.61906   2.62478   2.63912   2.64985
 Alpha virt. eigenvalues --    2.66081   2.71297   2.72926   2.75700   2.80872
 Alpha virt. eigenvalues --    2.82642   2.83962   2.89938   2.93451   2.94389
 Alpha virt. eigenvalues --    2.95602   2.99041   3.02514   3.04466   3.06889
 Alpha virt. eigenvalues --    3.11520   3.15308   3.16689   3.18973   3.25105
 Alpha virt. eigenvalues --    3.26226   3.31864   3.35748   3.38560   3.44750
 Alpha virt. eigenvalues --    3.54374   3.66356   3.75830   3.85432   3.86062
 Alpha virt. eigenvalues --    3.87266   3.91284   4.03515   4.13633   4.19544
 Alpha virt. eigenvalues --    4.28282   5.09469   5.12005   5.17210   5.19676
 Alpha virt. eigenvalues --    5.32892   5.47548   5.55094   5.73410   5.94742
 Alpha virt. eigenvalues --   23.62765  23.93532  23.94476  24.06076  25.13417
 Alpha virt. eigenvalues --   49.94966  50.00611  50.11883
  Beta  occ. eigenvalues --  -19.68251 -19.65717 -19.63079 -10.70591 -10.60556
  Beta  occ. eigenvalues --  -10.57854 -10.57517 -10.53604  -1.25633  -1.16406
  Beta  occ. eigenvalues --   -1.05759  -0.90407  -0.87019  -0.77976  -0.70526
  Beta  occ. eigenvalues --   -0.64466  -0.61418  -0.58471  -0.56488  -0.53501
  Beta  occ. eigenvalues --   -0.52095  -0.49243  -0.46658  -0.45259  -0.41987
  Beta  occ. eigenvalues --   -0.40285  -0.38815  -0.38026  -0.37909  -0.36318
  Beta virt. eigenvalues --   -0.08813  -0.00552  -0.00292   0.00568   0.01669
  Beta virt. eigenvalues --    0.02238   0.02940   0.03660   0.04724   0.05582
  Beta virt. eigenvalues --    0.06189   0.07353   0.07928   0.08010   0.10447
  Beta virt. eigenvalues --    0.10719   0.11074   0.12041   0.12774   0.13238
  Beta virt. eigenvalues --    0.13656   0.14106   0.14997   0.15210   0.15846
  Beta virt. eigenvalues --    0.16823   0.17378   0.18124   0.18518   0.19829
  Beta virt. eigenvalues --    0.20539   0.20990   0.22425   0.23603   0.23892
  Beta virt. eigenvalues --    0.24624   0.26721   0.28309   0.28874   0.29855
  Beta virt. eigenvalues --    0.30367   0.31145   0.32364   0.32625   0.33561
  Beta virt. eigenvalues --    0.34652   0.35176   0.36535   0.37251   0.40350
  Beta virt. eigenvalues --    0.41419   0.42447   0.44967   0.46872   0.49433
  Beta virt. eigenvalues --    0.50378   0.52299   0.54870   0.57199   0.58564
  Beta virt. eigenvalues --    0.60829   0.61938   0.63561   0.65683   0.67255
  Beta virt. eigenvalues --    0.69697   0.70428   0.70901   0.72074   0.73420
  Beta virt. eigenvalues --    0.74557   0.75490   0.76425   0.77898   0.80242
  Beta virt. eigenvalues --    0.85164   0.88543   0.90622   0.95841   1.00146
  Beta virt. eigenvalues --    1.02408   1.03923   1.06571   1.09474   1.11609
  Beta virt. eigenvalues --    1.14860   1.16844   1.18925   1.20267   1.23134
  Beta virt. eigenvalues --    1.24741   1.25340   1.29528   1.33112   1.35012
  Beta virt. eigenvalues --    1.35737   1.36963   1.37304   1.38212   1.44142
  Beta virt. eigenvalues --    1.46135   1.49538   1.51038   1.51921   1.55276
  Beta virt. eigenvalues --    1.58390   1.59843   1.60922   1.61968   1.64533
  Beta virt. eigenvalues --    1.66356   1.66973   1.70458   1.72588   1.75176
  Beta virt. eigenvalues --    1.76500   1.81722   1.83911   1.86894   1.88238
  Beta virt. eigenvalues --    1.91649   1.97673   1.99362   2.02996   2.05352
  Beta virt. eigenvalues --    2.09709   2.11016   2.14023   2.21457   2.31616
  Beta virt. eigenvalues --    2.35681   2.41440   2.47788   2.51655   2.52344
  Beta virt. eigenvalues --    2.54396   2.56561   2.62059   2.62558   2.64409
  Beta virt. eigenvalues --    2.65210   2.66160   2.71521   2.73094   2.76026
  Beta virt. eigenvalues --    2.81365   2.82746   2.86179   2.90736   2.94528
  Beta virt. eigenvalues --    2.96928   2.98477   2.99064   3.03086   3.06387
  Beta virt. eigenvalues --    3.07138   3.12620   3.15898   3.18633   3.21032
  Beta virt. eigenvalues --    3.26016   3.26514   3.31910   3.36065   3.38531
  Beta virt. eigenvalues --    3.44715   3.54700   3.66346   3.75969   3.85496
  Beta virt. eigenvalues --    3.86182   3.89831   3.91998   4.03529   4.13632
  Beta virt. eigenvalues --    4.19533   4.28281   5.11951   5.15718   5.19623
  Beta virt. eigenvalues --    5.21488   5.32894   5.47549   5.57381   5.73401
  Beta virt. eigenvalues --    5.94734  23.62802  23.93535  23.94482  24.06076
  Beta virt. eigenvalues --   25.13621  49.94515  50.00600  50.11899
          Condensed to atoms (all electrons):
               1          2          3          4          5          6
     1  C    5.372724   0.420788  -0.085366   0.839995  -0.091172  -0.055467
     2  H    0.420788   0.428874  -0.054833   0.010308  -0.003222  -0.004042
     3  C   -0.085366  -0.054833   8.344435  -2.682049   0.197785  -0.280905
     4  C    0.839995   0.010308  -2.682049   8.153286   0.297969   0.150142
     5  O   -0.091172  -0.003222   0.197785   0.297969   7.971105  -0.141827
     6  O   -0.055467  -0.004042  -0.280905   0.150142  -0.141827   8.283672
     7  C    0.027638   0.000378  -0.209135   0.012067   0.050037   0.164887
     8  C   -0.009965  -0.000724  -0.031703  -0.052088  -0.075402  -0.038830
     9  H    0.001235   0.000133  -0.001322   0.010457   0.004632  -0.090243
    10  H    0.001300  -0.000137  -0.018894   0.002397  -0.018000  -0.007806
    11  H   -0.001204   0.000005   0.007094  -0.003452  -0.002538   0.017477
    12  H    0.001114   0.000030  -0.002858   0.003915   0.001837  -0.002210
    13  H   -0.002548  -0.000161  -0.004736  -0.020986   0.005635  -0.017952
    14  O   -0.021375   0.000441   0.002578  -0.065039  -0.008215   0.027375
    15  H   -0.003588  -0.001226   0.053797  -0.040073   0.000687  -0.000117
               7          8          9         10         11         12
     1  C    0.027638  -0.009965   0.001235   0.001300  -0.001204   0.001114
     2  H    0.000378  -0.000724   0.000133  -0.000137   0.000005   0.000030
     3  C   -0.209135  -0.031703  -0.001322  -0.018894   0.007094  -0.002858
     4  C    0.012067  -0.052088   0.010457   0.002397  -0.003452   0.003915
     5  O    0.050037  -0.075402   0.004632  -0.018000  -0.002538   0.001837
     6  O    0.164887  -0.038830  -0.090243  -0.007806   0.017477  -0.002210
     7  C    5.430378   0.029141   0.445744   0.403501  -0.052946  -0.035578
     8  C    0.029141   5.463780  -0.063156  -0.020335   0.404460   0.414862
     9  H    0.445744  -0.063156   0.537354  -0.037827  -0.000325  -0.011734
    10  H    0.403501  -0.020335  -0.037827   0.513906  -0.005065   0.005473
    11  H   -0.052946   0.404460  -0.000325  -0.005065   0.534880  -0.033905
    12  H   -0.035578   0.414862  -0.011734   0.005473  -0.033905   0.548333
    13  H    0.005241   0.381497   0.011525  -0.011232  -0.032682  -0.046491
    14  O   -0.011090   0.015921   0.000404  -0.000834   0.001391   0.000111
    15  H    0.002440   0.001037   0.000354  -0.000593   0.000110  -0.001131
              13         14         15
     1  C   -0.002548  -0.021375  -0.003588
     2  H   -0.000161   0.000441  -0.001226
     3  C   -0.004736   0.002578   0.053797
     4  C   -0.020986  -0.065039  -0.040073
     5  O    0.005635  -0.008215   0.000687
     6  O   -0.017952   0.027375  -0.000117
     7  C    0.005241  -0.011090   0.002440
     8  C    0.381497   0.015921   0.001037
     9  H    0.011525   0.000404   0.000354
    10  H   -0.011232  -0.000834  -0.000593
    11  H   -0.032682   0.001391   0.000110
    12  H   -0.046491   0.000111  -0.001131
    13  H    0.537550  -0.000791   0.000664
    14  O   -0.000791   8.011432   0.259918
    15  H    0.000664   0.259918   0.506697
          Atomic-Atomic Spin Densities.
               1          2          3          4          5          6
     1  C    0.183201  -0.001307   0.064652  -0.028892   0.001952  -0.000303
     2  H   -0.001307  -0.005974   0.000874  -0.001315   0.000071   0.000045
     3  C    0.064652   0.000874  -0.071547   0.035782  -0.007403  -0.002369
     4  C   -0.028892  -0.001315   0.035782  -0.008117   0.006517  -0.006478
     5  O    0.001952   0.000071  -0.007403   0.006517  -0.009112   0.000054
     6  O   -0.000303   0.000045  -0.002369  -0.006478   0.000054   0.002702
     7  C    0.002304   0.000230  -0.024142  -0.001511  -0.000040   0.004988
     8  C   -0.000541  -0.000065   0.008526   0.002704   0.000311  -0.002753
     9  H    0.000018   0.000005  -0.000774  -0.000423   0.000053   0.000164
    10  H   -0.000366  -0.000029   0.002658   0.000096   0.000084  -0.000564
    11  H    0.000041   0.000002  -0.000226   0.000075   0.000027   0.000009
    12  H    0.000105   0.000003   0.000009   0.000426  -0.000118   0.000104
    13  H    0.000767   0.000047  -0.005888   0.002994  -0.000227   0.000251
    14  O   -0.046024  -0.001152  -0.051137   0.002288   0.002295   0.001505
    15  H    0.000474  -0.000064   0.002453  -0.000792  -0.000126   0.000206
               7          8          9         10         11         12
     1  C    0.002304  -0.000541   0.000018  -0.000366   0.000041   0.000105
     2  H    0.000230  -0.000065   0.000005  -0.000029   0.000002   0.000003
     3  C   -0.024142   0.008526  -0.000774   0.002658  -0.000226   0.000009
     4  C   -0.001511   0.002704  -0.000423   0.000096   0.000075   0.000426
     5  O   -0.000040   0.000311   0.000053   0.000084   0.000027  -0.000118
     6  O    0.004988  -0.002753   0.000164  -0.000564   0.000009   0.000104
     7  C    0.016552  -0.004430   0.001520  -0.002679   0.000416  -0.000516
     8  C   -0.004430  -0.001334  -0.000726   0.001063  -0.000239   0.000392
     9  H    0.001520  -0.000726   0.000073  -0.000159   0.000048  -0.000061
    10  H   -0.002679   0.001063  -0.000159   0.000186  -0.000001   0.000014
    11  H    0.000416  -0.000239   0.000048  -0.000001  -0.000036  -0.000039
    12  H   -0.000516   0.000392  -0.000061   0.000014  -0.000039   0.000120
    13  H    0.002425  -0.000626   0.000213  -0.000249   0.000043  -0.000393
    14  O    0.004686  -0.002570   0.000105  -0.000209  -0.000113  -0.000038
    15  H   -0.000854   0.000690  -0.000032   0.000052   0.000019  -0.000062
              13         14         15
     1  C    0.000767  -0.046024   0.000474
     2  H    0.000047  -0.001152  -0.000064
     3  C   -0.005888  -0.051137   0.002453
     4  C    0.002994   0.002288  -0.000792
     5  O   -0.000227   0.002295  -0.000126
     6  O    0.000251   0.001505   0.000206
     7  C    0.002425   0.004686  -0.000854
     8  C   -0.000626  -0.002570   0.000690
     9  H    0.000213   0.000105  -0.000032
    10  H   -0.000249  -0.000209   0.000052
    11  H    0.000043  -0.000113   0.000019
    12  H   -0.000393  -0.000038  -0.000062
    13  H   -0.000323  -0.000024  -0.000215
    14  O   -0.000024   0.990422   0.009490
    15  H   -0.000215   0.009490  -0.032996
 Mulliken charges and spin densities:
               1          2
     1  C   -0.394110   0.176081
     2  H    0.203388  -0.008627
     3  C    0.766113  -0.048529
     4  C   -0.616850   0.003355
     5  O   -0.189311  -0.005661
     6  O   -0.004153  -0.002436
     7  C   -0.262701  -0.001049
     8  C   -0.418495   0.000403
     9  H    0.192770   0.000024
    10  H    0.194147  -0.000102
    11  H    0.166702   0.000026
    12  H    0.158234  -0.000052
    13  H    0.195468  -0.001203
    14  O   -0.212227   0.909525
    15  H    0.221024  -0.021755
 Sum of Mulliken charges =  -0.00000   1.00000
 Mulliken charges and spin densities with hydrogens summed into heavy atoms:
               1          2
     1  C   -0.190721   0.167454
     3  C    0.766113  -0.048529
     4  C   -0.616850   0.003355
     5  O   -0.189311  -0.005661
     6  O   -0.004153  -0.002436
     7  C    0.124215  -0.001127
     8  C    0.101909  -0.000826
    14  O    0.008798   0.887770
 APT charges:
               1
     1  C   -0.195097
     2  H    0.233436
     3  C   -0.353014
     4  C    1.464095
     5  O   -0.769816
     6  O   -0.948836
     7  C    0.535212
     8  C   -0.041052
     9  H   -0.015233
    10  H   -0.010900
    11  H    0.009031
    12  H    0.008847
    13  H    0.032624
    14  O   -0.212921
    15  H    0.263624
 Sum of APT charges =   0.00000
 APT charges with hydrogens summed into heavy atoms:
               1
     1  C    0.038340
     3  C   -0.353014
     4  C    1.464095
     5  O   -0.769816
     6  O   -0.948836
     7  C    0.509079
     8  C    0.009450
    14  O    0.050703
 Electronic spatial extent (au):  <R**2>=           1081.6445
 Charge=             -0.0000 electrons
 Dipole moment (field-independent basis, Debye):
    X=              0.1562    Y=              0.7704    Z=             -3.0550  Tot=              3.1545
 Quadrupole moment (field-independent basis, Debye-Ang):
   XX=            -33.4161   YY=            -48.0017   ZZ=            -51.2653
   XY=              0.7209   XZ=              3.0193   YZ=             -0.4903
 Traceless Quadrupole moment (field-independent basis, Debye-Ang):
   XX=             10.8116   YY=             -3.7740   ZZ=             -7.0377
   XY=              0.7209   XZ=              3.0193   YZ=             -0.4903
 Octapole moment (field-independent basis, Debye-Ang**2):
  XXX=            -27.0448  YYY=             10.5115  ZZZ=             -1.3608  XYY=              1.8412
  XXY=             -5.2311  XXZ=            -14.3189  XZZ=              3.1538  YZZ=              5.7218
  YYZ=             -9.5719  XYZ=              5.5590
 Hexadecapole moment (field-independent basis, Debye-Ang**3):
 XXXX=           -763.3586 YYYY=           -266.6032 ZZZZ=           -167.8837 XXXY=              8.6843
 XXXZ=             33.4984 YYYX=            -21.3567 YYYZ=            -12.8815 ZZZX=             -7.6666
 ZZZY=              0.7970 XXYY=           -216.5851 XXZZ=           -190.2638 YYZZ=            -78.5036
 XXYZ=             -5.8142 YYXZ=              8.7947 ZZXY=             -5.1707
 N-N= 3.595832028914D+02 E-N=-1.703997387936D+03  KE= 4.188772243118D+02
  Exact polarizability:  91.393   4.475  65.254   4.832  -0.649  58.304
 Approx polarizability:  98.689   2.479  71.106   8.565  -4.785  75.016
                          Isotropic Fermi Contact Couplings
        Atom                 a.u.       MegaHertz       Gauss      10(-4) cm-1
     1  C(13)              0.02825      31.76364      11.33406      10.59521
     2  H(1)              -0.00270     -12.06395      -4.30472      -4.02410
     3  C(13)              0.01711      19.23458       6.86338       6.41597
     4  C(13)              0.00732       8.23356       2.93794       2.74642
     5  O(17)             -0.00218       1.32297       0.47207       0.44129
     6  O(17)             -0.00120       0.72712       0.25945       0.24254
     7  C(13)              0.00000       0.00389       0.00139       0.00130
     8  C(13)             -0.00033      -0.36639      -0.13074      -0.12221
     9  H(1)               0.00001       0.02914       0.01040       0.00972
    10  H(1)              -0.00004      -0.19296      -0.06885      -0.06436
    11  H(1)              -0.00001      -0.02298      -0.00820      -0.00767
    12  H(1)               0.00000       0.00710       0.00254       0.00237
    13  H(1)               0.00000       0.00895       0.00319       0.00299
    14  O(17)              0.13076     -79.26604     -28.28409     -26.44030
    15  H(1)              -0.01496     -66.86002     -23.85732     -22.30210
 --------------------------------------------------------
       Center         ----  Spin Dipole Couplings  ----
                      3XX-RR        3YY-RR        3ZZ-RR
 --------------------------------------------------------
     1   Atom       -0.104474      0.172377     -0.067903
     2   Atom        0.015847     -0.002950     -0.012897
     3   Atom        0.015588      0.019181     -0.034769
     4   Atom        0.001928      0.010866     -0.012794
     5   Atom        0.014234     -0.016532      0.002299
     6   Atom        0.006420     -0.008829      0.002409
     7   Atom        0.002257     -0.000575     -0.001682
     8   Atom        0.003492     -0.001595     -0.001897
     9   Atom        0.001201     -0.000575     -0.000626
    10   Atom        0.001030      0.000206     -0.001236
    11   Atom        0.001792     -0.000819     -0.000973
    12   Atom        0.004700     -0.002397     -0.002303
    13   Atom        0.003851     -0.001755     -0.002096
    14   Atom       -1.060114      2.561316     -1.501202
    15   Atom       -0.110652     -0.031848      0.142500
 --------------------------------------------------------
                        XY            XZ            YZ
 --------------------------------------------------------
     1   Atom        0.024093      0.000697      0.059140
     2   Atom        0.004854      0.006950      0.003590
     3   Atom       -0.006099      0.010336      0.012434
     4   Atom       -0.015082     -0.000550      0.002642
     5   Atom       -0.021249     -0.007513     -0.018841
     6   Atom       -0.006223     -0.005543      0.000687
     7   Atom       -0.002354     -0.001058      0.000646
     8   Atom       -0.001477     -0.000165      0.000037
     9   Atom       -0.001146     -0.001159      0.000612
    10   Atom       -0.001678     -0.000246      0.000263
    11   Atom       -0.000588      0.000005      0.000016
    12   Atom       -0.000152     -0.001090      0.000088
    13   Atom       -0.001921      0.001610     -0.000439
    14   Atom        1.746460      0.450113      1.111504
    15   Atom        0.019490      0.030841     -0.066977
 --------------------------------------------------------


 ---------------------------------------------------------------------------------
              Anisotropic Spin Dipole Couplings in Principal Axis System
 ---------------------------------------------------------------------------------

       Atom             a.u.   MegaHertz   Gauss  10(-4) cm-1        Axes

              Baa    -0.1073   -14.395    -5.136    -4.802  0.9799 -0.1184  0.1604
     1 C(13)  Bbb    -0.0808   -10.840    -3.868    -3.616 -0.1824 -0.2072  0.9612
              Bcc     0.1881    25.235     9.004     8.417  0.0805  0.9711  0.2246
 
              Baa    -0.0150    -8.011    -2.858    -2.672 -0.1828 -0.2121  0.9600
     2 H(1)   Bbb    -0.0038    -2.049    -0.731    -0.683 -0.2875  0.9453  0.1541
              Bcc     0.0189    10.060     3.590     3.356  0.9402  0.2478  0.2338
 
              Baa    -0.0399    -5.348    -1.908    -1.784 -0.2022 -0.2218  0.9539
     3 C(13)  Bbb     0.0158     2.114     0.754     0.705  0.8405  0.4606  0.2853
              Bcc     0.0241     3.234     1.154     1.079 -0.5027  0.8594  0.0933
 
              Baa    -0.0133    -1.784    -0.636    -0.595 -0.1817 -0.2183  0.9588
     4 C(13)  Bbb    -0.0090    -1.209    -0.431    -0.403  0.7831  0.5577  0.2753
              Bcc     0.0223     2.992     1.068     0.998 -0.5948  0.8008  0.0696
 
              Baa    -0.0376     2.722     0.971     0.908  0.3936  0.8005  0.4519
     5 O(17)  Bbb     0.0123    -0.890    -0.318    -0.297 -0.3201 -0.3415  0.8837
              Bcc     0.0253    -1.832    -0.654    -0.611  0.8618 -0.4924  0.1218
 
              Baa    -0.0112     0.808     0.288     0.270  0.3597  0.9277  0.0999
     6 O(17)  Bbb    -0.0006     0.047     0.017     0.016  0.4409 -0.2634  0.8581
              Bcc     0.0118    -0.855    -0.305    -0.285  0.8223 -0.2646 -0.5037
 
              Baa    -0.0020    -0.266    -0.095    -0.089 -0.0688 -0.5093  0.8578
     7 C(13)  Bbb    -0.0019    -0.253    -0.090    -0.084  0.5243  0.7131  0.4654
              Bcc     0.0039     0.519     0.185     0.173  0.8488 -0.4817 -0.2180
 
              Baa    -0.0020    -0.268    -0.095    -0.089  0.2614  0.9618  0.0811
     8 C(13)  Bbb    -0.0019    -0.255    -0.091    -0.085  0.0069 -0.0858  0.9963
              Bcc     0.0039     0.523     0.186     0.174  0.9652 -0.2599 -0.0291
 
              Baa    -0.0012    -0.651    -0.232    -0.217  0.1587 -0.5162  0.8416
     9 H(1)   Bbb    -0.0011    -0.598    -0.213    -0.200  0.5509  0.7537  0.3584
              Bcc     0.0023     1.249     0.446     0.417  0.8194 -0.4068 -0.4040
 
              Baa    -0.0013    -0.687    -0.245    -0.229 -0.1079 -0.2885  0.9514
    10 H(1)   Bbb    -0.0011    -0.583    -0.208    -0.195  0.6137  0.7335  0.2920
              Bcc     0.0024     1.270     0.453     0.424  0.7821 -0.6154 -0.0979
 
              Baa    -0.0010    -0.523    -0.187    -0.174 -0.0885 -0.4097  0.9079
    11 H(1)   Bbb    -0.0009    -0.500    -0.178    -0.167  0.1904  0.8877  0.4192
              Bcc     0.0019     1.023     0.365     0.341  0.9777 -0.2100  0.0005
 
              Baa    -0.0025    -1.338    -0.477    -0.446  0.1176 -0.5147  0.8492
    12 H(1)   Bbb    -0.0024    -1.260    -0.450    -0.420  0.0966  0.8570  0.5061
              Bcc     0.0049     2.598     0.927     0.867  0.9884 -0.0225 -0.1505
 
              Baa    -0.0025    -1.342    -0.479    -0.448 -0.3053 -0.2394  0.9217
    13 H(1)   Bbb    -0.0023    -1.244    -0.444    -0.415  0.2077  0.9278  0.3098
              Bcc     0.0048     2.586     0.923     0.863  0.9293 -0.2860  0.2336
 
              Baa    -1.7859   129.228    46.112    43.106 -0.1436 -0.1906  0.9711
    14 O(17)  Bbb    -1.7650   127.717    45.572    42.602  0.9202 -0.3869  0.0602
              Bcc     3.5510  -256.945   -91.684   -85.707  0.3643  0.9022  0.2309
 
              Baa    -0.1241   -66.194   -23.620   -22.080  0.9232 -0.3336 -0.1906
    15 H(1)   Bbb    -0.0431   -23.004    -8.208    -7.673  0.3751  0.8901  0.2589
              Bcc     0.1672    89.198    31.828    29.753  0.0833 -0.3105  0.9469
 

 ---------------------------------------------------------------------------------

 Calling FoFJK, ICntrl=    100127 FMM=F ISym2X=0 I1Cent= 0 IOpClX= 1 NMat=1 NMatS=1 NMatT=0.
 Full mass-weighted force constant matrix:
 Low frequencies ---  -64.4818  -38.1602   -5.0139   -0.0009   -0.0004    0.0006
 Low frequencies ---   29.5767   45.9859  108.4152
 ******    1 imaginary frequencies (negative Signs) ****** 
 Diagonal vibrational polarizability:
      150.7643764      75.0384603      19.3222636
 Harmonic frequencies (cm**-1), IR intensities (KM/Mole), Raman scattering
 activities (A**4/AMU), depolarization ratios for plane and unpolarized
 incident light, reduced masses (AMU), force constants (mDyne/A),
 and normal coordinates:
                      1                      2                      3
                      A                      A                      A
 Frequencies --    -30.5605                39.5964               108.2709
 Red. masses --      4.5193                 4.8398                 3.6282
 Frc consts  --      0.0025                 0.0045                 0.0251
 IR Inten    --      2.6461                 2.5337                 7.7132
  Atom  AN      X      Y      Z        X      Y      Z        X      Y      Z
     1   6     0.02  -0.01  -0.19    -0.04   0.06   0.01    -0.04  -0.15   0.05
     2   1     0.03  -0.05  -0.25    -0.04   0.16   0.03    -0.05  -0.27   0.10
     3   6     0.01   0.02  -0.12    -0.03  -0.05  -0.01    -0.02  -0.01  -0.02
     4   6    -0.01   0.05  -0.02    -0.03  -0.09  -0.02    -0.00   0.09  -0.04
     5   8    -0.07   0.21   0.09    -0.04  -0.08  -0.01     0.03   0.23   0.02
     6   8     0.04  -0.12  -0.05    -0.03  -0.11  -0.03    -0.03   0.00  -0.10
     7   6     0.03  -0.10   0.04    -0.03   0.07   0.06    -0.03   0.03  -0.08
     8   6     0.01   0.05  -0.14    -0.23   0.22  -0.01    -0.07  -0.15   0.18
     9   1     0.07  -0.29   0.05     0.02   0.04   0.08    -0.01   0.27  -0.06
    10   1    -0.00  -0.03   0.22     0.07   0.14   0.15    -0.00  -0.06  -0.30
    11   1    -0.00   0.05  -0.08    -0.23   0.37   0.08    -0.06  -0.11   0.10
    12   1     0.04  -0.03  -0.33    -0.32   0.15  -0.12    -0.15  -0.06   0.44
    13   1    -0.04   0.24  -0.15    -0.30   0.26  -0.04    -0.02  -0.43   0.19
    14   8     0.01  -0.10   0.29     0.37  -0.04   0.00     0.16  -0.06  -0.02
    15   1    -0.36   0.18   0.41     0.36  -0.04   0.00    -0.25   0.05   0.06
                      4                      5                      6
                      A                      A                      A
 Frequencies --    128.2505               154.6448               194.3610
 Red. masses --      3.6542                 2.4878                 1.4397
 Frc consts  --      0.0354                 0.0351                 0.0320
 IR Inten    --      6.7297                17.0300                41.8985
  Atom  AN      X      Y      Z        X      Y      Z        X      Y      Z
     1   6    -0.02  -0.14  -0.18     0.07   0.10  -0.15    -0.03   0.04   0.08
     2   1     0.01  -0.21  -0.35     0.10   0.24  -0.32    -0.05   0.12   0.17
     3   6    -0.07  -0.05   0.03     0.03  -0.07   0.06    -0.01  -0.04  -0.04
     4   6    -0.07   0.05   0.09     0.02  -0.05   0.07    -0.00   0.01  -0.04
     5   8    -0.04  -0.01   0.06     0.11   0.04   0.08     0.01   0.08  -0.02
     6   8    -0.09   0.19   0.13    -0.05  -0.09  -0.01     0.01   0.02  -0.04
     7   6    -0.09   0.05  -0.03    -0.03   0.02  -0.10     0.01  -0.01   0.02
     8   6     0.15  -0.02  -0.09    -0.09  -0.03   0.01     0.01  -0.01   0.02
     9   1    -0.19  -0.01  -0.07    -0.09   0.19  -0.11     0.05  -0.04   0.04
    10   1    -0.14   0.03  -0.04     0.08  -0.01  -0.23    -0.04  -0.00   0.05
    11   1     0.15  -0.16  -0.21    -0.06   0.14  -0.16    -0.03  -0.18   0.25
    12   1     0.24   0.01  -0.08    -0.32  -0.00   0.20     0.25  -0.01  -0.10
    13   1     0.25   0.05  -0.05     0.06  -0.27   0.07    -0.20   0.14  -0.06
    14   8     0.15  -0.06   0.00    -0.08   0.06   0.04    -0.05  -0.08   0.02
    15   1     0.56  -0.15  -0.07     0.54  -0.12  -0.07     0.79  -0.22  -0.11
                      7                      8                      9
                      A                      A                      A
 Frequencies --    199.3064               229.0995               261.3993
 Red. masses --      6.3574                 1.5353                 2.6102
 Frc consts  --      0.1488                 0.0475                 0.1051
 IR Inten    --      1.7145                 7.5093                20.2230
  Atom  AN      X      Y      Z        X      Y      Z        X      Y      Z
     1   6    -0.02  -0.27   0.00    -0.05   0.01   0.07     0.04  -0.16  -0.00
     2   1    -0.02  -0.36   0.05    -0.07   0.07   0.19     0.05  -0.46  -0.06
     3   6    -0.01  -0.22  -0.09    -0.02  -0.08  -0.10     0.02   0.28   0.08
     4   6    -0.01  -0.05  -0.06    -0.02  -0.02  -0.04     0.01   0.08  -0.00
     5   8     0.01  -0.00  -0.04    -0.08   0.02   0.01    -0.03  -0.04  -0.05
     6   8     0.00  -0.01  -0.04     0.04  -0.01   0.01     0.03  -0.03  -0.03
     7   6    -0.01  -0.04   0.03     0.04   0.01   0.03     0.02  -0.07   0.02
     8   6    -0.02  -0.02   0.01     0.07   0.02  -0.01    -0.08  -0.00  -0.01
     9   1     0.05  -0.10   0.05     0.03  -0.01   0.02     0.06  -0.12   0.04
    10   1    -0.06  -0.02   0.08     0.05   0.01   0.04    -0.01  -0.05   0.08
    11   1    -0.07  -0.19   0.29     0.14   0.32  -0.47    -0.05   0.24  -0.15
    12   1     0.25  -0.03  -0.16    -0.38   0.02   0.21    -0.35  -0.04   0.03
    13   1    -0.27   0.18  -0.09     0.49  -0.23   0.16     0.05  -0.11   0.04
    14   8     0.02   0.48   0.14    -0.01   0.02   0.02    -0.03   0.01   0.03
    15   1     0.32   0.15   0.01     0.21  -0.04  -0.02     0.63  -0.02  -0.05
                     10                     11                     12
                      A                      A                      A
 Frequencies --    341.1245               424.8745               547.4238
 Red. masses --      2.9423                 3.9276                 1.6549
 Frc consts  --      0.2017                 0.4177                 0.2922
 IR Inten    --     13.2436                 0.9400                51.4113
  Atom  AN      X      Y      Z        X      Y      Z        X      Y      Z
     1   6    -0.00   0.04  -0.03     0.10   0.01   0.06     0.05  -0.01   0.03
     2   1     0.01   0.12  -0.09     0.07   0.06   0.23     0.03  -0.03   0.17
     3   6    -0.02  -0.09   0.05     0.14  -0.06  -0.17     0.08   0.04  -0.13
     4   6     0.01   0.04  -0.04     0.06   0.05   0.05     0.00  -0.04   0.02
     5   8     0.19   0.04  -0.11    -0.09  -0.02   0.08     0.05  -0.01   0.03
     6   8    -0.04   0.13  -0.03     0.06   0.20   0.14    -0.07  -0.03   0.00
     7   6    -0.09  -0.14   0.17     0.02  -0.11  -0.11    -0.11   0.03   0.03
     8   6    -0.07  -0.03   0.00    -0.20  -0.09  -0.09     0.00   0.00   0.01
     9   1     0.07  -0.44   0.23    -0.05  -0.10  -0.14    -0.09   0.00   0.04
    10   1    -0.36  -0.08   0.43    -0.07  -0.15  -0.15    -0.10   0.04   0.06
    11   1    -0.03   0.18  -0.22    -0.21   0.23   0.17     0.00  -0.14  -0.11
    12   1    -0.34  -0.11  -0.04    -0.42  -0.17  -0.16     0.09   0.04   0.04
    13   1     0.14  -0.02   0.10    -0.44  -0.17  -0.20     0.11   0.05   0.06
    14   8     0.01  -0.01  -0.01     0.01  -0.01  -0.01    -0.01  -0.03  -0.03
    15   1    -0.12  -0.03   0.00    -0.02   0.03   0.01     0.22   0.86   0.20
                     13                     14                     15
                      A                      A                      A
 Frequencies --    568.5153               618.6619               732.4323
 Red. masses --      2.0522                 4.2705                 1.3170
 Frc consts  --      0.3908                 0.9630                 0.4163
 IR Inten    --     36.2858                27.9116                37.6660
  Atom  AN      X      Y      Z        X      Y      Z        X      Y      Z
     1   6    -0.15  -0.00  -0.03     0.17  -0.00   0.03     0.03   0.05  -0.14
     2   1    -0.13   0.03  -0.14     0.24   0.22  -0.28    -0.17  -0.34   0.91
     3   6    -0.15  -0.04   0.07     0.09  -0.18   0.30    -0.01  -0.03   0.07
     4   6    -0.02   0.02   0.01     0.03   0.03  -0.09     0.00   0.00  -0.00
     5   8     0.06   0.01  -0.02    -0.25   0.02  -0.00    -0.01  -0.00   0.00
     6   8     0.08   0.01   0.06     0.01   0.06  -0.15    -0.00   0.00  -0.00
     7   6     0.14  -0.04  -0.04    -0.00   0.02  -0.01     0.01  -0.00  -0.00
     8   6    -0.00  -0.00  -0.01     0.01   0.00   0.01     0.00   0.00   0.00
     9   1     0.05   0.05  -0.08     0.14  -0.13   0.05     0.01  -0.01  -0.00
    10   1     0.19  -0.07  -0.12    -0.14   0.05   0.12    -0.00  -0.00   0.00
    11   1    -0.00   0.19   0.16     0.01  -0.02  -0.02     0.00   0.01   0.01
    12   1    -0.12  -0.06  -0.07     0.01   0.03   0.06    -0.00   0.00   0.00
    13   1    -0.16  -0.05  -0.08     0.03  -0.04   0.02    -0.00  -0.00  -0.00
    14   8    -0.01  -0.02  -0.03    -0.01  -0.03  -0.03    -0.00  -0.00  -0.00
    15   1     0.19   0.79   0.18     0.14   0.65   0.15     0.02   0.03   0.00
                     16                     17                     18
                      A                      A                      A
 Frequencies --    744.1634               777.3313               803.1208
 Red. masses --      1.3284                 7.7921                 1.2172
 Frc consts  --      0.4334                 2.7741                 0.4626
 IR Inten    --     22.6280                47.9465                 5.2713
  Atom  AN      X      Y      Z        X      Y      Z        X      Y      Z
     1   6     0.01  -0.14  -0.05     0.01  -0.02  -0.00     0.03   0.00   0.01
     2   1    -0.07   0.92   0.33    -0.02   0.41   0.17     0.04  -0.03  -0.01
     3   6    -0.01   0.06   0.02     0.02  -0.19  -0.08     0.02  -0.00   0.03
     4   6    -0.00  -0.03  -0.01     0.02   0.62   0.28    -0.02  -0.03  -0.05
     5   8     0.00   0.01   0.00    -0.01  -0.16  -0.12    -0.01   0.03  -0.04
     6   8     0.00   0.01   0.01    -0.00  -0.17  -0.06     0.01   0.00   0.04
     7   6     0.00  -0.00   0.00    -0.03  -0.01   0.03    -0.03  -0.04   0.07
     8   6     0.00  -0.00  -0.00    -0.01   0.01   0.02    -0.01  -0.03   0.02
     9   1    -0.00   0.00  -0.00    -0.04   0.24   0.04    -0.08   0.52   0.06
    10   1     0.00  -0.00  -0.01     0.13  -0.07  -0.16     0.11  -0.23  -0.44
    11   1     0.00   0.01   0.01    -0.01  -0.08  -0.12     0.01   0.07  -0.17
    12   1    -0.01  -0.00  -0.01     0.07  -0.02  -0.10    -0.06  -0.22  -0.39
    13   1    -0.01   0.00  -0.00     0.13   0.19   0.09     0.12   0.42   0.10
    14   8     0.00   0.01   0.00     0.00  -0.02  -0.00    -0.00  -0.00  -0.00
    15   1    -0.03  -0.01  -0.00     0.03   0.05   0.01     0.00   0.00  -0.00
                     19                     20                     21
                      A                      A                      A
 Frequencies --    896.6731               927.5631              1077.3826
 Red. masses --      3.2169                 2.7506                 4.1204
 Frc consts  --      1.5239                 1.3943                 2.8179
 IR Inten    --     14.3564                 4.8950                22.3573
  Atom  AN      X      Y      Z        X      Y      Z        X      Y      Z
     1   6     0.05   0.00   0.00    -0.11  -0.00  -0.02     0.07  -0.00   0.02
     2   1     0.05   0.00  -0.02    -0.13   0.00  -0.02     0.08  -0.00   0.04
     3   6     0.02  -0.03   0.06    -0.07   0.02  -0.00     0.04   0.00  -0.03
     4   6    -0.04   0.03  -0.11     0.14  -0.02   0.04    -0.15  -0.00   0.04
     5   8    -0.01   0.08  -0.15    -0.00  -0.06   0.12     0.02   0.01  -0.02
     6   8     0.13  -0.08   0.22     0.14   0.06  -0.11    -0.22   0.03  -0.03
     7   6    -0.08   0.09   0.04    -0.03   0.09   0.04     0.32   0.12   0.16
     8   6    -0.12  -0.04  -0.11    -0.15  -0.09  -0.05    -0.07  -0.15  -0.12
     9   1    -0.23  -0.01  -0.03     0.34   0.17   0.20     0.34   0.25   0.18
    10   1     0.25   0.22   0.22    -0.04   0.09   0.06     0.41   0.19   0.24
    11   1    -0.15  -0.55  -0.24    -0.14  -0.50  -0.49    -0.07  -0.24  -0.17
    12   1     0.19   0.18   0.25     0.15  -0.06  -0.14    -0.05  -0.18  -0.19
    13   1     0.03  -0.32  -0.05     0.23   0.13   0.12    -0.07  -0.26  -0.14
    14   8    -0.00  -0.00   0.00    -0.00   0.00   0.00     0.00  -0.00  -0.00
    15   1     0.01  -0.01  -0.00     0.01   0.00   0.00    -0.02   0.01   0.00
                     22                     23                     24
                      A                      A                      A
 Frequencies --   1129.0150              1203.8613              1283.9366
 Red. masses --      2.0971                 1.7766                 4.3283
 Frc consts  --      1.5749                 1.5170                 4.2039
 IR Inten    --     22.0896                 5.6051               581.1332
  Atom  AN      X      Y      Z        X      Y      Z        X      Y      Z
     1   6    -0.01  -0.00  -0.00    -0.02  -0.00  -0.00    -0.09  -0.00  -0.02
     2   1    -0.02   0.00  -0.01    -0.02  -0.00  -0.01    -0.10   0.01  -0.05
     3   6    -0.01   0.00   0.01    -0.01   0.00  -0.00    -0.02   0.00   0.01
     4   6     0.03   0.01  -0.00     0.06   0.00  -0.01     0.42   0.06  -0.16
     5   8    -0.00  -0.01   0.00    -0.00  -0.01   0.03    -0.05  -0.00   0.00
     6   8     0.06  -0.04  -0.02    -0.01   0.04  -0.07    -0.20  -0.04   0.09
     7   6    -0.11   0.18   0.09    -0.04  -0.09   0.16     0.11   0.04   0.03
     8   6     0.11  -0.14  -0.07     0.03   0.07  -0.12    -0.02  -0.03   0.06
     9   1    -0.09   0.08   0.10    -0.32   0.37   0.07    -0.67  -0.20  -0.29
    10   1    -0.21   0.16   0.07     0.29  -0.22  -0.26    -0.01   0.08   0.17
    11   1     0.10   0.40   0.29    -0.03  -0.13   0.26    -0.00  -0.01  -0.14
    12   1    -0.41  -0.32  -0.21    -0.01   0.26   0.34     0.00  -0.15  -0.22
    13   1    -0.37  -0.14  -0.28    -0.08  -0.42  -0.18     0.01   0.07   0.07
    14   8    -0.00   0.00   0.00    -0.00   0.00   0.00    -0.00   0.00   0.00
    15   1     0.00  -0.00  -0.00     0.01   0.00  -0.00     0.04   0.02   0.00
                     25                     26                     27
                      A                      A                      A
 Frequencies --   1346.5835              1401.7819              1431.9515
 Red. masses --      1.2071                 1.2721                 1.3750
 Frc consts  --      1.2896                 1.4728                 1.6612
 IR Inten    --     75.7914                23.8874                10.6961
  Atom  AN      X      Y      Z        X      Y      Z        X      Y      Z
     1   6     0.01  -0.00   0.00    -0.01   0.00  -0.00    -0.01   0.00  -0.00
     2   1     0.01  -0.00   0.01    -0.01   0.00  -0.01    -0.01   0.00  -0.01
     3   6     0.00   0.00  -0.00    -0.00  -0.00   0.00    -0.00  -0.00   0.00
     4   6    -0.05  -0.01   0.02     0.05   0.00  -0.01     0.05   0.00  -0.01
     5   8     0.01  -0.01   0.02    -0.01   0.01  -0.01    -0.01   0.00  -0.01
     6   8     0.04   0.04  -0.07    -0.04   0.00   0.03    -0.04   0.01   0.03
     7   6    -0.03  -0.01   0.00    -0.04  -0.03  -0.03    -0.08  -0.07  -0.06
     8   6    -0.00  -0.04   0.04    -0.02  -0.09  -0.07     0.08   0.06   0.05
     9   1    -0.53  -0.18  -0.22     0.32   0.21   0.14     0.44   0.24   0.18
    10   1     0.67   0.22   0.24     0.26   0.14   0.21     0.43   0.18   0.27
    11   1     0.01   0.07  -0.03    -0.00   0.42   0.30     0.06  -0.30  -0.16
    12   1    -0.02  -0.10  -0.08     0.18   0.17   0.38    -0.32  -0.13  -0.16
    13   1     0.02   0.17   0.07     0.23   0.38   0.08    -0.29  -0.15  -0.13
    14   8     0.00  -0.00  -0.00    -0.00   0.00   0.00    -0.00   0.00   0.00
    15   1    -0.01  -0.00  -0.00     0.00  -0.00  -0.00     0.01  -0.00  -0.00
                     28                     29                     30
                      A                      A                      A
 Frequencies --   1491.4015              1502.4869              1514.4461
 Red. masses --      1.0409                 1.0570                 1.0889
 Frc consts  --      1.3641                 1.4059                 1.4714
 IR Inten    --     10.4309                 1.5772                19.7568
  Atom  AN      X      Y      Z        X      Y      Z        X      Y      Z
     1   6     0.00  -0.00  -0.00     0.00  -0.00   0.00     0.00  -0.00   0.00
     2   1    -0.00   0.00   0.00     0.00  -0.00   0.00     0.01  -0.00   0.00
     3   6    -0.00   0.00   0.00    -0.00   0.00   0.00    -0.00   0.00  -0.00
     4   6    -0.00   0.00  -0.00    -0.01   0.00  -0.00    -0.03   0.00  -0.00
     5   8     0.00  -0.00   0.00     0.00  -0.00   0.01     0.01  -0.01   0.01
     6   8     0.00   0.00  -0.00     0.01  -0.00  -0.00     0.02  -0.00  -0.01
     7   6    -0.02  -0.02   0.01     0.00  -0.03  -0.04     0.05  -0.04  -0.02
     8   6    -0.02  -0.01   0.04    -0.02   0.03  -0.00     0.02  -0.02  -0.00
     9   1    -0.00   0.15   0.03    -0.13   0.42  -0.06    -0.28   0.44  -0.13
    10   1    -0.00   0.01   0.07    -0.21   0.13   0.40    -0.36   0.06   0.37
    11   1     0.08   0.47  -0.45    -0.04   0.04   0.33     0.03  -0.14  -0.22
    12   1     0.57   0.08  -0.08     0.11  -0.12  -0.38    -0.19   0.09   0.34
    13   1    -0.33  -0.28  -0.13     0.38  -0.35   0.16    -0.27   0.35  -0.11
    14   8     0.00   0.00  -0.00     0.00  -0.00   0.00     0.00  -0.00  -0.00
    15   1    -0.00  -0.00  -0.00    -0.00  -0.00  -0.00    -0.00   0.00   0.00
                     31                     32                     33
                      A                      A                      A
 Frequencies --   1851.7290              2237.1452              3075.6689
 Red. masses --     12.0843                 5.8749                 1.0355
 Frc consts  --     24.4133                17.3235                 5.7714
 IR Inten    --    333.9907                65.3791                10.2478
  Atom  AN      X      Y      Z        X      Y      Z        X      Y      Z
     1   6    -0.07  -0.00  -0.01    -0.37  -0.00  -0.08     0.00   0.00   0.00
     2   1    -0.11  -0.01   0.00    -0.73  -0.01  -0.14    -0.00   0.00  -0.00
     3   6     0.05   0.01  -0.00     0.53  -0.01   0.10    -0.00   0.00   0.00
     4   6     0.25  -0.34   0.67    -0.10   0.02  -0.03     0.00   0.00  -0.00
     5   8    -0.17   0.22  -0.44     0.00  -0.00   0.01     0.00   0.00   0.00
     6   8     0.01   0.03  -0.06    -0.00  -0.00   0.00    -0.00  -0.00   0.00
     7   6     0.03  -0.01   0.02     0.00   0.00  -0.00    -0.00   0.00   0.00
     8   6    -0.01   0.01   0.00    -0.00  -0.00  -0.00    -0.02  -0.04  -0.02
     9   1    -0.17   0.10  -0.06     0.01  -0.00  -0.00     0.00  -0.00  -0.01
    10   1    -0.14  -0.04   0.08     0.00  -0.00  -0.00     0.00  -0.02   0.01
    11   1    -0.00  -0.02  -0.06     0.00   0.00   0.00     0.62  -0.06   0.06
    12   1     0.04   0.01  -0.01     0.00   0.00   0.00    -0.13   0.53  -0.25
    13   1    -0.04  -0.05  -0.01     0.00   0.00   0.00    -0.21  -0.03   0.46
    14   8     0.00   0.00  -0.00     0.00   0.00   0.00     0.00   0.00  -0.00
    15   1    -0.02   0.02   0.01    -0.00  -0.00   0.00    -0.00  -0.00  -0.00
                     34                     35                     36
                      A                      A                      A
 Frequencies --   3106.4013              3150.0791              3155.3861
 Red. masses --      1.0606                 1.1019                 1.1048
 Frc consts  --      6.0298                 6.4423                 6.4807
 IR Inten    --     19.6292                14.3472                 3.8547
  Atom  AN      X      Y      Z        X      Y      Z        X      Y      Z
     1   6    -0.00   0.00  -0.00    -0.00  -0.00  -0.00    -0.00   0.00   0.00
     2   1     0.00   0.00   0.00     0.00  -0.00   0.00    -0.00   0.00   0.00
     3   6     0.00  -0.00  -0.00     0.00   0.00   0.00     0.00  -0.00  -0.00
     4   6    -0.00  -0.00   0.00    -0.00  -0.00   0.00     0.00  -0.00   0.00
     5   8    -0.00   0.00  -0.00     0.00   0.00  -0.00    -0.00   0.00  -0.00
     6   8     0.00   0.00  -0.00    -0.00   0.00  -0.00    -0.00  -0.00  -0.00
     7   6     0.03  -0.06  -0.02     0.01   0.01  -0.03    -0.01  -0.03   0.05
     8   6    -0.01   0.01  -0.00     0.06  -0.05   0.03     0.06   0.00  -0.05
     9   1    -0.22  -0.04   0.51    -0.14  -0.02   0.34     0.17   0.02  -0.40
    10   1    -0.13   0.73  -0.34     0.02  -0.09   0.04    -0.07   0.35  -0.15
    11   1     0.12  -0.01   0.01    -0.58   0.04  -0.05    -0.47   0.04  -0.05
    12   1     0.01  -0.06   0.03    -0.14   0.62  -0.29     0.02  -0.02   0.00
    13   1     0.01   0.00  -0.02     0.05  -0.00  -0.08    -0.26  -0.04   0.59
    14   8     0.00  -0.00  -0.00     0.00  -0.00  -0.00     0.00   0.00  -0.00
    15   1    -0.00   0.00   0.00    -0.00  -0.00   0.00    -0.00  -0.00   0.00
                     37                     38                     39
                      A                      A                      A
 Frequencies --   3174.7786              3488.1746              3795.7861
 Red. masses --      1.1069                 1.1659                 1.0672
 Frc consts  --      6.5734                 8.3578                 9.0597
 IR Inten    --     14.4974                67.6931                34.4035
  Atom  AN      X      Y      Z        X      Y      Z        X      Y      Z
     1   6    -0.00  -0.00  -0.00    -0.11  -0.00  -0.02     0.00  -0.00   0.00
     2   1     0.00   0.00   0.00     0.98  -0.00   0.18     0.00  -0.00   0.00
     3   6     0.00  -0.00   0.00     0.03  -0.00   0.01    -0.00  -0.00  -0.00
     4   6    -0.00   0.00  -0.00    -0.00   0.00  -0.00    -0.00   0.00  -0.00
     5   8     0.00  -0.00   0.00     0.00   0.00  -0.00     0.00  -0.00   0.00
     6   8     0.00  -0.00   0.00     0.00  -0.00   0.00     0.00  -0.00  -0.00
     7   6     0.01   0.03  -0.06    -0.00   0.00   0.00    -0.00   0.00   0.00
     8   6     0.02   0.03  -0.05     0.00  -0.00   0.00     0.00  -0.00   0.00
     9   1    -0.23  -0.02   0.55     0.00   0.00  -0.00     0.00  -0.00  -0.00
    10   1     0.07  -0.36   0.15     0.00   0.00   0.00     0.00  -0.00   0.00
    11   1    -0.10   0.01  -0.02     0.00   0.00   0.00     0.00  -0.00   0.00
    12   1     0.08  -0.34   0.15    -0.00   0.00  -0.00    -0.00   0.00   0.00
    13   1    -0.23  -0.02   0.51    -0.00  -0.00  -0.00    -0.00   0.00  -0.00
    14   8    -0.00   0.00  -0.00     0.00   0.00   0.00    -0.01   0.02  -0.06
    15   1     0.00  -0.00   0.00    -0.00  -0.00  -0.00     0.10  -0.28   0.95

 -------------------
 - Thermochemistry -
 -------------------
 Temperature   298.150 Kelvin.  Pressure   1.00000 Atm.
 Atom     1 has atomic number  6 and mass  12.00000
 Atom     2 has atomic number  1 and mass   1.00783
 Atom     3 has atomic number  6 and mass  12.00000
 Atom     4 has atomic number  6 and mass  12.00000
 Atom     5 has atomic number  8 and mass  15.99491
 Atom     6 has atomic number  8 and mass  15.99491
 Atom     7 has atomic number  6 and mass  12.00000
 Atom     8 has atomic number  6 and mass  12.00000
 Atom     9 has atomic number  1 and mass   1.00783
 Atom    10 has atomic number  1 and mass   1.00783
 Atom    11 has atomic number  1 and mass   1.00783
 Atom    12 has atomic number  1 and mass   1.00783
 Atom    13 has atomic number  1 and mass   1.00783
 Atom    14 has atomic number  8 and mass  15.99491
 Atom    15 has atomic number  1 and mass   1.00783
 Molecular mass:   115.03952 amu.
 Principal axes and moments of inertia in atomic units:
                           1         2         3
     Eigenvalues --   522.023421383.993491559.66345
           X            0.99990   0.01211   0.00772
           Y           -0.01222   0.99982   0.01443
           Z           -0.00755  -0.01453   0.99987
 This molecule is an asymmetric top.
 Rotational symmetry number  1.
 Warning -- assumption of classical behavior for rotation
           may cause significant error
 Rotational temperatures (Kelvin)      0.16592     0.06258     0.05553
 Rotational constants (GHZ):           3.45720     1.30401     1.15714
    1 imaginary frequencies ignored.
 Zero-point vibrational energy     293771.8 (Joules/Mol)
                                   70.21314 (Kcal/Mol)
 Warning -- explicit consideration of  13 degrees of freedom as
           vibrations may cause significant error
 Vibrational temperatures:     56.97   155.78   184.52   222.50   279.64
          (Kelvin)            286.76   329.62   376.10   490.80   611.30
                              787.62   817.97   890.12  1053.81  1070.69
                             1118.41  1155.51  1290.11  1334.56  1550.11
                             1624.40  1732.09  1847.30  1937.43  2016.85
                             2060.26  2145.79  2161.74  2178.95  2664.23
                             3218.75  4425.20  4469.42  4532.26  4539.90
                             4567.80  5018.71  5461.29
 
 Zero-point correction=                           0.111892 (Hartree/Particle)
 Thermal correction to Energy=                    0.121492
 Thermal correction to Enthalpy=                  0.122436
 Thermal correction to Gibbs Free Energy=         0.076289
 Sum of electronic and zero-point Energies=           -420.094216
 Sum of electronic and thermal Energies=              -420.084615
 Sum of electronic and thermal Enthalpies=            -420.083671
 Sum of electronic and thermal Free Energies=         -420.129819
 
                     E (Thermal)             CV                S
                      KCal/Mol        Cal/Mol-Kelvin    Cal/Mol-Kelvin
 Total                   76.237             32.491             97.125
 Electronic               0.000              0.000              1.377
 Translational            0.889              2.981             40.136
 Rotational               0.889              2.981             28.512
 Vibrational             74.460             26.530             27.100
 Vibration     1          0.594              1.981              5.279
 Vibration     2          0.606              1.943              3.300
 Vibration     3          0.611              1.925              2.972
 Vibration     4          0.620              1.897              2.614
 Vibration     5          0.635              1.848              2.186
 Vibration     6          0.637              1.841              2.139
 Vibration     7          0.652              1.797              1.886
 Vibration     8          0.669              1.743              1.652
 Vibration     9          0.721              1.593              1.207
 Vibration    10          0.787              1.416              0.876
 Vibration    11          0.903              1.145              0.550
 Vibration    12          0.925              1.099              0.507
 Vibration    13          0.979              0.992              0.419
                       Q            Log10(Q)             Ln(Q)
 Total Bot       0.812131D-35        -35.090374        -80.798572
 Total V=0       0.237805D+17         16.376221         37.707642
 Vib (Bot)       0.220343D-48        -48.656901       -112.036656
 Vib (Bot)    1  0.522546D+01          0.718125          1.653544
 Vib (Bot)    2  0.189235D+01          0.277001          0.637818
 Vib (Bot)    3  0.159028D+01          0.201473          0.463909
 Vib (Bot)    4  0.130941D+01          0.117075          0.269574
 Vib (Bot)    5  0.102808D+01          0.012029          0.027697
 Vib (Bot)    6  0.100071D+01          0.000308          0.000710
 Vib (Bot)    7  0.860044D+00         -0.065479         -0.150772
 Vib (Bot)    8  0.742533D+00         -0.129284         -0.297688
 Vib (Bot)    9  0.543944D+00         -0.264446         -0.608909
 Vib (Bot)   10  0.411728D+00         -0.385389         -0.887391
 Vib (Bot)   11  0.287383D+00         -0.541540         -1.246941
 Vib (Bot)   12  0.271111D+00         -0.566853         -1.305227
 Vib (Bot)   13  0.236716D+00         -0.625773         -1.440896
 Vib (V=0)       0.645199D+03          2.809693          6.469558
 Vib (V=0)    1  0.574933D+01          0.759617          1.749083
 Vib (V=0)    2  0.245729D+01          0.390456          0.899059
 Vib (V=0)    3  0.216703D+01          0.335865          0.773357
 Vib (V=0)    4  0.190162D+01          0.279124          0.642708
 Vib (V=0)    5  0.164322D+01          0.215696          0.496659
 Vib (V=0)    6  0.161867D+01          0.209158          0.481604
 Vib (V=0)    7  0.149482D+01          0.174590          0.402009
 Vib (V=0)    8  0.139518D+01          0.144632          0.333026
 Vib (V=0)    9  0.123883D+01          0.093013          0.214170
 Vib (V=0)   10  0.114770D+01          0.059830          0.137763
 Vib (V=0)   11  0.107671D+01          0.032097          0.073906
 Vib (V=0)   12  0.106877D+01          0.028885          0.066510
 Vib (V=0)   13  0.105320D+01          0.022512          0.051837
 Electronic      0.200000D+01          0.301030          0.693147
 Translational   0.484981D+08          7.685724         17.697035
 Rotational      0.379991D+06          5.579773         12.847902
 ***** Axes restored to original set *****
 -------------------------------------------------------------------
 Center     Atomic                   Forces (Hartrees/Bohr)
 Number     Number              X              Y              Z
 -------------------------------------------------------------------
      1        6          -0.000790790   -0.000098697   -0.000505788
      2        1          -0.000029932    0.000424438    0.000111469
      3        6          -0.000630847   -0.009566560   -0.002585343
      4        6          -0.000087036   -0.002635471   -0.000682500
      5        8           0.001142934    0.000644484    0.000713317
      6        8          -0.000461168   -0.000051686    0.000215644
      7        6          -0.000227314    0.000434677    0.000129252
      8        6           0.000067707    0.000240830    0.000098644
      9        1          -0.000030996    0.000034494   -0.000001641
     10        1          -0.000008483    0.000037599   -0.000005067
     11        1           0.000005427    0.000002292   -0.000008924
     12        1           0.000016890    0.000027182    0.000026972
     13        1           0.000030594    0.000023624    0.000014109
     14        8           0.000777991    0.010479759    0.002295852
     15        1           0.000225022    0.000003036    0.000184004
 -------------------------------------------------------------------
 Cartesian Forces:  Max     0.010479759 RMS     0.002239642

 GradGradGradGradGradGradGradGradGradGradGradGradGradGradGradGradGradGrad
 Berny optimization.
 Search for a local minimum.
 Step number   1 out of a maximum of    2
 All quantities printed in internal units (Hartrees-Bohrs-Radians)
 Second derivative matrix not updated -- analytic derivatives used.
 ITU=  0
     Eigenvalues ---   -0.00028   0.00023   0.00152   0.00183   0.00324
     Eigenvalues ---    0.00522   0.00587   0.00990   0.01524   0.02211
     Eigenvalues ---    0.02528   0.03212   0.03489   0.05158   0.06368
     Eigenvalues ---    0.07609   0.08098   0.08909   0.09197   0.10226
     Eigenvalues ---    0.11461   0.14157   0.17059   0.17512   0.19856
     Eigenvalues ---    0.28807   0.29646   0.43778   0.49484   0.62745
     Eigenvalues ---    0.71056   0.76494   0.79398   0.86407   0.88583
     Eigenvalues ---    0.90824   0.95992   1.74907   2.66597
 Eigenvalue     1 is  -2.76D-04 should be greater than     0.000000 Eigenvector:
                          Z15       Z14       Z12       Y9        X15
   1                    0.46274   0.34764  -0.32252  -0.28392  -0.25053
                          Y13       Z2        Z10       Z1        Y5
   1                    0.24884  -0.24786   0.23722  -0.19343   0.17212
 Quadratic step=4.228D+00 exceeds max=3.000D-01 adjusted using Lamda=-2.647D-02.
 Angle between NR and scaled steps=  73.88 degrees.
 Angle between quadratic step and forces=   9.76 degrees.
 Linear search not attempted -- first point.
 B after Tr=     0.000578   -0.000901    0.001040
         Rot=    1.000000    0.000238   -0.000088   -0.000082 Ang=   0.03 deg.
 Variable       Old X    -DE/DX   Delta X   Delta X   Delta X     New X
                                 (Linear)    (Quad)   (Total)
    X1       -5.31628  -0.00079   0.00000  -0.00859  -0.00801  -5.32429
    Y1       -0.83558  -0.00010   0.00000  -0.02678  -0.02891  -0.86449
    Z1       -0.73336  -0.00051   0.00000  -0.01606  -0.01367  -0.74703
    X2       -7.29400  -0.00003   0.00000  -0.01084  -0.01032  -7.30432
    Y2       -0.83569   0.00042   0.00000   0.03024   0.02761  -0.80808
    Z2       -1.10687   0.00011   0.00000   0.00031   0.00302  -1.10385
    X3       -3.09036  -0.00063   0.00000  -0.00696  -0.00628  -3.09664
    Y3       -0.79069  -0.00957   0.00000  -0.18422  -0.18579  -0.97648
    Z3       -0.27919  -0.00259   0.00000  -0.04890  -0.04685  -0.32604
    X4       -0.42012  -0.00009   0.00000  -0.00248  -0.00165  -0.42176
    Y4       -1.16747  -0.00264   0.00000  -0.05750  -0.05833  -1.22580
    Z4        0.31387  -0.00068   0.00000  -0.01030  -0.00860   0.30527
    X5        0.28803   0.00114   0.00000   0.02211   0.02343   0.31146
    Y5       -2.14573   0.00064   0.00000   0.00310   0.00332  -2.14241
    Z5        2.22696   0.00071   0.00000   0.01278   0.01479   2.24175
    X6        1.05285  -0.00046   0.00000  -0.00922  -0.00886   1.04400
    Y6       -0.37974  -0.00005   0.00000  -0.01442  -0.01590  -0.39564
    Z6       -1.57041   0.00022   0.00000  -0.00013   0.00092  -1.56949
    X7        3.73579  -0.00023   0.00000  -0.00596  -0.00548   3.73031
    Y7       -0.65393   0.00043   0.00000   0.00630   0.00546  -0.64847
    Z7       -1.17142   0.00013   0.00000   0.00065   0.00134  -1.17008
    X8        4.73390   0.00007   0.00000  -0.00510  -0.00468   4.72922
    Y8        1.44630   0.00024   0.00000   0.00521   0.00532   1.45162
    Z8        0.49986   0.00010   0.00000   0.00146   0.00098   0.50084
    X9        4.53518  -0.00003   0.00000  -0.00612  -0.00598   4.52920
    Y9       -0.57327   0.00003   0.00000   0.00765   0.00604  -0.56723
    Z9       -3.06519  -0.00000   0.00000   0.00031   0.00082  -3.06437
   X10        4.09429  -0.00001   0.00000   0.00179   0.00271   4.09700
   Y10       -2.51065   0.00004   0.00000   0.00670   0.00630  -2.50435
   Z10       -0.35195  -0.00001   0.00000  -0.00070   0.00081  -0.35113
   X11        6.78018   0.00001   0.00000  -0.00466  -0.00417   6.77601
   Y11        1.26651   0.00000   0.00000   0.00139   0.00193   1.26844
   Z11        0.69206  -0.00001   0.00000  -0.00198  -0.00274   0.68933
   X12        4.31079   0.00002   0.00000  -0.00214  -0.00216   4.30863
   Y12        3.28637   0.00003   0.00000   0.00618   0.00583   3.29220
   Z12       -0.32787   0.00003   0.00000   0.00288   0.00159  -0.32628
   X13        3.88843   0.00003   0.00000  -0.00218  -0.00141   3.88702
   Y13        1.34362   0.00002   0.00000   0.00319   0.00406   1.34767
   Z13        2.37553   0.00001   0.00000   0.00215   0.00186   2.37740
   X14       -2.74664   0.00078   0.00000   0.01424   0.01437  -2.73226
   Y14        3.30207   0.01048   0.00000   0.20797   0.20699   3.50906
   Z14        0.72286   0.00230   0.00000   0.05155   0.05140   0.77426
   X15       -2.92637   0.00023   0.00000   0.01870   0.01847  -2.90790
   Y15        3.81859   0.00000   0.00000   0.01793   0.01606   3.83465
   Z15       -1.02964   0.00018   0.00000  -0.00540  -0.00567  -1.03531
         Item               Value     Threshold  Converged?
 Maximum Force            0.010480     0.000450     NO 
 RMS     Force            0.002240     0.000300     NO 
 Maximum Displacement     0.206992     0.001800     NO 
 RMS     Displacement     0.044711     0.001200     NO 
 Predicted change in Energy=-3.412745D-03
 GradGradGradGradGradGradGradGradGradGradGradGradGradGradGradGradGradGrad


 ----------------------------------------------------------------------

 Electric dipole moment (input orientation):
 (Debye = 10**-18 statcoulomb cm , SI units = C m)
                  (au)            (Debye)         (10**-30 SI)
   Tot        0.124109D+01      0.315455D+01      0.105224D+02
   x          0.614381D-01      0.156160D+00      0.520894D+00
   y          0.303105D+00      0.770416D+00      0.256983D+01
   z         -0.120194D+01     -0.305503D+01     -0.101905D+02

 Dipole polarizability, Alpha (input orientation).
 (esu units = cm**3 , SI units = C**2 m**2 J**-1)
 Alpha(0;0):
               (au)            (10**-24 esu)      (10**-40 SI)
   iso        0.716507D+02      0.106175D+02      0.118136D+02
   aniso      0.323204D+02      0.478939D+01      0.532891D+01
   xx         0.913934D+02      0.135431D+02      0.150687D+02
   yx         0.447509D+01      0.663139D+00      0.737842D+00
   yy         0.652541D+02      0.966967D+01      0.107590D+02
   zx         0.483202D+01      0.716031D+00      0.796692D+00
   zy        -0.649405D+00     -0.962318D-01     -0.107072D+00
   zz         0.583045D+02      0.863983D+01      0.961311D+01

 ----------------------------------------------------------------------

 Dipole orientation:
     6         -5.34083694          0.95671720          0.24298810
     1         -7.33457752          1.03589368          0.50678058
     6         -3.09547883          0.81593311         -0.07570872
     6         -0.39688724          1.05286266         -0.60989128
     8          0.41108814          1.53860782         -2.66648993
     8          0.97613468          0.75823012          1.48024669
     6          3.67716852          0.94315309          1.15969458
     6          4.74386868         -1.49548047          0.10346842
     1          4.38132044          1.33234371          3.05299417
     1          4.08718662          2.54567857         -0.06963564
     1          6.79821859         -1.35550988         -0.02528057
     1          4.26900512         -3.08023922          1.33353462
     1          3.99293626         -1.85918409         -1.77996227
     8         -2.72771483         -3.39542491         -0.02958294
     1         -2.99714967         -3.46939406          1.78488242

 Electric dipole moment (dipole orientation):
 (Debye = 10**-18 statcoulomb cm , SI units = C m)
                  (au)            (Debye)         (10**-30 SI)
   Tot        0.124109D+01      0.315455D+01      0.105224D+02
   x          0.000000D+00      0.000000D+00      0.000000D+00
   y          0.000000D+00      0.000000D+00      0.000000D+00
   z          0.124109D+01      0.315455D+01      0.105224D+02

 Dipole polarizability, Alpha (dipole orientation).
 (esu units = cm**3 , SI units = C**2 m**2 J**-1)
 Alpha(0;0):
               (au)            (10**-24 esu)      (10**-40 SI)
   iso        0.716507D+02      0.106175D+02      0.118136D+02
   aniso      0.323204D+02      0.478939D+01      0.532891D+01
   xx         0.917346D+02      0.135937D+02      0.151250D+02
   yx        -0.523685D+01     -0.776021D+00     -0.863440D+00
   yy         0.644652D+02      0.955276D+01      0.106289D+02
   zx        -0.195789D+01     -0.290129D+00     -0.322812D+00
   zy        -0.250218D+01     -0.370784D+00     -0.412553D+00
   zz         0.587522D+02      0.870618D+01      0.968693D+01

 ----------------------------------------------------------------------
 1\1\GINC-AJ\Freq\UM062X\6-311++G(d,p)\C5H7O3(2)\AAYUSH\23-Jun-2025\0\\
 # freq 6-311++g(d,p) m062x\\Title Card Required\\0,2\C,-2.813256,-0.44
 2171,-0.38808\H,-3.859817,-0.442228,-0.58573\C,-1.635349,-0.418414,-0.
 147739\C,-0.222317,-0.6178,0.166093\O,0.152417,-1.135473,1.178456\O,0.
 557146,-0.200949,-0.831024\C,1.976896,-0.346047,-0.619889\C,2.505072,0
 .765349,0.264517\H,2.399915,-0.30336,-1.622027\H,2.166603,-1.32858,-0.
 186243\H,3.587916,0.670208,0.366225\H,2.28117,1.739071,-0.173501\H,2.0
 5767,0.711011,1.257078\O,-1.453458,1.74738,0.382523\H,-1.548568,2.0207
 1,-0.54486\\Version=ES64L-G16RevA.03\State=2-A\HF=-420.2061073\S2=0.75
 8482\S2-1=0.\S2A=0.750044\RMSD=1.828e-09\RMSF=2.240e-03\ZeroPoint=0.11
 18918\Thermal=0.121492\Dipole=0.0614381,0.303105,-1.2019427\DipoleDeri
 v=-0.2614357,0.2174486,-0.001661,0.0307591,-0.1778601,0.0076713,-0.060
 0166,0.0359062,-0.1459939,0.2763625,0.0181763,0.0092678,0.0037894,0.20
 16459,-0.0040334,0.0210213,-0.0037288,0.222301,-0.5644964,-0.2151695,-
 0.0939142,-0.0419073,-0.3668576,-0.0256955,-0.0400294,-0.0949168,-0.12
 7688,2.1536016,-0.1639801,-0.0764078,0.1457418,0.7480212,-0.5295806,-0
 .4453827,-0.6026202,1.490661,-0.8256493,0.1668929,-0.2142013,0.0088095
 ,-0.5476523,0.3227777,-0.0118401,0.3719882,-0.9361474,-1.6230631,-0.17
 19309,0.3344846,-0.1922854,-0.412076,0.1797817,0.4916793,0.2023453,-0.
 8113685,0.9936404,0.0987761,-0.0588226,0.0139787,0.2995587,0.0768186,0
 .0565791,0.0325006,0.3124354,-0.0648679,-0.0323146,0.0299703,-0.047205
 4,-0.0191833,-0.0850005,-0.0283656,-0.0554488,-0.0391038,-0.0240702,-0
 .0110337,0.0265348,-0.0212924,0.0670569,-0.002735,0.0661401,-0.0286586
 ,-0.0886847,-0.0182542,-0.0392197,0.0130907,0.0328315,-0.068294,0.0022
 962,-0.0581492,0.0417944,0.0538487,-0.1304594,-0.000653,-0.0191747,0.0
 137486,0.0650301,-0.0046544,-0.019425,-0.0177273,0.0925211,0.0790416,0
 .0508706,-0.0333214,0.0044799,-0.0750872,0.0294323,-0.032297,0.0623004
 ,0.0225863,0.0783287,0.003381,0.0691721,-0.010963,0.0485556,0.0114819,
 0.0465836,-0.0188695,-0.0290121,-0.369899,0.102443,0.0198463,0.0696945
 ,-0.115554,-0.0055383,0.0443169,0.1106671,-0.15331,0.3012203,-0.023686
 9,-0.0048637,-0.0101794,0.352696,0.0269782,-0.0308148,-0.0355321,0.136
 9547\Polar=91.3934233,4.4750862,65.2541377,4.8320189,-0.6494047,58.304
 4887\Quadrupole=8.0381731,-2.8058497,-5.2323234,0.5359739,2.2448117,-0
 .3645269\PG=C01 [X(C5H7O3)]\NImag=1\\1.48034311,0.01113035,0.06024754,
 0.28470515,0.00365999,0.11231487,-0.41028266,-0.00043819,-0.07326202,0
 .40077800,0.00275455,-0.02712859,-0.00006451,0.00005876,0.01656705,-0.
 07196021,-0.00074040,-0.04011961,0.07293667,0.00006121,0.03002558,-1.0
 7008801,-0.01088182,-0.20956270,0.00955091,-0.00294533,0.00035137,1.39
 363167,0.00940314,-0.02753378,0.00322659,0.00054823,0.00658881,0.00125
 226,-0.03838472,0.06498004,-0.20743849,-0.00062827,-0.07549589,0.00112
 907,0.00054611,0.00488930,0.25424807,-0.02950779,0.15188457,0.01348381
 ,0.00262285,0.00198838,-0.00096567,0.00050838,-0.00197853,-0.25986226,
 0.01449379,-0.03961080,0.67307906,-0.00839395,0.00152988,-0.00174042,-
 0.00032190,0.00501173,-0.00001647,0.02462367,-0.06329088,0.00069662,-0
 .08078537,0.36448142,-0.00239719,0.00100003,0.00267209,-0.00083636,0.0
 0012977,0.00533661,-0.02423290,-0.00208982,-0.06514135,0.12189258,-0.3
 0478188,0.82111455,-0.00495892,0.00015139,-0.00058357,0.00032226,-0.00
 064828,0.00157729,-0.02308798,0.02466142,-0.04393659,-0.18458427,0.101
 06701,-0.19292927,0.18330501,0.00120324,0.00075740,-0.00021075,0.00010
 165,-0.00058297,-0.00067981,0.01947227,0.00833227,0.02186082,0.0949604
 9,-0.20828858,0.25069911,-0.10906635,0.19740404,0.00017496,-0.00056401
 ,0.00097230,0.00006594,-0.00054881,0.00019108,-0.03747482,0.02188940,-
 0.01975568,-0.18388720,0.25061971,-0.56873144,0.20595517,-0.32161959,0
 .67213398,-0.00711404,0.00068429,-0.00241483,0.00087081,0.00043888,-0.
 00099603,-0.05292551,-0.00887767,0.03395142,-0.18747998,-0.03695251,0.
 08795234,0.02848927,-0.01005930,0.02529261,0.49338370,0.00022236,0.000
 77214,0.00030179,0.00005393,-0.00039104,0.00009453,-0.00264902,0.01005
 348,0.00091949,-0.02554145,-0.09367151,0.05867310,-0.01159976,0.006558
 59,0.05228140,0.02402426,0.14402627,0.00049471,0.00008608,0.00018722,-
 0.00012740,-0.00000727,-0.00055716,0.01013893,0.00080128,0.00523981,0.
 06649478,0.06044607,-0.19996624,0.02495949,0.05196154,-0.08334178,-0.0
 8779908,-0.12536521,0.36261814,0.00198451,-0.00037217,0.00068045,-0.00
 035126,0.00004171,-0.00003528,0.00279447,-0.00136129,-0.00040896,-0.05
 261071,-0.01150699,0.03408719,-0.00126145,0.00910908,-0.01799631,-0.17
 812324,0.01644841,-0.01406137,0.44988017,0.00016544,-0.00017271,-0.000
 17595,0.00004559,-0.00015345,-0.00009324,-0.00134368,0.00392479,0.0031
 3698,-0.01205628,0.00561821,-0.00905825,0.00200874,-0.00559992,0.00025
 099,0.02537304,-0.07509037,0.01575290,-0.00989099,0.57908025,0.0010966
 2,-0.00017575,0.00052981,0.00000933,-0.00014538,0.00019048,0.00385727,
 0.00302088,-0.00261990,0.03396404,-0.00674342,0.00893507,0.00149794,-0
 .00105566,-0.00395976,-0.03528416,0.01587782,-0.09131823,-0.05934965,-
 0.04865882,0.61778567,-0.00028988,0.00001077,-0.00010162,0.00008724,-0
 .00005321,-0.00003897,-0.00066103,0.00129128,0.00109361,0.00171875,0.0
 0090767,-0.00867204,0.00074161,-0.00218007,0.00221190,-0.03785995,-0.0
 3055493,-0.02319757,-0.08176077,-0.02248991,-0.01436704,0.57526866,0.0
 0020050,-0.00000310,0.00008596,-0.00001299,0.00000169,-0.00001139,-0.0
 0017400,-0.00038791,-0.00033906,-0.00094941,-0.00119702,0.00300963,-0.
 00091916,0.00034248,-0.00165472,0.00095027,0.00732307,0.00101369,-0.03
 277433,-0.16328132,-0.06075730,-0.02676752,0.53746157,-0.00000388,-0.0
 0006216,-0.00002583,0.00000233,0.00000050,0.00000016,-0.00034658,0.000
 29106,0.00009122,0.00133564,0.00026364,0.00304473,-0.00141439,-0.00134
 766,-0.00105339,-0.00723169,-0.00176778,-0.00123854,-0.02112713,-0.059
 47108,-0.13178251,-0.02253424,-0.03965884,0.55763245,-0.00059380,0.000
 10940,-0.00024727,0.00004211,0.00003431,-0.00003319,-0.00116994,-0.000
 72345,0.00101588,-0.00382484,0.00463093,-0.00487854,0.00160909,-0.0008
 5007,0.00118372,-0.03339592,-0.00436325,0.03491621,-0.08074952,-0.0031
 9671,0.08773672,0.00689553,0.00121754,-0.01198463,0.10699223,-0.000004
 52,-0.00002702,-0.00000086,0.00001162,-0.00001011,0.00000508,0.0001897
 1,0.00026497,-0.00000836,0.00051701,-0.00133453,0.00253330,-0.00196247
 ,0.00083523,-0.00039742,0.00428248,0.00116650,-0.00456918,-0.00590355,
 -0.05450908,0.01569822,0.00963152,0.00120570,-0.02525052,0.00630401,0.
 05277057,-0.00003676,0.00005003,-0.00003476,-0.00001614,0.00000512,-0.
 00001965,-0.00014287,-0.00031773,0.00017633,-0.00236325,0.00050676,-0.
 00036429,0.00111397,-0.00047356,0.00075318,-0.00448892,0.00026582,0.00
 832968,0.10095475,0.01437669,-0.28986848,0.00572508,0.00115449,-0.0161
 5750,-0.10255627,-0.01228703,0.30605466,-0.00013036,0.00007533,-0.0000
 1023,0.00002790,0.00004302,-0.00000396,-0.00020003,-0.00078608,-0.0000
 9104,0.00238878,0.00499227,-0.00793786,0.00051099,-0.00167689,0.003613
 64,-0.02754047,0.03339014,-0.01376302,-0.05465337,0.02992308,-0.011367
 75,0.00394164,-0.01153320,0.00551685,0.00403066,-0.01153393,0.00381252
 ,0.07174938,-0.00011057,0.00004354,-0.00002734,-0.00000745,0.00000873,
 0.00001980,0.00019038,-0.00023016,-0.00025482,-0.00095897,-0.00055556,
 0.00350503,-0.00250981,0.00078757,-0.00056147,0.00642216,0.00132781,0.
 00007163,0.03978052,-0.27128103,0.09710958,0.00244940,-0.02095846,0.00
 929950,-0.00118702,0.00135453,-0.00026504,-0.04207690,0.29025735,-0.00
 011668,-0.00004444,-0.00002303,0.00001994,-0.00001407,0.00000720,-0.00
 028761,0.00051096,-0.00000077,0.00252332,-0.00053115,0.00059942,0.0011
 1794,-0.00040468,-0.00120226,-0.00574715,0.00265398,-0.00167838,-0.017
 87115,0.10041942,-0.09652341,0.00370642,-0.02006347,0.00915283,-0.0047
 9210,0.02586177,-0.00952370,0.02220314,-0.10608097,0.10001630,-0.00008
 258,0.00000089,-0.00002320,0.00003581,-0.00000005,0.00000838,-0.000159
 31,0.00017977,0.00005902,0.00144123,0.00076139,-0.00126950,-0.00006655
 ,-0.00053113,0.00034920,-0.00078039,-0.00282250,-0.00095470,-0.0108272
 9,0.00338387,0.00110435,-0.31433698,0.02373047,-0.02494790,0.00028310,
 -0.00008176,-0.00037245,0.00022439,-0.00043613,0.00010530,0.34066580,-
 0.00018562,-0.00000442,-0.00006559,0.00001472,-0.00000561,-0.00000605,
 -0.00008813,0.00037228,0.00035498,0.00085149,0.00049919,-0.00224767,0.
 00012442,-0.00059239,0.00071913,-0.00557664,-0.00413339,-0.00314780,-0
 .02304928,0.00440700,0.00116065,0.02533347,-0.04961295,0.00133863,0.00
 057389,0.00089148,0.00002115,0.00056433,0.00027548,0.00103392,-0.02559
 476,0.04992614,-0.00008105,0.00003212,-0.00000939,0.00001025,-0.000005
 03,-0.00000652,-0.00011252,0.00003399,0.00017682,0.00044714,0.00060472
 ,-0.00314476,0.00063082,0.00002770,0.00125102,-0.00503100,-0.00442456,
 -0.00105078,-0.01770729,0.00530972,-0.00123823,-0.02349069,0.00091293,
 -0.04860925,0.00055222,0.00079469,0.00004307,0.00032921,0.00008121,0.0
 0066768,0.02797517,-0.00037370,0.04891391,-0.00005642,0.00001145,-0.00
 002048,-0.00002394,-0.00000376,0.00000135,0.00013725,0.00010284,0.0000
 1918,-0.00028224,-0.00071038,0.00137590,-0.00052077,0.00011319,-0.0006
 7280,0.00219445,0.00058160,0.00055080,0.00060437,-0.01230063,0.0046033
 9,-0.05875696,0.05180717,-0.02243384,0.00013398,0.00080746,0.00020361,
 -0.00029661,-0.00208009,-0.00153007,-0.00476563,0.02908382,-0.01306381
 ,0.05889822,-0.00013075,0.00002122,-0.00003390,-0.00000129,-0.00000397
 ,0.00000573,0.00002595,0.00007356,0.00002413,0.00012012,-0.00056823,0.
 00064909,-0.00028819,0.00022172,-0.00039774,0.00053198,0.00266806,0.00
 052139,0.00605135,-0.02446087,0.01024396,0.04979279,-0.26160359,0.0992
 5660,0.00015012,0.00094257,-0.00009634,-0.00190365,-0.00197127,-0.0037
 5512,0.00015475,-0.00082527,0.00002986,-0.05420632,0.28585508,0.000100
 87,-0.00000021,0.00001065,0.00000180,0.00000092,0.00000084,-0.00003333
 ,-0.00021122,-0.00002480,-0.00044087,0.00045486,-0.00032336,0.00053862
 ,0.00028541,0.00042941,0.00176982,0.00144246,0.00059589,0.00490518,-0.
 02168924,0.00884281,-0.02339602,0.10148652,-0.09519971,0.00062618,0.00
 055993,0.00101331,-0.00223929,-0.00314721,-0.00225123,0.00004651,0.001
 47150,-0.00234148,0.02641292,-0.10630891,0.09929187,0.00007453,-0.0000
 3231,0.00002903,-0.00003108,0.00000323,-0.00000707,0.00008073,0.000021
 79,-0.00000298,-0.00094905,-0.00033870,-0.00120895,-0.00065983,-0.0007
 8933,0.00060174,0.00134759,0.00107223,0.00096471,0.00452271,0.00048409
 ,-0.01332092,-0.09503798,-0.00486467,0.10522008,-0.00018860,-0.0023139
 2,-0.00187618,0.00002847,0.00054612,0.00066874,-0.01154588,-0.00206588
 ,0.02948060,0.00271574,-0.00023532,-0.00821460,0.09945773,0.00015960,-
 0.00002536,0.00002614,-0.00000755,0.00001035,-0.00001315,-0.00011287,-
 0.00029592,0.00010073,-0.00092708,0.00133764,-0.00245638,0.00045672,-0
 .00100706,0.00152959,-0.00005239,0.00087321,0.00286716,0.01329203,0.00
 097144,-0.02599484,-0.00729598,-0.04925101,0.01716859,-0.00261089,-0.0
 0355842,-0.00291004,0.00059480,0.00095372,0.00039812,0.00124443,-0.001
 19654,-0.00300810,-0.01323267,-0.00036139,0.02564786,0.00858577,0.0515
 6449,0.00005051,0.00001340,0.00003404,-0.00002303,0.00001402,-0.000012
 70,0.00002108,-0.00024689,0.00000661,-0.00075996,0.00014899,-0.0017572
 8,0.00117009,0.00087523,0.00098910,-0.00037615,0.00084688,0.00184257,0
 .00844311,-0.00002338,-0.01904119,0.10302023,0.01467198,-0.27569211,-0
 .00158601,-0.00294712,-0.00040849,-0.00019110,0.00030727,0.00075064,-0
 .00209832,-0.00022306,0.00529945,0.00466086,-0.00008164,-0.01011905,-0
 .11241871,-0.01335318,0.29814896,-0.00185619,-0.00258715,-0.00153021,0
 .00007147,0.00032095,0.00009492,0.00303661,-0.00018928,-0.00040533,-0.
 00504908,-0.00000554,0.00201390,0.00091901,0.00038852,-0.00025687,0.00
 000848,0.00344544,0.00017181,0.00098289,-0.00015007,-0.00031286,-0.000
 04976,-0.00019581,0.00007484,-0.00003639,0.00000455,0.00003561,-0.0001
 8245,0.00006818,-0.00002570,-0.00014488,0.00014994,0.00002825,0.000246
 87,0.00012316,-0.00017983,0.00016240,-0.00012487,0.00012325,0.00872224
 ,-0.01663318,-0.00793163,-0.00550310,0.00025894,-0.00000887,0.00016288
 ,0.01248789,0.00091914,0.00040950,0.00461417,-0.00791547,-0.00136849,-
 0.00051391,0.00061689,-0.00038139,0.00028281,-0.00179964,-0.00023140,-
 0.00093433,0.00031920,0.00038296,0.00006780,-0.00009724,-0.00003689,0.
 00000826,0.00002673,-0.00003527,0.00011448,-0.00001075,0.00008682,0.00
 005865,0.00007043,0.00003411,0.00002534,0.00002283,-0.00004968,-0.0000
 9730,-0.00007390,-0.00000594,-0.01309401,0.06096648,-0.00565738,-0.001
 57903,-0.00153571,0.00001596,0.00000775,0.00004655,0.00487114,0.004967
 30,0.00005333,0.00235764,-0.00048718,-0.00263833,-0.00031398,0.0003461
 0,0.00112424,-0.00024539,-0.00201406,0.00110176,-0.00040514,-0.0001551
 5,0.00005243,0.00000625,0.00016497,-0.00014194,-0.00001685,0.00003675,
 0.00002238,0.00014503,-0.00006055,0.00001915,-0.00000060,-0.00003009,0
 .00004814,-0.00006990,-0.00008273,0.00003728,0.00010158,-0.00001198,-0
 .00000640,0.04934427,-0.13207370,0.47512488,-0.00043311,-0.00048509,0.
 00035311,-0.00013191,-0.00055315,0.00008326,-0.00107756,-0.00037978,0.
 00037795,0.00349646,0.00203239,-0.00295931,-0.00075747,-0.00019530,0.0
 0083912,-0.00107479,-0.00170748,0.00121169,-0.00043153,0.00004441,0.00
 013272,0.00009988,0.00028514,-0.00012545,-0.00002767,0.00005180,0.0000
 0730,0.00010110,-0.00008983,0.00002568,0.00005917,-0.00013577,0.000032
 71,-0.00022830,-0.00018471,0.00010205,0.00002252,0.00003095,-0.0000358
 8,-0.00683121,0.01335439,-0.05013264,0.00721445,0.00021941,-0.00054510
 ,0.00052196,-0.00030408,0.00009627,-0.00004097,-0.00041029,-0.00377070
 ,0.00268894,0.00253023,-0.00165628,0.00180343,-0.00096178,0.00021473,-
 0.00116508,-0.00147165,0.00031682,-0.00020089,0.00106983,0.00022787,0.
 00003710,-0.00014308,0.00005811,-0.00002359,-0.00009710,-0.00001912,0.
 00000494,-0.00018680,-0.00000150,-0.00007110,-0.00004788,-0.00007141,-
 0.00004965,0.00000097,-0.00001044,0.00005700,0.00002421,0.00005874,0.0
 0000344,0.01184599,-0.04510420,0.13097161,-0.01206798,0.05020623,0.001
 06882,-0.00104738,0.00052324,0.00007366,0.00001968,0.00002785,-0.00129
 455,-0.00362027,0.00052040,-0.00196291,0.00055917,0.00036456,0.0006164
 7,-0.00026422,0.00019998,0.00064820,0.00021433,-0.00076396,-0.00010839
 ,0.00007840,0.00001542,0.00003470,-0.00001539,-0.00002061,0.00006392,-
 0.00002925,-0.00001576,-0.00001614,0.00000337,-0.00001044,0.00001875,-
 0.00000599,0.00000034,-0.00003711,0.00002564,0.00003756,-0.00001706,0.
 00000947,-0.00003417,-0.04917607,0.13860957,-0.47330776,0.05008770,-0.
 13453713,0.47246336\\0.00079079,0.00009870,0.00050579,0.00002993,-0.00
 042444,-0.00011147,0.00063085,0.00956656,0.00258534,0.00008704,0.00263
 547,0.00068250,-0.00114293,-0.00064448,-0.00071332,0.00046117,0.000051
 69,-0.00021564,0.00022731,-0.00043468,-0.00012925,-0.00006771,-0.00024
 083,-0.00009864,0.00003100,-0.00003449,0.00000164,0.00000848,-0.000037
 60,0.00000507,-0.00000543,-0.00000229,0.00000892,-0.00001689,-0.000027
 18,-0.00002697,-0.00003059,-0.00002362,-0.00001411,-0.00077799,-0.0104
 7976,-0.00229585,-0.00022502,-0.00000304,-0.00018400\\\@


 YOU SHOULDN'T LET PEOPLE DRIVE YOU CRAZY
 WHEN YOU KNOW IT'S WITHIN WALKING DISTANCE.
 Job cpu time:       0 days  0 hours 58 minutes 19.0 seconds.
 Elapsed time:       0 days  0 hours  2 minutes 25.8 seconds.
 File lengths (MBytes):  RWF=    153 Int=      0 D2E=      0 Chk=      9 Scr=      1
 Normal termination of Gaussian 16 at Mon Jun 23 05:04:09 2025.
