 Entering Gaussian System, Link 0=g16
 Initial command:
 /opt/g16/l1.exe "/home/aayush/scratches/g16/Gau-32861.inp" -scrdir="/home/aayush/scratches/g16/"
 Entering Link 1 = /opt/g16/l1.exe PID=     32864.
  
 Copyright (c) 1988,1990,1992,1993,1995,1998,2003,2009,2016,
            Gaussian, Inc.  All Rights Reserved.
  
 This is part of the Gaussian(R) 16 program.  It is based on
 the Gaussian(R) 09 system (copyright 2009, Gaussian, Inc.),
 the Gaussian(R) 03 system (copyright 2003, Gaussian, Inc.),
 the Gaussian(R) 98 system (copyright 1998, Gaussian, Inc.),
 the Gaussian(R) 94 system (copyright 1995, Gaussian, Inc.),
 the Gaussian 92(TM) system (copyright 1992, Gaussian, Inc.),
 the Gaussian 90(TM) system (copyright 1990, Gaussian, Inc.),
 the Gaussian 88(TM) system (copyright 1988, Gaussian, Inc.),
 the Gaussian 86(TM) system (copyright 1986, Carnegie Mellon
 University), and the Gaussian 82(TM) system (copyright 1983,
 Carnegie Mellon University). Gaussian is a federally registered
 trademark of Gaussian, Inc.
  
 This software contains proprietary and confidential information,
 including trade secrets, belonging to Gaussian, Inc.
  
 This software is provided under written license and may be
 used, copied, transmitted, or stored only in accord with that
 written license.
  
 The following legend is applicable only to US Government
 contracts under FAR:
  
                    RESTRICTED RIGHTS LEGEND
  
 Use, reproduction and disclosure by the US Government is
 subject to restrictions as set forth in subparagraphs (a)
 and (c) of the Commercial Computer Software - Restricted
 Rights clause in FAR 52.227-19.
  
 Gaussian, Inc.
 340 Quinnipiac St., Bldg. 40, Wallingford CT 06492
  
  
 ---------------------------------------------------------------
 Warning -- This program may not be used in any manner that
 competes with the business of Gaussian, Inc. or will provide
 assistance to any competitor of Gaussian, Inc.  The licensee
 of this program is prohibited from giving any competitor of
 Gaussian, Inc. access to this program.  By using this program,
 the user acknowledges that Gaussian, Inc. is engaged in the
 business of creating and licensing software in the field of
 computational chemistry and represents and warrants to the
 licensee that it is not a competitor of Gaussian, Inc. and that
 it will not use this program in any manner prohibited above.
 ---------------------------------------------------------------
  

 Cite this work as:
 Gaussian 16, Revision A.03,
 M. J. Frisch, G. W. Trucks, H. B. Schlegel, G. E. Scuseria, 
 M. A. Robb, J. R. Cheeseman, G. Scalmani, V. Barone, 
 G. A. Petersson, H. Nakatsuji, X. Li, M. Caricato, A. V. Marenich, 
 J. Bloino, B. G. Janesko, R. Gomperts, B. Mennucci, H. P. Hratchian, 
 J. V. Ortiz, A. F. Izmaylov, J. L. Sonnenberg, D. Williams-Young, 
 F. Ding, F. Lipparini, F. Egidi, J. Goings, B. Peng, A. Petrone, 
 T. Henderson, D. Ranasinghe, V. G. Zakrzewski, J. Gao, N. Rega, 
 G. Zheng, W. Liang, M. Hada, M. Ehara, K. Toyota, R. Fukuda, 
 J. Hasegawa, M. Ishida, T. Nakajima, Y. Honda, O. Kitao, H. Nakai, 
 T. Vreven, K. Throssell, J. A. Montgomery, Jr., J. E. Peralta, 
 F. Ogliaro, M. J. Bearpark, J. J. Heyd, E. N. Brothers, K. N. Kudin, 
 V. N. Staroverov, T. A. Keith, R. Kobayashi, J. Normand, 
 K. Raghavachari, A. P. Rendell, J. C. Burant, S. S. Iyengar, 
 J. Tomasi, M. Cossi, J. M. Millam, M. Klene, C. Adamo, R. Cammi, 
 J. W. Ochterski, R. L. Martin, K. Morokuma, O. Farkas, 
 J. B. Foresman, and D. J. Fox, Gaussian, Inc., Wallingford CT, 2016.
 
 ******************************************
 Gaussian 16:  ES64L-G16RevA.03 25-Dec-2016
                29-Aug-2025 
 ******************************************
 %chk=ethyl_propiolate_non_planar.chk
 %mem=12GB
 %nprocshared=24
 Will use up to   24 processors via shared memory.
 --------------------------
 # ccsd(t)/6-311++g(d,p) sp
 --------------------------
 1/38=1,172=1/1;
 2/12=2,17=6,18=5,40=1/2;
 3/5=4,6=6,7=1111,11=9,25=1,30=1/1,2,3;
 4//1;
 5/5=2,38=5/2;
 8/6=4,9=120000,10=2/1,4;
 9/5=7,14=2/13;
 6/7=2,8=2,9=2,10=2/1;
 99/5=1,9=1/99;
 -------------------
 Title Card Required
 -------------------
 Symbolic Z-matrix:
 Charge =  0 Multiplicity = 2
 C                     2.74038  -0.4107    0.41519 
 H                     3.78288  -0.4562    0.63052 
 C                     1.56782  -0.25286   0.13451 
 C                     0.15895  -0.57429  -0.14172 
 O                    -0.20301  -1.14729  -1.12737 
 O                    -0.62175  -0.15163   0.8491 
 C                    -2.04119  -0.30303   0.63901 
 C                    -2.56395   0.7844   -0.27846 
 H                    -2.46642  -0.23058   1.63837 
 H                    -2.23128  -1.29745   0.23378 
 H                    -3.64658   0.68807  -0.38108 
 H                    -2.33885   1.76961   0.1321 
 H                    -2.11376   0.70145  -1.26792 
 O                     1.40203   1.6639   -0.39175 
 H                     1.4952    2.03975   0.49729 
 
                          Input orientation:                          
 ---------------------------------------------------------------------
 Center     Atomic      Atomic             Coordinates (Angstroms)
 Number     Number       Type             X           Y           Z
 ---------------------------------------------------------------------
      1          6           0        2.740377   -0.410698    0.415190
      2          1           0        3.782879   -0.456200    0.630516
      3          6           0        1.567817   -0.252862    0.134512
      4          6           0        0.158950   -0.574287   -0.141719
      5          8           0       -0.203005   -1.147288   -1.127369
      6          8           0       -0.621746   -0.151629    0.849096
      7          6           0       -2.041188   -0.303031    0.639007
      8          6           0       -2.563947    0.784401   -0.278465
      9          1           0       -2.466415   -0.230577    1.638366
     10          1           0       -2.231280   -1.297451    0.233783
     11          1           0       -3.646580    0.688066   -0.381079
     12          1           0       -2.338845    1.769615    0.132100
     13          1           0       -2.113761    0.701451   -1.267921
     14          8           0        1.402031    1.663905   -0.391751
     15          1           0        1.495204    2.039755    0.497290
 ---------------------------------------------------------------------
                    Distance matrix (angstroms):
                    1          2          3          4          5
     1  C    0.000000
     2  H    1.065479   0.000000
     3  C    1.215973   2.279005   0.000000
     4  C    2.645879   3.707176   1.471232   0.000000
     5  O    3.403755   4.410786   2.351202   1.196180   0.000000
     6  O    3.399892   4.420550   2.305442   1.330353   2.252353
     7  C    4.788011   5.826087   3.644441   2.350260   2.685474
     8  C    5.481357   6.530508   4.279946   3.046129   3.166403
     9  H    5.351569   6.334062   4.305473   3.190514   3.689536
    10  H    5.053376   6.085656   3.941340   2.525305   2.447281
    11  H    6.529513   7.584822   5.323637   4.016577   3.972868
    12  H    5.534655   6.532854   4.399139   3.436253   3.828368
    13  H    5.256652   6.301951   4.053585   2.839199   2.662439
    14  O    2.597364   3.347882   1.994601   2.572405   3.319651
    15  H    2.749894   3.388362   2.322278   3.004517   3.959883
                    6          7          8          9         10
     6  O    0.000000
     7  C    1.442871   0.000000
     8  C    2.433041   1.515764   0.000000
     9  H    2.007980   1.088479   2.171160   0.000000
    10  H    2.069328   1.090510   2.169602   1.779427   0.000000
    11  H    3.371652   2.144792   1.091744   2.512937   2.514639
    12  H    2.674638   2.154395   1.090817   2.507166   3.070636
    13  H    2.726832   2.156531   1.090216   3.072384   2.502905
    14  O    2.988568   4.097201   4.063907   4.761860   4.728834
    15  H    3.067150   4.244384   4.319076   4.706473   5.009298
                   11         12         13         14         15
    11  H    0.000000
    12  H    1.772927   0.000000
    13  H    1.770933   1.775302   0.000000
    14  O    5.142067   3.778855   3.748971   0.000000
    15  H    5.388556   3.860864   4.234579   0.969710   0.000000
 Stoichiometry    C5H7O3(2)
 Framework group  C1[X(C5H7O3)]
 Deg. of freedom    39
 Full point group                 C1      NOp   1
 Largest Abelian subgroup         C1      NOp   1
 Largest concise Abelian subgroup C1      NOp   1
                         Standard orientation:                         
 ---------------------------------------------------------------------
 Center     Atomic      Atomic             Coordinates (Angstroms)
 Number     Number       Type             X           Y           Z
 ---------------------------------------------------------------------
      1          6           0       -2.801500   -0.436857   -0.403157
      2          1           0       -3.844002   -0.482359   -0.618483
      3          6           0       -1.628940   -0.279021   -0.122479
      4          6           0       -0.220073   -0.600446    0.153752
      5          8           0        0.141882   -1.173447    1.139402
      6          8           0        0.560623   -0.177788   -0.837063
      7          6           0        1.980065   -0.329190   -0.626974
      8          6           0        2.502824    0.758242    0.290498
      9          1           0        2.405292   -0.256736   -1.626333
     10          1           0        2.170157   -1.323610   -0.221750
     11          1           0        3.585457    0.661907    0.393112
     12          1           0        2.277722    1.743456   -0.120067
     13          1           0        2.052638    0.675292    1.279954
     14          8           0       -1.463154    1.637746    0.403784
     15          1           0       -1.556327    2.013596   -0.485257
 ---------------------------------------------------------------------
 Rotational constants (GHZ):           3.6350524           1.3085613           1.1764377
 Standard basis: 6-311++G(d,p) (5D, 7F)
 There are   233 symmetry adapted cartesian basis functions of A   symmetry.
 There are   225 symmetry adapted basis functions of A   symmetry.
   225 basis functions,   351 primitive gaussians,   233 cartesian basis functions
    31 alpha electrons       30 beta electrons
       nuclear repulsion energy       362.2988813895 Hartrees.
 NAtoms=   15 NActive=   15 NUniq=   15 SFac= 1.00D+00 NAtFMM=   60 NAOKFM=F Big=F
 Integral buffers will be    131072 words long.
 Raffenetti 2 integral format.
 Two-electron integral symmetry is turned on.
 One-electron integrals computed using PRISM.
 NBasis=   225 RedAO= T EigKep=  2.35D-06  NBF=   225
 NBsUse=   225 1.00D-06 EigRej= -1.00D+00 NBFU=   225
 ExpMin= 3.60D-02 ExpMax= 8.59D+03 ExpMxC= 1.30D+03 IAcc=3 IRadAn=         5 AccDes= 0.00D+00
 Harris functional with IExCor=  205 and IRadAn=       5 diagonalized for initial guess.
 HarFok:  IExCor=  205 AccDes= 0.00D+00 IRadAn=         5 IDoV= 1 UseB2=F ITyADJ=14
 ICtDFT=  3500011 ScaDFX=  1.000000  1.000000  1.000000  1.000000
 FoFCou: FMM=F IPFlag=           0 FMFlag=      100000 FMFlg1=           0
         NFxFlg=           0 DoJE=T BraDBF=F KetDBF=T FulRan=T
         wScrn=  0.000000 ICntrl=       500 IOpCl=  0 I1Cent=   200000004 NGrid=           0
         NMat0=    1 NMatS0=      1 NMatT0=    0 NMatD0=    1 NMtDS0=    0 NMtDT0=    0
 Petite list used in FoFCou.
 Initial guess <Sx>= 0.0000 <Sy>= 0.0000 <Sz>= 0.5000 <S**2>= 0.7500 S= 0.5000
 Requested convergence on RMS density matrix=1.00D-08 within 128 cycles.
 Requested convergence on MAX density matrix=1.00D-06.
 Requested convergence on             energy=1.00D-06.
 No special actions if energy rises.
 Initial convergence to 1.0D-05 achieved.  Increase integral accuracy.
 SCF Done:  E(UHF) =  -417.978547304     A.U. after   36 cycles
            NFock= 36  Conv=0.66D-08     -V/T= 2.0006
 <Sx>= 0.0000 <Sy>= 0.0000 <Sz>= 0.5000 <S**2>= 1.0217 S= 0.6277
 <L.S>=  0.00000000000    
 Annihilation of the first spin contaminant:
 S**2 before annihilation     1.0217,   after     0.7948
 ExpMin= 3.60D-02 ExpMax= 8.59D+03 ExpMxC= 1.30D+03 IAcc=3 IRadAn=         5 AccDes= 0.00D+00
 HarFok:  IExCor=  205 AccDes= 0.00D+00 IRadAn=         5 IDoV=-2 UseB2=F ITyADJ=14
 ICtDFT= 12500011 ScaDFX=  1.000000  1.000000  1.000000  1.000000
 Range of M.O.s used for correlation:     9   225
 NBasis=   225 NAE=    31 NBE=    30 NFC=     8 NFV=     0
 NROrb=    217 NOA=    23 NOB=    22 NVA=   194 NVB=   195

 **** Warning!!: The largest alpha MO coefficient is  0.19294489D+03


 **** Warning!!: The largest beta MO coefficient is  0.21342842D+03

 Semi-Direct transformation.
 ModeAB=           4 MOrb=            23 LenV=    1609173841
 LASXX=    109339976 LTotXX=   109339976 LenRXX=   221407890
 LTotAB=   112067914 MaxLAS=   130095406 LenRXY=           0
 NonZer=   330747866 LenScr=   498067456 LnRSAI=   130095406
 LnScr1=   195908608 LExtra=           0 Total=   1045479360
 MaxDsk=          -1 SrtSym=           T ITran=            4
 JobTyp=1 Pass  1:  I=   1 to  23.
 (rs|ai) integrals will be sorted in core.
 ModeAB=           4 MOrb=            22 LenV=    1609173841
 LASXX=    104936601 LTotXX=   104936601 LenRXX=   190867446
 LTotAB=    85930845 MaxLAS=   124439084 LenRXY=           0
 NonZer=   295804047 LenScr=   445446144 LnRSAI=   124439084
 LnScr1=   187432448 LExtra=           0 Total=    948185122
 MaxDsk=          -1 SrtSym=           T ITran=            4
 JobTyp=2 Pass  1:  I=   1 to  22.
 (rs|ai) integrals will be sorted in core.
 SymMOI:  orbitals are not symmetric.
 Spin components of T(2) and E(2):
     alpha-alpha T2 =       0.5215022465D-01 E2=     -0.1699151069D+00
     alpha-beta  T2 =       0.2810529337D+00 E2=     -0.9293690171D+00
     beta-beta   T2 =       0.4975985187D-01 E2=     -0.1570653371D+00
 ANorm=    0.1175994477D+01
 E2 =    -0.1256349461D+01 EUMP2 =    -0.41923489676469D+03
 (S**2,0)=  0.10217D+01           (S**2,1)=  0.94730D+00
 E(PUHF)=      -0.41800071545D+03        E(PMP2)=      -0.41925429719D+03
 Keep R2 and R3 ints in memory in canonical form, NReq=652884060.
 CIDS: In Core Option IDoMem=           1.
 Iterations=  50 Convergence= 0.100D-06
 Produce multiple copies of IABC intergrals
 Iteration Nr.   1
 **********************
 DD1Dir will call FoFMem   1 times, MxPair=      1496
 NAB=   506 NAA=   253 NBB=   231.
 E(PMP3)=      -0.41927967923D+03
 MP4(R+Q)=  0.24522539D-01
 E3=       -0.30113682D-01        EUMP3=      -0.41926501045D+03
 E4(DQ)=   -0.58607832D-02        UMP4(DQ)=   -0.41927087123D+03
 E4(SDQ)=  -0.27329936D-01        UMP4(SDQ)=  -0.41929234038D+03
 DE(Corr)=  -1.2616664     E(Corr)=     -419.24021374    
 NORM(A)=   0.11860647D+01
 Iteration Nr.   2
 **********************
 DD1Dir will call FoFMem   1 times, MxPair=      1496
 NAB=   506 NAA=   253 NBB=   231.
 DE(Corr)=  -1.3054654     E(CORR)=     -419.28401267     Delta=-4.38D-02
 NORM(A)=   0.12083358D+01
 Iteration Nr.   3
 **********************
 DD1Dir will call FoFMem   1 times, MxPair=      1496
 NAB=   506 NAA=   253 NBB=   231.
 DE(Corr)=  -1.3090892     E(CORR)=     -419.28763653     Delta=-3.62D-03
 NORM(A)=   0.12220048D+01
 Iteration Nr.   4
 **********************
 DD1Dir will call FoFMem   1 times, MxPair=      1496
 NAB=   506 NAA=   253 NBB=   231.
 DE(Corr)=  -1.3170469     E(CORR)=     -419.29559419     Delta=-7.96D-03
 NORM(A)=   0.12311913D+01
 Iteration Nr.   5
 **********************
 DD1Dir will call FoFMem   1 times, MxPair=      1496
 NAB=   506 NAA=   253 NBB=   231.
 DE(Corr)=  -1.3194464     E(CORR)=     -419.29799370     Delta=-2.40D-03
 NORM(A)=   0.12353668D+01
 Iteration Nr.   6
 **********************
 DD1Dir will call FoFMem   1 times, MxPair=      1496
 NAB=   506 NAA=   253 NBB=   231.
 DE(Corr)=  -1.3201311     E(CORR)=     -419.29867836     Delta=-6.85D-04
 NORM(A)=   0.12359802D+01
 Iteration Nr.   7
 **********************
 DD1Dir will call FoFMem   1 times, MxPair=      1496
 NAB=   506 NAA=   253 NBB=   231.
 DE(Corr)=  -1.3202175     E(CORR)=     -419.29876476     Delta=-8.64D-05
 NORM(A)=   0.12360989D+01
 Iteration Nr.   8
 **********************
 DD1Dir will call FoFMem   1 times, MxPair=      1496
 NAB=   506 NAA=   253 NBB=   231.
 DE(Corr)=  -1.3201918     E(CORR)=     -419.29873910     Delta= 2.57D-05
 NORM(A)=   0.12361124D+01
 Iteration Nr.   9
 **********************
 DD1Dir will call FoFMem   1 times, MxPair=      1496
 NAB=   506 NAA=   253 NBB=   231.
 DE(Corr)=  -1.3202067     E(CORR)=     -419.29875400     Delta=-1.49D-05
 NORM(A)=   0.12360754D+01
 Iteration Nr.  10
 **********************
 DD1Dir will call FoFMem   1 times, MxPair=      1496
 NAB=   506 NAA=   253 NBB=   231.
 DE(Corr)=  -1.3201823     E(CORR)=     -419.29872960     Delta= 2.44D-05
 NORM(A)=   0.12360607D+01
 Iteration Nr.  11
 **********************
 DD1Dir will call FoFMem   1 times, MxPair=      1496
 NAB=   506 NAA=   253 NBB=   231.
 DE(Corr)=  -1.3202040     E(CORR)=     -419.29875128     Delta=-2.17D-05
 NORM(A)=   0.12361169D+01
 Iteration Nr.  12
 **********************
 DD1Dir will call FoFMem   1 times, MxPair=      1496
 NAB=   506 NAA=   253 NBB=   231.
 DE(Corr)=  -1.3202017     E(CORR)=     -419.29874904     Delta= 2.24D-06
 NORM(A)=   0.12362221D+01
 Iteration Nr.  13
 **********************
 DD1Dir will call FoFMem   1 times, MxPair=      1496
 NAB=   506 NAA=   253 NBB=   231.
 DE(Corr)=  -1.3202238     E(CORR)=     -419.29877115     Delta=-2.21D-05
 NORM(A)=   0.12363362D+01
 Iteration Nr.  14
 **********************
 DD1Dir will call FoFMem   1 times, MxPair=      1496
 NAB=   506 NAA=   253 NBB=   231.
 DE(Corr)=  -1.3202434     E(CORR)=     -419.29879075     Delta=-1.96D-05
 NORM(A)=   0.12364192D+01
 Iteration Nr.  15
 **********************
 DD1Dir will call FoFMem   1 times, MxPair=      1496
 NAB=   506 NAA=   253 NBB=   231.
 DE(Corr)=  -1.3202539     E(CORR)=     -419.29880124     Delta=-1.05D-05
 NORM(A)=   0.12364618D+01
 Iteration Nr.  16
 **********************
 DD1Dir will call FoFMem   1 times, MxPair=      1496
 NAB=   506 NAA=   253 NBB=   231.
 DE(Corr)=  -1.3202635     E(CORR)=     -419.29881084     Delta=-9.61D-06
 NORM(A)=   0.12364731D+01
 Iteration Nr.  17
 **********************
 DD1Dir will call FoFMem   1 times, MxPair=      1496
 NAB=   506 NAA=   253 NBB=   231.
 DE(Corr)=  -1.3202629     E(CORR)=     -419.29881025     Delta= 5.97D-07
 NORM(A)=   0.12364713D+01
 Iteration Nr.  18
 **********************
 DD1Dir will call FoFMem   1 times, MxPair=      1496
 NAB=   506 NAA=   253 NBB=   231.
 DE(Corr)=  -1.3202626     E(CORR)=     -419.29880995     Delta= 2.99D-07
 NORM(A)=   0.12364658D+01
 Iteration Nr.  19
 **********************
 DD1Dir will call FoFMem   1 times, MxPair=      1496
 NAB=   506 NAA=   253 NBB=   231.
 DE(Corr)=  -1.3202610     E(CORR)=     -419.29880830     Delta= 1.65D-06
 NORM(A)=   0.12364615D+01
 Iteration Nr.  20
 **********************
 DD1Dir will call FoFMem   1 times, MxPair=      1496
 NAB=   506 NAA=   253 NBB=   231.
 DE(Corr)=  -1.3202598     E(CORR)=     -419.29880709     Delta= 1.20D-06
 NORM(A)=   0.12364580D+01
 Iteration Nr.  21
 **********************
 DD1Dir will call FoFMem   1 times, MxPair=      1496
 NAB=   506 NAA=   253 NBB=   231.
 DE(Corr)=  -1.3202590     E(CORR)=     -419.29880628     Delta= 8.13D-07
 NORM(A)=   0.12364581D+01
 Iteration Nr.  22
 **********************
 DD1Dir will call FoFMem   1 times, MxPair=      1496
 NAB=   506 NAA=   253 NBB=   231.
 DE(Corr)=  -1.3202588     E(CORR)=     -419.29880606     Delta= 2.21D-07
 NORM(A)=   0.12364609D+01
 Iteration Nr.  23
 **********************
 DD1Dir will call FoFMem   1 times, MxPair=      1496
 NAB=   506 NAA=   253 NBB=   231.
 DE(Corr)=  -1.3202592     E(CORR)=     -419.29880651     Delta=-4.50D-07
 NORM(A)=   0.12364657D+01
 Iteration Nr.  24
 **********************
 DD1Dir will call FoFMem   1 times, MxPair=      1496
 NAB=   506 NAA=   253 NBB=   231.
 DE(Corr)=  -1.3202600     E(CORR)=     -419.29880726     Delta=-7.46D-07
 NORM(A)=   0.12364701D+01
 Iteration Nr.  25
 **********************
 DD1Dir will call FoFMem   1 times, MxPair=      1496
 NAB=   506 NAA=   253 NBB=   231.
 DE(Corr)=  -1.3202607     E(CORR)=     -419.29880798     Delta=-7.23D-07
 NORM(A)=   0.12364726D+01
 Iteration Nr.  26
 **********************
 DD1Dir will call FoFMem   1 times, MxPair=      1496
 NAB=   506 NAA=   253 NBB=   231.
 DE(Corr)=  -1.3202610     E(CORR)=     -419.29880829     Delta=-3.05D-07
 NORM(A)=   0.12364734D+01
 Iteration Nr.  27
 **********************
 DD1Dir will call FoFMem   1 times, MxPair=      1496
 NAB=   506 NAA=   253 NBB=   231.
 DE(Corr)=  -1.3202611     E(CORR)=     -419.29880836     Delta=-7.80D-08
 NORM(A)=   0.12364731D+01
 Wavefunction amplitudes converged. E(Corr)=     -419.29880836    
 Largest amplitude= 7.45D-02
 Time for triples=    37058.60 seconds.
 T4(CCSD)= -0.58436911D-01
 T5(CCSD)=  0.41710111D-02
 CCSD(T)= -0.41935307426D+03

 S**2, projected HF & approx projected MPn energies after annihilation of
 unwanted spin states (see manual for definitions):

 spins       (S**2,0) (S**2,1)    PUHF        PMP2        PMP3        PMP4
 annihilated
 s+1         0.72362  0.73987 -418.000715 -419.254297 -419.279679
 s+1,s+2     0.75046  0.74992 -417.998911 -419.252587 -419.278092
 s+1 to s+3  0.75000  0.75000 -417.998951 -419.252615 -419.278104
 s+1 to s+4  0.75000  0.75000 -417.998950 -419.252615 -419.278104
 s+1 to s+5  0.75000  0.75000 -417.998950
 s+1 to s+6  0.75000  0.75000 -417.998950

 Discarding MO integrals.

 **********************************************************************

            Population analysis using the SCF density.

 **********************************************************************

 Orbital symmetries:
 Alpha Orbitals:
       Occupied  (A) (A) (A) (A) (A) (A) (A) (A) (A) (A) (A) (A)
                 (A) (A) (A) (A) (A) (A) (A) (A) (A) (A) (A) (A)
                 (A) (A) (A) (A) (A) (A) (A)
       Virtual   (A) (A) (A) (A) (A) (A) (A) (A) (A) (A) (A) (A)
                 (A) (A) (A) (A) (A) (A) (A) (A) (A) (A) (A) (A)
                 (A) (A) (A) (A) (A) (A) (A) (A) (A) (A) (A) (A)
                 (A) (A) (A) (A) (A) (A) (A) (A) (A) (A) (A) (A)
                 (A) (A) (A) (A) (A) (A) (A) (A) (A) (A) (A) (A)
                 (A) (A) (A) (A) (A) (A) (A) (A) (A) (A) (A) (A)
                 (A) (A) (A) (A) (A) (A) (A) (A) (A) (A) (A) (A)
                 (A) (A) (A) (A) (A) (A) (A) (A) (A) (A) (A) (A)
                 (A) (A) (A) (A) (A) (A) (A) (A) (A) (A) (A) (A)
                 (A) (A) (A) (A) (A) (A) (A) (A) (A) (A) (A) (A)
                 (A) (A) (A) (A) (A) (A) (A) (A) (A) (A) (A) (A)
                 (A) (A) (A) (A) (A) (A) (A) (A) (A) (A) (A) (A)
                 (A) (A) (A) (A) (A) (A) (A) (A) (A) (A) (A) (A)
                 (A) (A) (A) (A) (A) (A) (A) (A) (A) (A) (A) (A)
                 (A) (A) (A) (A) (A) (A) (A) (A) (A) (A) (A) (A)
                 (A) (A) (A) (A) (A) (A) (A) (A) (A) (A) (A) (A)
                 (A) (A)
 Beta  Orbitals:
       Occupied  (A) (A) (A) (A) (A) (A) (A) (A) (A) (A) (A) (A)
                 (A) (A) (A) (A) (A) (A) (A) (A) (A) (A) (A) (A)
                 (A) (A) (A) (A) (A) (A)
       Virtual   (A) (A) (A) (A) (A) (A) (A) (A) (A) (A) (A) (A)
                 (A) (A) (A) (A) (A) (A) (A) (A) (A) (A) (A) (A)
                 (A) (A) (A) (A) (A) (A) (A) (A) (A) (A) (A) (A)
                 (A) (A) (A) (A) (A) (A) (A) (A) (A) (A) (A) (A)
                 (A) (A) (A) (A) (A) (A) (A) (A) (A) (A) (A) (A)
                 (A) (A) (A) (A) (A) (A) (A) (A) (A) (A) (A) (A)
                 (A) (A) (A) (A) (A) (A) (A) (A) (A) (A) (A) (A)
                 (A) (A) (A) (A) (A) (A) (A) (A) (A) (A) (A) (A)
                 (A) (A) (A) (A) (A) (A) (A) (A) (A) (A) (A) (A)
                 (A) (A) (A) (A) (A) (A) (A) (A) (A) (A) (A) (A)
                 (A) (A) (A) (A) (A) (A) (A) (A) (A) (A) (A) (A)
                 (A) (A) (A) (A) (A) (A) (A) (A) (A) (A) (A) (A)
                 (A) (A) (A) (A) (A) (A) (A) (A) (A) (A) (A) (A)
                 (A) (A) (A) (A) (A) (A) (A) (A) (A) (A) (A) (A)
                 (A) (A) (A) (A) (A) (A) (A) (A) (A) (A) (A) (A)
                 (A) (A) (A) (A) (A) (A) (A) (A) (A) (A) (A) (A)
                 (A) (A) (A)
 The electronic state is 2-A.
 Alpha  occ. eigenvalues --  -20.62110 -20.61212 -20.55641 -11.41365 -11.29688
 Alpha  occ. eigenvalues --  -11.27151 -11.26408 -11.22454  -1.48129  -1.37925
 Alpha  occ. eigenvalues --   -1.37791  -1.07997  -1.04401  -0.92699  -0.83734
 Alpha  occ. eigenvalues --   -0.76508  -0.73129  -0.69514  -0.68370  -0.66266
 Alpha  occ. eigenvalues --   -0.64235  -0.62919  -0.58018  -0.55457  -0.54000
 Alpha  occ. eigenvalues --   -0.53500  -0.50446  -0.47583  -0.45956  -0.43328
 Alpha  occ. eigenvalues --   -0.42084
 Alpha virt. eigenvalues --    0.03674   0.04409   0.05605   0.06284   0.07325
 Alpha virt. eigenvalues --    0.08822   0.09509   0.10454   0.11084   0.11758
 Alpha virt. eigenvalues --    0.13501   0.13678   0.14256   0.15950   0.16457
 Alpha virt. eigenvalues --    0.17032   0.18020   0.18266   0.18690   0.19062
 Alpha virt. eigenvalues --    0.20253   0.20858   0.21718   0.22033   0.23812
 Alpha virt. eigenvalues --    0.23993   0.24958   0.26896   0.27896   0.28892
 Alpha virt. eigenvalues --    0.29906   0.30458   0.32298   0.32648   0.33696
 Alpha virt. eigenvalues --    0.35297   0.36814   0.37813   0.38645   0.39016
 Alpha virt. eigenvalues --    0.40634   0.41576   0.42149   0.43167   0.43481
 Alpha virt. eigenvalues --    0.45727   0.46319   0.47283   0.48635   0.50310
 Alpha virt. eigenvalues --    0.52069   0.53984   0.58020   0.60302   0.60993
 Alpha virt. eigenvalues --    0.62843   0.65603   0.68254   0.69982   0.71575
 Alpha virt. eigenvalues --    0.72307   0.75970   0.79819   0.81170   0.83163
 Alpha virt. eigenvalues --    0.84479   0.86669   0.86904   0.88023   0.89641
 Alpha virt. eigenvalues --    0.90637   0.91464   0.92969   0.95148   0.96881
 Alpha virt. eigenvalues --    1.00433   1.04244   1.08567   1.10961   1.14949
 Alpha virt. eigenvalues --    1.19893   1.21017   1.24667   1.28507   1.29609
 Alpha virt. eigenvalues --    1.35209   1.37331   1.38725   1.40019   1.43526
 Alpha virt. eigenvalues --    1.44628   1.46228   1.50357   1.52562   1.53219
 Alpha virt. eigenvalues --    1.55953   1.56795   1.58288   1.61161   1.65972
 Alpha virt. eigenvalues --    1.68620   1.71883   1.72818   1.73608   1.77401
 Alpha virt. eigenvalues --    1.80871   1.81721   1.83855   1.86028   1.88073
 Alpha virt. eigenvalues --    1.90236   1.91076   1.94792   1.96264   1.99321
 Alpha virt. eigenvalues --    2.00408   2.06122   2.09197   2.12537   2.14323
 Alpha virt. eigenvalues --    2.17522   2.21244   2.24842   2.30750   2.33517
 Alpha virt. eigenvalues --    2.35490   2.38036   2.42313   2.48720   2.60390
 Alpha virt. eigenvalues --    2.64029   2.65990   2.75433   2.82544   2.83074
 Alpha virt. eigenvalues --    2.84833   2.85793   2.88892   2.92634   2.94303
 Alpha virt. eigenvalues --    2.96286   2.97139   3.02698   3.05026   3.06274
 Alpha virt. eigenvalues --    3.11637   3.13639   3.16890   3.18828   3.23327
 Alpha virt. eigenvalues --    3.27219   3.28552   3.31442   3.35334   3.39170
 Alpha virt. eigenvalues --    3.43319   3.44754   3.48727   3.49199   3.55650
 Alpha virt. eigenvalues --    3.60780   3.63190   3.65499   3.71598   3.72736
 Alpha virt. eigenvalues --    3.80657   3.85521   4.01303   4.12566   4.21925
 Alpha virt. eigenvalues --    4.22336   4.24056   4.27928   4.40278   4.49942
 Alpha virt. eigenvalues --    4.57719   4.67272   5.54745   5.57022   5.62316
 Alpha virt. eigenvalues --    5.66070   5.77322   5.93554   6.03298   6.21660
 Alpha virt. eigenvalues --    6.43189  24.68847  25.00154  25.02051  25.14580
 Alpha virt. eigenvalues --   26.13300  51.53778  51.60794  51.71963
  Beta  occ. eigenvalues --  -20.61218 -20.58350 -20.56058 -11.41008 -11.29688
  Beta  occ. eigenvalues --  -11.28309 -11.24928 -11.22456  -1.48296  -1.38459
  Beta  occ. eigenvalues --   -1.24656  -1.07823  -1.03576  -0.91701  -0.83123
  Beta  occ. eigenvalues --   -0.76312  -0.72006  -0.69720  -0.67252  -0.63725
  Beta  occ. eigenvalues --   -0.62828  -0.58340  -0.55514  -0.54115  -0.50756
  Beta  occ. eigenvalues --   -0.50506  -0.48141  -0.47143  -0.43994  -0.42585
  Beta virt. eigenvalues --    0.03716   0.04354   0.04773   0.06281   0.06956
  Beta virt. eigenvalues --    0.08039   0.09230   0.09536   0.10595   0.11896
  Beta virt. eigenvalues --    0.12250   0.13666   0.13934   0.15512   0.16119
  Beta virt. eigenvalues --    0.16749   0.17236   0.18247   0.18576   0.18764
  Beta virt. eigenvalues --    0.19513   0.20773   0.20987   0.21711   0.22523
  Beta virt. eigenvalues --    0.24008   0.24159   0.25125   0.26442   0.28211
  Beta virt. eigenvalues --    0.29543   0.30115   0.30744   0.32215   0.33404
  Beta virt. eigenvalues --    0.34928   0.35697   0.37062   0.37984   0.39043
  Beta virt. eigenvalues --    0.39179   0.40683   0.41485   0.42845   0.43356
  Beta virt. eigenvalues --    0.43633   0.45634   0.46202   0.47540   0.48546
  Beta virt. eigenvalues --    0.50322   0.52749   0.54039   0.58012   0.60342
  Beta virt. eigenvalues --    0.61183   0.63273   0.65787   0.68655   0.70594
  Beta virt. eigenvalues --    0.72344   0.74445   0.78092   0.80103   0.81635
  Beta virt. eigenvalues --    0.82607   0.85905   0.86575   0.87409   0.88340
  Beta virt. eigenvalues --    0.89536   0.89974   0.91378   0.93050   0.94642
  Beta virt. eigenvalues --    0.96682   1.00523   1.04236   1.08400   1.11926
  Beta virt. eigenvalues --    1.14974   1.19952   1.21389   1.24915   1.28988
  Beta virt. eigenvalues --    1.33311   1.36279   1.38281   1.39157   1.41839
  Beta virt. eigenvalues --    1.44100   1.45005   1.47089   1.50933   1.53852
  Beta virt. eigenvalues --    1.55407   1.56414   1.58078   1.58589   1.62703
  Beta virt. eigenvalues --    1.67619   1.69254   1.71995   1.73259   1.76347
  Beta virt. eigenvalues --    1.78406   1.81002   1.81758   1.83883   1.85597
  Beta virt. eigenvalues --    1.87867   1.90002   1.90979   1.94746   1.96079
  Beta virt. eigenvalues --    1.99209   2.00479   2.06156   2.09266   2.12527
  Beta virt. eigenvalues --    2.14605   2.17553   2.21990   2.24875   2.30967
  Beta virt. eigenvalues --    2.33915   2.36754   2.38192   2.42331   2.48764
  Beta virt. eigenvalues --    2.60405   2.64027   2.65891   2.75465   2.82615
  Beta virt. eigenvalues --    2.83082   2.84833   2.85742   2.89407   2.92670
  Beta virt. eigenvalues --    2.94523   2.96312   2.97270   3.03228   3.04981
  Beta virt. eigenvalues --    3.06719   3.12197   3.15427   3.20232   3.23219
  Beta virt. eigenvalues --    3.24741   3.27724   3.28548   3.31610   3.37959
  Beta virt. eigenvalues --    3.41334   3.44859   3.49066   3.50607   3.52626
  Beta virt. eigenvalues --    3.56190   3.60979   3.65039   3.65527   3.71993
  Beta virt. eigenvalues --    3.72435   3.80116   3.86654   4.01155   4.12377
  Beta virt. eigenvalues --    4.21964   4.22419   4.26222   4.28558   4.40260
  Beta virt. eigenvalues --    4.49768   4.57656   4.67268   5.58028   5.61369
  Beta virt. eigenvalues --    5.65522   5.68036   5.77102   5.93524   6.05709
  Beta virt. eigenvalues --    6.21582   6.43096  24.68755  25.00369  25.02112
  Beta virt. eigenvalues --   25.14578  26.13555  51.55803  51.60890  51.71741
          Condensed to atoms (all electrons):
               1          2          3          4          5          6
     1  C   21.198128   0.648428  -7.231644  -7.789483   0.015880   0.031697
     2  H    0.648428   0.409437  -0.205767  -0.059126  -0.002016  -0.001760
     3  C   -7.231644  -0.205767  14.636203  -2.103543   0.236393  -0.228583
     4  C   -7.789483  -0.059126  -2.103543  16.271407   0.180829   0.085236
     5  O    0.015880  -0.002016   0.236393   0.180829   8.011084  -0.121683
     6  O    0.031697  -0.001760  -0.228583   0.085236  -0.121683   8.298060
     7  C   -0.112642  -0.000395  -0.323757   0.295122   0.026737   0.172970
     8  C    0.114930   0.000019   0.166419  -0.355765  -0.055495  -0.077256
     9  H    0.003748   0.000058   0.003505  -0.008753   0.004953  -0.080846
    10  H   -0.029368  -0.000204  -0.080869   0.102187  -0.024965  -0.019872
    11  H    0.002905   0.000016   0.009177  -0.009120  -0.001697   0.015508
    12  H   -0.010799   0.000026  -0.029929   0.038998   0.001697  -0.004072
    13  H    0.017508  -0.000105   0.026901  -0.065985   0.000614  -0.012768
    14  O   -0.144055  -0.002903   0.294967  -0.308397  -0.003366   0.026511
    15  H   -0.114520  -0.003285   0.095199   0.045208  -0.000069  -0.003247
               7          8          9         10         11         12
     1  C   -0.112642   0.114930   0.003748  -0.029368   0.002905  -0.010799
     2  H   -0.000395   0.000019   0.000058  -0.000204   0.000016   0.000026
     3  C   -0.323757   0.166419   0.003505  -0.080869   0.009177  -0.029929
     4  C    0.295122  -0.355765  -0.008753   0.102187  -0.009120   0.038998
     5  O    0.026737  -0.055495   0.004953  -0.024965  -0.001697   0.001697
     6  O    0.172970  -0.077256  -0.080846  -0.019872   0.015508  -0.004072
     7  C    5.406034  -0.070312   0.442381   0.450743  -0.052057  -0.021365
     8  C   -0.070312   5.514942  -0.053966  -0.047210   0.408303   0.404853
     9  H    0.442381  -0.053966   0.560045  -0.036594   0.001654  -0.006932
    10  H    0.450743  -0.047210  -0.036594   0.518502  -0.004736   0.001937
    11  H   -0.052057   0.408303   0.001654  -0.004736   0.558774  -0.034333
    12  H   -0.021365   0.404853  -0.006932   0.001937  -0.034333   0.570283
    13  H   -0.035459   0.414236   0.008130  -0.004235  -0.035226  -0.045726
    14  O   -0.018181   0.028841   0.000070  -0.002060   0.002083  -0.003072
    15  H    0.002102   0.000066   0.000407  -0.000383   0.000029  -0.000889
              13         14         15
     1  C    0.017508  -0.144055  -0.114520
     2  H   -0.000105  -0.002903  -0.003285
     3  C    0.026901   0.294967   0.095199
     4  C   -0.065985  -0.308397   0.045208
     5  O    0.000614  -0.003366  -0.000069
     6  O   -0.012768   0.026511  -0.003247
     7  C   -0.035459  -0.018181   0.002102
     8  C    0.414236   0.028841   0.000066
     9  H    0.008130   0.000070   0.000407
    10  H   -0.004235  -0.002060  -0.000383
    11  H   -0.035226   0.002083   0.000029
    12  H   -0.045726  -0.003072  -0.000889
    13  H    0.546725  -0.001133   0.000463
    14  O   -0.001133   8.021680   0.272031
    15  H    0.000463   0.272031   0.477301
          Atomic-Atomic Spin Densities.
               1          2          3          4          5          6
     1  C    0.188707  -0.032613   0.511136   0.812847  -0.003128  -0.037140
     2  H   -0.032613  -0.071020   0.021675   0.005484   0.000120  -0.000935
     3  C    0.511136   0.021675  -1.559282  -0.099793  -0.003373   0.053076
     4  C    0.812847   0.005484  -0.099793  -0.682958   0.031135  -0.033941
     5  O   -0.003128   0.000120  -0.003373   0.031135  -0.113825  -0.000379
     6  O   -0.037140  -0.000935   0.053076  -0.033941  -0.000379   0.014371
     7  C    0.009900  -0.000003   0.002170  -0.023005   0.002543  -0.000918
     8  C   -0.001717  -0.000108   0.007852  -0.000247  -0.000059   0.000344
     9  H    0.000801  -0.000014  -0.000157  -0.001181   0.000148   0.000631
    10  H    0.001997  -0.000002   0.004829  -0.005675   0.000149   0.000633
    11  H   -0.000123  -0.000005   0.000259   0.000057   0.000021   0.000077
    12  H   -0.001054   0.000008  -0.001055   0.001774  -0.000042  -0.000036
    13  H   -0.003287  -0.000019  -0.006394   0.007151  -0.000230   0.000035
    14  O   -0.367854  -0.003883   0.095950   0.196311   0.000397   0.006676
    15  H    0.047485   0.000405  -0.014249  -0.032254   0.000055  -0.000589
               7          8          9         10         11         12
     1  C    0.009900  -0.001717   0.000801   0.001997  -0.000123  -0.001054
     2  H   -0.000003  -0.000108  -0.000014  -0.000002  -0.000005   0.000008
     3  C    0.002170   0.007852  -0.000157   0.004829   0.000259  -0.001055
     4  C   -0.023005  -0.000247  -0.001181  -0.005675   0.000057   0.001774
     5  O    0.002543  -0.000059   0.000148   0.000149   0.000021  -0.000042
     6  O   -0.000918   0.000344   0.000631   0.000633   0.000077  -0.000036
     7  C    0.012371  -0.006320  -0.000021  -0.002350  -0.001574   0.000654
     8  C   -0.006320   0.002923  -0.000062   0.000522   0.001907  -0.000532
     9  H   -0.000021  -0.000062  -0.000242  -0.000275  -0.000021   0.000015
    10  H   -0.002350   0.000522  -0.000275  -0.000024   0.000014   0.000047
    11  H   -0.001574   0.001907  -0.000021   0.000014  -0.000103  -0.000174
    12  H    0.000654  -0.000532   0.000015   0.000047  -0.000174   0.000064
    13  H    0.002613  -0.001258   0.000158  -0.000004  -0.000435   0.000038
    14  O    0.007511  -0.002841   0.000320   0.000114  -0.000041   0.000229
    15  H   -0.001467   0.000891  -0.000157   0.000001   0.000034  -0.000089
              13         14         15
     1  C   -0.003287  -0.367854   0.047485
     2  H   -0.000019  -0.003883   0.000405
     3  C   -0.006394   0.095950  -0.014249
     4  C    0.007151   0.196311  -0.032254
     5  O   -0.000230   0.000397   0.000055
     6  O    0.000035   0.006676  -0.000589
     7  C    0.002613   0.007511  -0.001467
     8  C   -0.001258  -0.002841   0.000891
     9  H    0.000158   0.000320  -0.000157
    10  H   -0.000004   0.000114   0.000001
    11  H   -0.000435  -0.000041   0.000034
    12  H    0.000038   0.000229  -0.000089
    13  H    0.000704   0.000325  -0.000335
    14  O    0.000325   0.932513   0.014476
    15  H   -0.000335   0.014476  -0.045345
 Mulliken charges and spin densities:
               1          2
     1  C   -0.600714   1.125956
     2  H    0.217576  -0.080909
     3  C    0.735326  -0.987357
     4  C   -0.318814   0.175704
     5  O   -0.268893  -0.086470
     6  O   -0.079893   0.001904
     7  C   -0.161921   0.002102
     8  C   -0.392605   0.001294
     9  H    0.162139  -0.000058
    10  H    0.177126  -0.000027
    11  H    0.138720  -0.000108
    12  H    0.139323  -0.000153
    13  H    0.186061  -0.000938
    14  O   -0.163017   0.880201
    15  H    0.229587  -0.031139
 Sum of Mulliken charges =  -0.00000   1.00000
 Mulliken charges and spin densities with hydrogens summed into heavy atoms:
               1          2
     1  C   -0.383139   1.045046
     3  C    0.735326  -0.987357
     4  C   -0.318814   0.175704
     5  O   -0.268893  -0.086470
     6  O   -0.079893   0.001904
     7  C    0.177345   0.002016
     8  C    0.071499   0.000095
    14  O    0.066570   0.849062
 Electronic spatial extent (au):  <R**2>=           1067.4900
 Charge=             -0.0000 electrons
 Dipole moment (field-independent basis, Debye):
    X=              0.0175    Y=              1.1422    Z=             -3.1537  Tot=              3.3542
 Quadrupole moment (field-independent basis, Debye-Ang):
   XX=            -33.5840   YY=            -47.5605   ZZ=            -51.6041
   XY=              0.3449   XZ=              3.0566   YZ=              0.0533
 Traceless Quadrupole moment (field-independent basis, Debye-Ang):
   XX=             10.6655   YY=             -3.3110   ZZ=             -7.3546
   XY=              0.3449   XZ=              3.0566   YZ=              0.0533
 Octapole moment (field-independent basis, Debye-Ang**2):
  XXX=            -25.9445  YYY=             13.3407  ZZZ=             -1.1546  XYY=             -0.3491
  XXY=             -5.3193  XXZ=            -14.7464  XZZ=              3.2930  YZZ=              5.8314
  YYZ=             -9.8539  XYZ=              5.0579
 Hexadecapole moment (field-independent basis, Debye-Ang**3):
 XXXX=           -769.7474 YYYY=           -244.3575 ZZZZ=           -165.7978 XXXY=              7.3693
 XXXZ=             33.2145 YYYX=            -26.4446 YYYZ=            -10.1652 ZZZX=             -8.1418
 ZZZY=              1.0408 XXYY=           -208.8278 XXZZ=           -189.1712 YYZZ=            -75.6009
 XXYZ=             -5.0342 YYXZ=              7.9246 ZZXY=             -4.8351
 N-N= 3.622988813895D+02 E-N=-1.707769198031D+03  KE= 4.177404004009D+02
 1\1\GINC-AJ\SP\UCCSD(T)-FC\6-311++G(d,p)\C5H7O3(2)\AAYUSH\29-Aug-2025\
 0\\# ccsd(t)/6-311++g(d,p) sp\\Title Card Required\\0,2\C,0,2.74037683
 ,-0.41069836,0.41519015\H,0,3.78287883,-0.45620036,0.63051615\C,0,1.56
 781683,-0.25286236,0.13451215\C,0,0.15894983,-0.57428736,-0.14171885\O
 ,0,-0.20300517,-1.14728836,-1.12736885\O,0,-0.62174617,-0.15162936,0.8
 4909615\C,0,-2.04118817,-0.30303136,0.63900715\C,0,-2.56394717,0.78440
 064,-0.27846485\H,0,-2.46641517,-0.23057736,1.63836615\H,0,-2.23128017
 ,-1.29745136,0.23378315\H,0,-3.64658017,0.68806564,-0.38107885\H,0,-2.
 33884517,1.76961464,0.13210015\H,0,-2.11376117,0.70145064,-1.26792085\
 O,0,1.40203083,1.66390464,-0.39175085\H,0,1.49520383,2.03975464,0.4972
 9015\\Version=ES64L-G16RevA.03\State=2-A\HF=-417.9785473\MP2=-419.2348
 968\MP3=-419.2650104\MP4D=-419.2953938\MP4DQ=-419.2708712\PUHF=-418.00
 07154\PMP2-0=-419.2542972\PMP3-0=-419.2796792\MP4SDQ=-419.2923404\CCSD
 =-419.2988084\CCSD(T)=-419.3530743\S2=1.021747\S2-1=0.947304\S2A=0.794
 812\RMSD=6.586e-09\PG=C01 [X(C5H7O3)]\\@


 IF YOU WISH TO UNDERSTAND THE FRAGRANCE OF THE ROSE, 
 OR THE TENACITY OF THE OAK; 
 IF YOU ARE NOT SATISFIED UNTIL YOU KNOW THE SECRET PATHS 
 BY WHICH THE SUNSHINE AND THE AIR ACHIEVE THESE WONDERS; 
 IF YOU WISH TO SEE THE PATTERN WHICH UNDERLIES ONE LARGE FIELD OF 
 HUMAN EXPERIENCE AND HUMAN MEASUREMENT, THEN TAKE UP CHEMISTRY.

                                         -- C. A. COULSON, 1973.
 Job cpu time:       0 days 19 hours 31 minutes  3.3 seconds.
 Elapsed time:       0 days  0 hours 49 minutes  2.0 seconds.
 File lengths (MBytes):  RWF=  44733 Int=      0 D2E=      0 Chk=      6 Scr=      1
 Normal termination of Gaussian 16 at Fri Aug 29 11:44:57 2025.
