 Entering Gaussian System, Link 0=g16
 Initial command:
 /opt/g16/l1.exe "/home/chem-lab/scratches/g16/Gau-65555.inp" -scrdir="/home/chem-lab/scratches/g16/"
 Entering Link 1 = /opt/g16/l1.exe PID=     65558.
  
 Copyright (c) 1988,1990,1992,1993,1995,1998,2003,2009,2016,
            Gaussian, Inc.  All Rights Reserved.
  
 This is part of the Gaussian(R) 16 program.  It is based on
 the Gaussian(R) 09 system (copyright 2009, Gaussian, Inc.),
 the Gaussian(R) 03 system (copyright 2003, Gaussian, Inc.),
 the Gaussian(R) 98 system (copyright 1998, Gaussian, Inc.),
 the Gaussian(R) 94 system (copyright 1995, Gaussian, Inc.),
 the Gaussian 92(TM) system (copyright 1992, Gaussian, Inc.),
 the Gaussian 90(TM) system (copyright 1990, Gaussian, Inc.),
 the Gaussian 88(TM) system (copyright 1988, Gaussian, Inc.),
 the Gaussian 86(TM) system (copyright 1986, Carnegie Mellon
 University), and the Gaussian 82(TM) system (copyright 1983,
 Carnegie Mellon University). Gaussian is a federally registered
 trademark of Gaussian, Inc.
  
 This software contains proprietary and confidential information,
 including trade secrets, belonging to Gaussian, Inc.
  
 This software is provided under written license and may be
 used, copied, transmitted, or stored only in accord with that
 written license.
  
 The following legend is applicable only to US Government
 contracts under FAR:
  
                    RESTRICTED RIGHTS LEGEND
  
 Use, reproduction and disclosure by the US Government is
 subject to restrictions as set forth in subparagraphs (a)
 and (c) of the Commercial Computer Software - Restricted
 Rights clause in FAR 52.227-19.
  
 Gaussian, Inc.
 340 Quinnipiac St., Bldg. 40, Wallingford CT 06492
  
  
 ---------------------------------------------------------------
 Warning -- This program may not be used in any manner that
 competes with the business of Gaussian, Inc. or will provide
 assistance to any competitor of Gaussian, Inc.  The licensee
 of this program is prohibited from giving any competitor of
 Gaussian, Inc. access to this program.  By using this program,
 the user acknowledges that Gaussian, Inc. is engaged in the
 business of creating and licensing software in the field of
 computational chemistry and represents and warrants to the
 licensee that it is not a competitor of Gaussian, Inc. and that
 it will not use this program in any manner prohibited above.
 ---------------------------------------------------------------
  

 Cite this work as:
 Gaussian 16, Revision A.03,
 M. J. Frisch, G. W. Trucks, H. B. Schlegel, G. E. Scuseria, 
 M. A. Robb, J. R. Cheeseman, G. Scalmani, V. Barone, 
 G. A. Petersson, H. Nakatsuji, X. Li, M. Caricato, A. V. Marenich, 
 J. Bloino, B. G. Janesko, R. Gomperts, B. Mennucci, H. P. Hratchian, 
 J. V. Ortiz, A. F. Izmaylov, J. L. Sonnenberg, D. Williams-Young, 
 F. Ding, F. Lipparini, F. Egidi, J. Goings, B. Peng, A. Petrone, 
 T. Henderson, D. Ranasinghe, V. G. Zakrzewski, J. Gao, N. Rega, 
 G. Zheng, W. Liang, M. Hada, M. Ehara, K. Toyota, R. Fukuda, 
 J. Hasegawa, M. Ishida, T. Nakajima, Y. Honda, O. Kitao, H. Nakai, 
 T. Vreven, K. Throssell, J. A. Montgomery, Jr., J. E. Peralta, 
 F. Ogliaro, M. J. Bearpark, J. J. Heyd, E. N. Brothers, K. N. Kudin, 
 V. N. Staroverov, T. A. Keith, R. Kobayashi, J. Normand, 
 K. Raghavachari, A. P. Rendell, J. C. Burant, S. S. Iyengar, 
 J. Tomasi, M. Cossi, J. M. Millam, M. Klene, C. Adamo, R. Cammi, 
 J. W. Ochterski, R. L. Martin, K. Morokuma, O. Farkas, 
 J. B. Foresman, and D. J. Fox, Gaussian, Inc., Wallingford CT, 2016.
 
 ******************************************
 Gaussian 16:  ES64L-G16RevA.03 25-Dec-2016
                19-Aug-2025 
 ******************************************
 %chk=ethyl_propiolate_non_planar.chk
 %mem=60GB
 %nprocshared=24
 Will use up to   24 processors via shared memory.
 --------------------------
 # ccsd(t)/6-311++g(d,p) sp
 --------------------------
 1/38=1,172=1/1;
 2/12=2,17=6,18=5,40=1/2;
 3/5=4,6=6,7=1111,11=9,25=1,30=1/1,2,3;
 4//1;
 5/5=2,38=5/2;
 8/6=4,9=120000,10=2/1,4;
 9/5=7,14=2/13;
 6/7=2,8=2,9=2,10=2/1;
 99/5=1,9=1/99;
 -------------------
 Title Card Required
 -------------------
 Symbolic Z-matrix:
 Charge =  0 Multiplicity = 2
 C                     2.72846  -0.43612   0.41665 
 H                     3.77487  -0.4502    0.62855 
 C                     1.56035  -0.06589   0.08492 
 C                     0.16191  -0.56714  -0.1432 
 O                    -0.19716  -1.15157  -1.12292 
 O                    -0.62215  -0.15475   0.85013 
 C                    -2.04208  -0.3046    0.63969 
 C                    -2.56319   0.78397  -0.27802 
 H                    -2.46786  -0.23166   1.63873 
 H                    -2.23329  -1.29867   0.23436 
 H                    -3.64579   0.68779  -0.38113 
 H                    -2.33769   1.76902   0.13262 
 H                    -2.11285   0.70152  -1.26751 
 O                     1.41012   1.54869  -0.36045 
 H                     1.48611   1.99794   0.49085 
 
                          Input orientation:                          
 ---------------------------------------------------------------------
 Center     Atomic      Atomic             Coordinates (Angstroms)
 Number     Number       Type             X           Y           Z
 ---------------------------------------------------------------------
      1          6           0        2.728458   -0.436122    0.416651
      2          1           0        3.774866   -0.450202    0.628551
      3          6           0        1.560348   -0.065892    0.084918
      4          6           0        0.161914   -0.567136   -0.143201
      5          8           0       -0.197159   -1.151572   -1.122919
      6          8           0       -0.622150   -0.154747    0.850129
      7          6           0       -2.042077   -0.304601    0.639692
      8          6           0       -2.563185    0.783970   -0.278016
      9          1           0       -2.467857   -0.231655    1.638727
     10          1           0       -2.233291   -1.298668    0.234364
     11          1           0       -3.645786    0.687793   -0.381131
     12          1           0       -2.337694    1.769023    0.132621
     13          1           0       -2.112853    0.701521   -1.267511
     14          8           0        1.410115    1.548690   -0.360448
     15          1           0        1.486109    1.997937    0.490851
 ---------------------------------------------------------------------
                    Distance matrix (angstroms):
                    1          2          3          4          5
     1  C    0.000000
     2  H    1.067740   0.000000
     3  C    1.269487   2.312428   0.000000
     4  C    2.630161   3.696309   1.502964   0.000000
     5  O    3.382511   4.397334   2.392990   1.195971   0.000000
     6  O    3.390228   4.412498   2.314463   1.330987   2.251043
     7  C    4.777557   5.818776   3.652701   2.353598   2.688472
     8  C    5.474730   6.520424   4.225815   3.044639   3.171476
     9  H    5.342000   6.327702   4.320675   3.194293   3.691748
    10  H    5.039461   6.080562   3.991712   2.532726   2.451466
    11  H    6.521551   7.574996   5.281011   4.016222   3.978259
    12  H    5.532561   6.521832   4.308587   3.432456   3.832512
    13  H    5.250612   6.291800   3.988783   2.836922   2.669222
    14  O    2.506270   3.250498   1.681605   2.466155   3.233590
    15  H    2.733785   3.354214   2.104681   2.955523   3.918807
                    6          7          8          9         10
     6  O    0.000000
     7  C    1.443237   0.000000
     8  C    2.433417   1.516156   0.000000
     9  H    2.008591   1.088430   2.171287   0.000000
    10  H    2.069661   1.090423   2.169964   1.779262   0.000000
    11  H    3.371683   2.144483   1.091745   2.512514   2.513962
    12  H    2.675593   2.155093   1.090779   2.507591   3.071153
    13  H    2.727598   2.157479   1.090274   3.072957   2.504174
    14  O    2.915012   4.043834   4.047061   4.712218   4.662151
    15  H    3.034450   4.215677   4.296703   4.682152   4.976678
                   11         12         13         14         15
    11  H    0.000000
    12  H    1.773162   0.000000
    13  H    1.770803   1.774960   0.000000
    14  O    5.128714   3.786520   3.735206   0.000000
    15  H    5.367791   3.847363   4.210114   0.965561   0.000000
 Stoichiometry    C5H7O3(2)
 Framework group  C1[X(C5H7O3)]
 Deg. of freedom    39
 Full point group                 C1      NOp   1
 Largest Abelian subgroup         C1      NOp   1
 Largest concise Abelian subgroup C1      NOp   1
                         Standard orientation:                         
 ---------------------------------------------------------------------
 Center     Atomic      Atomic             Coordinates (Angstroms)
 Number     Number       Type             X           Y           Z
 ---------------------------------------------------------------------
      1          6           0       -2.788627   -0.448950   -0.426304
      2          1           0       -3.834673   -0.456016   -0.640328
      3          6           0       -1.621407   -0.090355   -0.079020
      4          6           0       -0.222881   -0.598551    0.132545
      5          8           0        0.135136   -1.218872    1.090341
      6          8           0        0.562421   -0.148651   -0.843373
      7          6           0        1.982141   -0.305024   -0.636312
      8          6           0        2.500730    0.748952    0.322296
      9          1           0        2.409486   -0.194428   -1.631212
     10          1           0        2.173621   -1.313374   -0.268090
     11          1           0        3.583251    0.649934    0.423553
     12          1           0        2.274991    1.748463   -0.051625
     13          1           0        2.048858    0.629195    1.307267
     14          8           0       -1.473412    1.506590    0.426611
     15          1           0       -1.548434    1.987265   -0.407434
 ---------------------------------------------------------------------
 Rotational constants (GHZ):           3.8309711           1.3139149           1.1962616
 Standard basis: 6-311++G(d,p) (5D, 7F)
 There are   233 symmetry adapted cartesian basis functions of A   symmetry.
 There are   225 symmetry adapted basis functions of A   symmetry.
   225 basis functions,   351 primitive gaussians,   233 cartesian basis functions
    31 alpha electrons       30 beta electrons
       nuclear repulsion energy       365.3602633745 Hartrees.
 NAtoms=   15 NActive=   15 NUniq=   15 SFac= 1.00D+00 NAtFMM=   60 NAOKFM=F Big=F
 Integral buffers will be    131072 words long.
 Raffenetti 2 integral format.
 Two-electron integral symmetry is turned on.
 One-electron integrals computed using PRISM.
 NBasis=   225 RedAO= T EigKep=  8.78D-06  NBF=   225
 NBsUse=   225 1.00D-06 EigRej= -1.00D+00 NBFU=   225
 ExpMin= 3.60D-02 ExpMax= 8.59D+03 ExpMxC= 1.30D+03 IAcc=3 IRadAn=         5 AccDes= 0.00D+00
 Harris functional with IExCor=  205 and IRadAn=       5 diagonalized for initial guess.
 HarFok:  IExCor=  205 AccDes= 0.00D+00 IRadAn=         5 IDoV= 1 UseB2=F ITyADJ=14
 ICtDFT=  3500011 ScaDFX=  1.000000  1.000000  1.000000  1.000000
 FoFCou: FMM=F IPFlag=           0 FMFlag=      100000 FMFlg1=           0
         NFxFlg=           0 DoJE=T BraDBF=F KetDBF=T FulRan=T
         wScrn=  0.000000 ICntrl=       500 IOpCl=  0 I1Cent=   200000004 NGrid=           0
         NMat0=    1 NMatS0=      1 NMatT0=    0 NMatD0=    1 NMtDS0=    0 NMtDT0=    0
 Petite list used in FoFCou.
 Initial guess <Sx>= 0.0000 <Sy>= 0.0000 <Sz>= 0.5000 <S**2>= 0.7500 S= 0.5000
 Requested convergence on RMS density matrix=1.00D-08 within 128 cycles.
 Requested convergence on MAX density matrix=1.00D-06.
 Requested convergence on             energy=1.00D-06.
 No special actions if energy rises.
 Initial convergence to 1.0D-05 achieved.  Increase integral accuracy.
 SCF Done:  E(UHF) =  -417.987753835     A.U. after   29 cycles
            NFock= 29  Conv=0.52D-08     -V/T= 2.0011
 <Sx>= 0.0000 <Sy>= 0.0000 <Sz>= 0.5000 <S**2>= 1.0218 S= 0.6278
 <L.S>=  0.00000000000    
 Annihilation of the first spin contaminant:
 S**2 before annihilation     1.0218,   after     0.7982
 ExpMin= 3.60D-02 ExpMax= 8.59D+03 ExpMxC= 1.30D+03 IAcc=3 IRadAn=         5 AccDes= 0.00D+00
 HarFok:  IExCor=  205 AccDes= 0.00D+00 IRadAn=         5 IDoV=-2 UseB2=F ITyADJ=14
 ICtDFT= 12500011 ScaDFX=  1.000000  1.000000  1.000000  1.000000
 Range of M.O.s used for correlation:     9   225
 NBasis=   225 NAE=    31 NBE=    30 NFC=     8 NFV=     0
 NROrb=    217 NOA=    23 NOB=    22 NVA=   194 NVB=   195

 **** Warning!!: The largest alpha MO coefficient is  0.88134442D+02


 **** Warning!!: The largest beta MO coefficient is  0.91248077D+02

 Semi-Direct transformation.
 ModeAB=           4 MOrb=            23 LenV=    8051624269
 LASXX=    109339976 LTotXX=   109339976 LenRXX=   221407890
 LTotAB=   112067914 MaxLAS=   130439785 LenRXY=           0
 NonZer=   330747866 LenScr=   498067456 LnRSAI=   130439785
 LnScr1=   196427776 LExtra=           0 Total=   1046342907
 MaxDsk=          -1 SrtSym=           T ITran=            4
 JobTyp=1 Pass  1:  I=   1 to  23.
 (rs|ai) integrals will be sorted in core.
 ModeAB=           4 MOrb=            22 LenV=    8051624269
 LASXX=    104936601 LTotXX=   104936601 LenRXX=   190867446
 LTotAB=    85930845 MaxLAS=   124768490 LenRXY=           0
 NonZer=   295804047 LenScr=   445446144 LnRSAI=   124768490
 LnScr1=   187926016 LExtra=           0 Total=    949008096
 MaxDsk=          -1 SrtSym=           T ITran=            4
 JobTyp=2 Pass  1:  I=   1 to  22.
 (rs|ai) integrals will be sorted in core.
 SymMOI:  orbitals are not symmetric.
 Spin components of T(2) and E(2):
     alpha-alpha T2 =       0.5237110781D-01 E2=     -0.1711544066D+00
     alpha-beta  T2 =       0.2815108611D+00 E2=     -0.9363376511D+00
     beta-beta   T2 =       0.4981082721D-01 E2=     -0.1605931378D+00
 ANorm=    0.1176304721D+01
 E2 =    -0.1268085195D+01 EUMP2 =    -0.41925583903033D+03
 (S**2,0)=  0.10218D+01           (S**2,1)=  0.94655D+00
 E(PUHF)=      -0.41801031231D+03        E(PMP2)=      -0.41927556897D+03
 Keep R2 and R3 ints in memory in canonical form, NReq=652884060.
 CIDS: In Core Option IDoMem=           1.
 Iterations=  50 Convergence= 0.100D-06
 Produce multiple copies of IABC intergrals
 Iteration Nr.   1
 **********************
 DD1Dir will call FoFMem   1 times, MxPair=      1496
 NAB=   506 NAA=   253 NBB=   231.
 E(PMP3)=      -0.41929805579D+03
 MP4(R+Q)=  0.24611164D-01
 E3=       -0.26994872D-01        EUMP3=      -0.41928283390D+03
 E4(DQ)=   -0.67754550D-02        UMP4(DQ)=   -0.41928960936D+03
 E4(SDQ)=  -0.28450183D-01        UMP4(SDQ)=  -0.41931128409D+03
 DE(Corr)=  -1.2701056     E(Corr)=     -419.25785943    
 NORM(A)=   0.11860400D+01
 Iteration Nr.   2
 **********************
 DD1Dir will call FoFMem   1 times, MxPair=      1496
 NAB=   506 NAA=   253 NBB=   231.
 DE(Corr)=  -1.3147457     E(CORR)=     -419.30249952     Delta=-4.46D-02
 NORM(A)=   0.12080179D+01
 Iteration Nr.   3
 **********************
 DD1Dir will call FoFMem   1 times, MxPair=      1496
 NAB=   506 NAA=   253 NBB=   231.
 DE(Corr)=  -1.3181145     E(CORR)=     -419.30586831     Delta=-3.37D-03
 NORM(A)=   0.12207334D+01
 Iteration Nr.   4
 **********************
 DD1Dir will call FoFMem   1 times, MxPair=      1496
 NAB=   506 NAA=   253 NBB=   231.
 DE(Corr)=  -1.3258962     E(CORR)=     -419.31365002     Delta=-7.78D-03
 NORM(A)=   0.12291397D+01
 Iteration Nr.   5
 **********************
 DD1Dir will call FoFMem   1 times, MxPair=      1496
 NAB=   506 NAA=   253 NBB=   231.
 DE(Corr)=  -1.3281755     E(CORR)=     -419.31592938     Delta=-2.28D-03
 NORM(A)=   0.12334373D+01
 Iteration Nr.   6
 **********************
 DD1Dir will call FoFMem   1 times, MxPair=      1496
 NAB=   506 NAA=   253 NBB=   231.
 DE(Corr)=  -1.3288981     E(CORR)=     -419.31665193     Delta=-7.23D-04
 NORM(A)=   0.12341684D+01
 Iteration Nr.   7
 **********************
 DD1Dir will call FoFMem   1 times, MxPair=      1496
 NAB=   506 NAA=   253 NBB=   231.
 DE(Corr)=  -1.3290128     E(CORR)=     -419.31676663     Delta=-1.15D-04
 NORM(A)=   0.12343595D+01
 Iteration Nr.   8
 **********************
 DD1Dir will call FoFMem   1 times, MxPair=      1496
 NAB=   506 NAA=   253 NBB=   231.
 DE(Corr)=  -1.3289882     E(CORR)=     -419.31674200     Delta= 2.46D-05
 NORM(A)=   0.12344142D+01
 Iteration Nr.   9
 **********************
 DD1Dir will call FoFMem   1 times, MxPair=      1496
 NAB=   506 NAA=   253 NBB=   231.
 DE(Corr)=  -1.3290144     E(CORR)=     -419.31676824     Delta=-2.62D-05
 NORM(A)=   0.12344296D+01
 Iteration Nr.  10
 **********************
 DD1Dir will call FoFMem   1 times, MxPair=      1496
 NAB=   506 NAA=   253 NBB=   231.
 DE(Corr)=  -1.3290092     E(CORR)=     -419.31676302     Delta= 5.22D-06
 NORM(A)=   0.12344451D+01
 Iteration Nr.  11
 **********************
 DD1Dir will call FoFMem   1 times, MxPair=      1496
 NAB=   506 NAA=   253 NBB=   231.
 DE(Corr)=  -1.3290242     E(CORR)=     -419.31677804     Delta=-1.50D-05
 NORM(A)=   0.12344697D+01
 Iteration Nr.  12
 **********************
 DD1Dir will call FoFMem   1 times, MxPair=      1496
 NAB=   506 NAA=   253 NBB=   231.
 DE(Corr)=  -1.3290274     E(CORR)=     -419.31678125     Delta=-3.21D-06
 NORM(A)=   0.12344975D+01
 Iteration Nr.  13
 **********************
 DD1Dir will call FoFMem   1 times, MxPair=      1496
 NAB=   506 NAA=   253 NBB=   231.
 DE(Corr)=  -1.3290340     E(CORR)=     -419.31678783     Delta=-6.58D-06
 NORM(A)=   0.12345188D+01
 Iteration Nr.  14
 **********************
 DD1Dir will call FoFMem   1 times, MxPair=      1496
 NAB=   506 NAA=   253 NBB=   231.
 DE(Corr)=  -1.3290381     E(CORR)=     -419.31679196     Delta=-4.13D-06
 NORM(A)=   0.12345317D+01
 Iteration Nr.  15
 **********************
 DD1Dir will call FoFMem   1 times, MxPair=      1496
 NAB=   506 NAA=   253 NBB=   231.
 DE(Corr)=  -1.3290396     E(CORR)=     -419.31679340     Delta=-1.44D-06
 NORM(A)=   0.12345381D+01
 Iteration Nr.  16
 **********************
 DD1Dir will call FoFMem   1 times, MxPair=      1496
 NAB=   506 NAA=   253 NBB=   231.
 DE(Corr)=  -1.3290411     E(CORR)=     -419.31679494     Delta=-1.55D-06
 NORM(A)=   0.12345409D+01
 Iteration Nr.  17
 **********************
 DD1Dir will call FoFMem   1 times, MxPair=      1496
 NAB=   506 NAA=   253 NBB=   231.
 DE(Corr)=  -1.3290413     E(CORR)=     -419.31679511     Delta=-1.62D-07
 NORM(A)=   0.12345423D+01
 Iteration Nr.  18
 **********************
 DD1Dir will call FoFMem   1 times, MxPair=      1496
 NAB=   506 NAA=   253 NBB=   231.
 DE(Corr)=  -1.3290416     E(CORR)=     -419.31679543     Delta=-3.24D-07
 NORM(A)=   0.12345429D+01
 Iteration Nr.  19
 **********************
 DD1Dir will call FoFMem   1 times, MxPair=      1496
 NAB=   506 NAA=   253 NBB=   231.
 DE(Corr)=  -1.3290417     E(CORR)=     -419.31679553     Delta=-1.00D-07
 NORM(A)=   0.12345433D+01
 Wavefunction amplitudes converged. E(Corr)=     -419.31679553    
 Largest amplitude= 7.04D-02
 Time for triples=    71435.98 seconds.
 T4(CCSD)= -0.58709571D-01
 T5(CCSD)=  0.40065982D-02
 CCSD(T)= -0.41937149850D+03

 S**2, projected HF & approx projected MPn energies after annihilation of
 unwanted spin states (see manual for definitions):

 spins       (S**2,0) (S**2,1)    PUHF        PMP2        PMP3        PMP4
 annihilated
 s+1         0.72158  0.74033 -418.010312 -419.275569 -419.298056
 s+1,s+2     0.75048  0.74988 -418.008260 -419.273646 -419.296302
 s+1 to s+3  0.75000  0.75000 -418.008300 -419.273675 -419.296315
 s+1 to s+4  0.75000  0.75000 -418.008300 -419.273675 -419.296314
 s+1 to s+5  0.75000  0.75000 -418.008300
 s+1 to s+6  0.75000  0.75000 -418.008300

 Discarding MO integrals.

 **********************************************************************

            Population analysis using the SCF density.

 **********************************************************************

 Orbital symmetries:
 Alpha Orbitals:
       Occupied  (A) (A) (A) (A) (A) (A) (A) (A) (A) (A) (A) (A)
                 (A) (A) (A) (A) (A) (A) (A) (A) (A) (A) (A) (A)
                 (A) (A) (A) (A) (A) (A) (A)
       Virtual   (A) (A) (A) (A) (A) (A) (A) (A) (A) (A) (A) (A)
                 (A) (A) (A) (A) (A) (A) (A) (A) (A) (A) (A) (A)
                 (A) (A) (A) (A) (A) (A) (A) (A) (A) (A) (A) (A)
                 (A) (A) (A) (A) (A) (A) (A) (A) (A) (A) (A) (A)
                 (A) (A) (A) (A) (A) (A) (A) (A) (A) (A) (A) (A)
                 (A) (A) (A) (A) (A) (A) (A) (A) (A) (A) (A) (A)
                 (A) (A) (A) (A) (A) (A) (A) (A) (A) (A) (A) (A)
                 (A) (A) (A) (A) (A) (A) (A) (A) (A) (A) (A) (A)
                 (A) (A) (A) (A) (A) (A) (A) (A) (A) (A) (A) (A)
                 (A) (A) (A) (A) (A) (A) (A) (A) (A) (A) (A) (A)
                 (A) (A) (A) (A) (A) (A) (A) (A) (A) (A) (A) (A)
                 (A) (A) (A) (A) (A) (A) (A) (A) (A) (A) (A) (A)
                 (A) (A) (A) (A) (A) (A) (A) (A) (A) (A) (A) (A)
                 (A) (A) (A) (A) (A) (A) (A) (A) (A) (A) (A) (A)
                 (A) (A) (A) (A) (A) (A) (A) (A) (A) (A) (A) (A)
                 (A) (A) (A) (A) (A) (A) (A) (A) (A) (A) (A) (A)
                 (A) (A)
 Beta  Orbitals:
       Occupied  (A) (A) (A) (A) (A) (A) (A) (A) (A) (A) (A) (A)
                 (A) (A) (A) (A) (A) (A) (A) (A) (A) (A) (A) (A)
                 (A) (A) (A) (A) (A) (A)
       Virtual   (A) (A) (A) (A) (A) (A) (A) (A) (A) (A) (A) (A)
                 (A) (A) (A) (A) (A) (A) (A) (A) (A) (A) (A) (A)
                 (A) (A) (A) (A) (A) (A) (A) (A) (A) (A) (A) (A)
                 (A) (A) (A) (A) (A) (A) (A) (A) (A) (A) (A) (A)
                 (A) (A) (A) (A) (A) (A) (A) (A) (A) (A) (A) (A)
                 (A) (A) (A) (A) (A) (A) (A) (A) (A) (A) (A) (A)
                 (A) (A) (A) (A) (A) (A) (A) (A) (A) (A) (A) (A)
                 (A) (A) (A) (A) (A) (A) (A) (A) (A) (A) (A) (A)
                 (A) (A) (A) (A) (A) (A) (A) (A) (A) (A) (A) (A)
                 (A) (A) (A) (A) (A) (A) (A) (A) (A) (A) (A) (A)
                 (A) (A) (A) (A) (A) (A) (A) (A) (A) (A) (A) (A)
                 (A) (A) (A) (A) (A) (A) (A) (A) (A) (A) (A) (A)
                 (A) (A) (A) (A) (A) (A) (A) (A) (A) (A) (A) (A)
                 (A) (A) (A) (A) (A) (A) (A) (A) (A) (A) (A) (A)
                 (A) (A) (A) (A) (A) (A) (A) (A) (A) (A) (A) (A)
                 (A) (A) (A) (A) (A) (A) (A) (A) (A) (A) (A) (A)
                 (A) (A) (A)
 The electronic state is 2-A.
 Alpha  occ. eigenvalues --  -20.61286 -20.59478 -20.56055 -11.41158 -11.31059
 Alpha  occ. eigenvalues --  -11.29717 -11.28625 -11.22423  -1.48256  -1.38050
 Alpha  occ. eigenvalues --   -1.35246  -1.08863  -1.04580  -0.92805  -0.84096
 Alpha  occ. eigenvalues --   -0.76810  -0.73154  -0.69700  -0.68633  -0.65483
 Alpha  occ. eigenvalues --   -0.62754  -0.60511  -0.57794  -0.54789  -0.54009
 Alpha  occ. eigenvalues --   -0.52279  -0.50415  -0.47466  -0.46308  -0.44100
 Alpha  occ. eigenvalues --   -0.41693
 Alpha virt. eigenvalues --    0.03700   0.04412   0.05712   0.06276   0.07325
 Alpha virt. eigenvalues --    0.08800   0.09654   0.10726   0.11136   0.12384
 Alpha virt. eigenvalues --    0.13294   0.13601   0.14300   0.15916   0.16576
 Alpha virt. eigenvalues --    0.16854   0.17776   0.17959   0.18410   0.19069
 Alpha virt. eigenvalues --    0.19493   0.20758   0.20997   0.21405   0.22853
 Alpha virt. eigenvalues --    0.24171   0.24499   0.25391   0.27406   0.29707
 Alpha virt. eigenvalues --    0.30296   0.30872   0.32196   0.32991   0.34400
 Alpha virt. eigenvalues --    0.35791   0.37048   0.37949   0.38937   0.40177
 Alpha virt. eigenvalues --    0.40786   0.42157   0.42611   0.43574   0.44651
 Alpha virt. eigenvalues --    0.45466   0.46341   0.46722   0.48747   0.50404
 Alpha virt. eigenvalues --    0.51975   0.53118   0.57648   0.59151   0.60700
 Alpha virt. eigenvalues --    0.61721   0.64581   0.67256   0.68912   0.69986
 Alpha virt. eigenvalues --    0.71362   0.74513   0.79273   0.80453   0.81372
 Alpha virt. eigenvalues --    0.82258   0.86128   0.86775   0.87462   0.89517
 Alpha virt. eigenvalues --    0.89844   0.91174   0.93699   0.94428   0.97875
 Alpha virt. eigenvalues --    0.99574   1.02748   1.06732   1.10364   1.14375
 Alpha virt. eigenvalues --    1.15946   1.20310   1.24389   1.25780   1.28881
 Alpha virt. eigenvalues --    1.33980   1.38408   1.40005   1.41580   1.43865
 Alpha virt. eigenvalues --    1.45041   1.49241   1.49871   1.51157   1.53175
 Alpha virt. eigenvalues --    1.55661   1.57067   1.58771   1.64514   1.67167
 Alpha virt. eigenvalues --    1.68969   1.72252   1.74029   1.78473   1.79652
 Alpha virt. eigenvalues --    1.80723   1.81690   1.84545   1.86244   1.87747
 Alpha virt. eigenvalues --    1.88676   1.92600   1.94583   1.95286   1.98107
 Alpha virt. eigenvalues --    1.99381   2.05002   2.08730   2.12624   2.13154
 Alpha virt. eigenvalues --    2.16629   2.18681   2.24737   2.31242   2.36419
 Alpha virt. eigenvalues --    2.37714   2.39604   2.42033   2.47719   2.50160
 Alpha virt. eigenvalues --    2.59431   2.62781   2.67053   2.77377   2.82776
 Alpha virt. eigenvalues --    2.84518   2.85274   2.89521   2.91453   2.94035
 Alpha virt. eigenvalues --    2.95799   2.96798   2.99678   3.01792   3.04990
 Alpha virt. eigenvalues --    3.10264   3.11718   3.12792   3.18642   3.23166
 Alpha virt. eigenvalues --    3.27256   3.28931   3.31043   3.33140   3.41556
 Alpha virt. eigenvalues --    3.42529   3.46513   3.49218   3.52000   3.55894
 Alpha virt. eigenvalues --    3.60778   3.63572   3.67108   3.70331   3.81371
 Alpha virt. eigenvalues --    3.84924   4.00105   4.05431   4.14117   4.22143
 Alpha virt. eigenvalues --    4.22396   4.26779   4.28616   4.39635   4.45957
 Alpha virt. eigenvalues --    4.56807   4.67060   5.59696   5.63185   5.67744
 Alpha virt. eigenvalues --    5.69164   5.76649   5.93271   6.06857   6.20297
 Alpha virt. eigenvalues --    6.43125  24.65003  24.98654  25.01904  25.14504
 Alpha virt. eigenvalues --   25.78196  51.57656  51.61179  51.70837
  Beta  occ. eigenvalues --  -20.61291 -20.57565 -20.56295 -11.40833 -11.33161
  Beta  occ. eigenvalues --  -11.29720 -11.25411 -11.22425  -1.48343  -1.38440
  Beta  occ. eigenvalues --   -1.29685  -1.07160  -1.03150  -0.91221  -0.82517
  Beta  occ. eigenvalues --   -0.76395  -0.71444  -0.69868  -0.68024  -0.64664
  Beta  occ. eigenvalues --   -0.62467  -0.57967  -0.55826  -0.54085  -0.52271
  Beta  occ. eigenvalues --   -0.50414  -0.49671  -0.46917  -0.46410  -0.42598
  Beta virt. eigenvalues --    0.03779   0.04218   0.04465   0.06234   0.06650
  Beta virt. eigenvalues --    0.07566   0.09073   0.09625   0.10382   0.11931
  Beta virt. eigenvalues --    0.12900   0.13575   0.13913   0.15860   0.16243
  Beta virt. eigenvalues --    0.17220   0.17259   0.17815   0.18430   0.18941
  Beta virt. eigenvalues --    0.19398   0.19928   0.20818   0.21267   0.21933
  Beta virt. eigenvalues --    0.23965   0.24293   0.24730   0.25395   0.27458
  Beta virt. eigenvalues --    0.29787   0.30445   0.30789   0.32263   0.33332
  Beta virt. eigenvalues --    0.35130   0.36933   0.37185   0.38267   0.39219
  Beta virt. eigenvalues --    0.40342   0.40862   0.42127   0.42665   0.43719
  Beta virt. eigenvalues --    0.44793   0.45562   0.46326   0.47503   0.49008
  Beta virt. eigenvalues --    0.50373   0.52114   0.53514   0.57773   0.59631
  Beta virt. eigenvalues --    0.61435   0.61832   0.64968   0.67991   0.69602
  Beta virt. eigenvalues --    0.71496   0.73536   0.78101   0.79319   0.80625
  Beta virt. eigenvalues --    0.81802   0.84923   0.85473   0.87260   0.87648
  Beta virt. eigenvalues --    0.88617   0.89919   0.91176   0.93822   0.94723
  Beta virt. eigenvalues --    0.97875   0.99642   1.02658   1.07464   1.10700
  Beta virt. eigenvalues --    1.14415   1.16300   1.20357   1.24349   1.26072
  Beta virt. eigenvalues --    1.30094   1.35544   1.38876   1.40562   1.42131
  Beta virt. eigenvalues --    1.44786   1.45403   1.50561   1.53253   1.54631
  Beta virt. eigenvalues --    1.55301   1.56182   1.57963   1.60368   1.65363
  Beta virt. eigenvalues --    1.68513   1.71316   1.72502   1.74507   1.79066
  Beta virt. eigenvalues --    1.80031   1.80683   1.81769   1.84553   1.85718
  Beta virt. eigenvalues --    1.87508   1.88793   1.92770   1.94704   1.95361
  Beta virt. eigenvalues --    1.98360   1.99402   2.05073   2.08882   2.12715
  Beta virt. eigenvalues --    2.13637   2.16675   2.19402   2.24765   2.31325
  Beta virt. eigenvalues --    2.37060   2.38525   2.39759   2.42063   2.47897
  Beta virt. eigenvalues --    2.49965   2.59525   2.62869   2.67194   2.78300
  Beta virt. eigenvalues --    2.82782   2.84563   2.85389   2.89784   2.91599
  Beta virt. eigenvalues --    2.94493   2.95843   2.96843   2.99756   3.02002
  Beta virt. eigenvalues --    3.05294   3.11279   3.13515   3.14029   3.21805
  Beta virt. eigenvalues --    3.23220   3.27161   3.29159   3.30970   3.33114
  Beta virt. eigenvalues --    3.42783   3.45548   3.47199   3.50431   3.52855
  Beta virt. eigenvalues --    3.58711   3.61029   3.63605   3.67423   3.70158
  Beta virt. eigenvalues --    3.81093   3.86901   4.00021   4.05997   4.14350
  Beta virt. eigenvalues --    4.22149   4.22405   4.26866   4.30432   4.39574
  Beta virt. eigenvalues --    4.45745   4.56731   4.67053   5.60040   5.63101
  Beta virt. eigenvalues --    5.68271   5.73722   5.77000   5.93277   6.08052
  Beta virt. eigenvalues --    6.20250   6.43073  24.64976  24.98856  25.01934
  Beta virt. eigenvalues --   25.14503  25.78918  51.58356  51.61555  51.70711
          Condensed to atoms (all electrons):
               1          2          3          4          5          6
     1  C   10.577158   0.538167  -2.403674  -2.472216  -0.058417  -0.096334
     2  H    0.538167   0.406205  -0.140862  -0.042069  -0.001201  -0.002018
     3  C   -2.403674  -0.140862   9.297227  -0.936928   0.063272  -0.202974
     4  C   -2.472216  -0.042069  -0.936928   9.410619   0.452594   0.205415
     5  O   -0.058417  -0.001201   0.063272   0.452594   7.984942  -0.135626
     6  O   -0.096334  -0.002018  -0.202974   0.205415  -0.135626   8.311379
     7  C   -0.001704  -0.000138  -0.147776   0.020783   0.044106   0.151915
     8  C    0.026694  -0.000562   0.130333  -0.211581  -0.063659  -0.075961
     9  H    0.004729   0.000065   0.006906  -0.016330   0.006700  -0.081345
    10  H   -0.019972  -0.000167  -0.054517   0.071759  -0.022591  -0.020577
    11  H    0.001451   0.000009   0.010628  -0.008876  -0.002318   0.016881
    12  H   -0.008480  -0.000003  -0.029286   0.038324   0.001379  -0.003388
    13  H    0.002375  -0.000173   0.010118  -0.034462   0.001570  -0.013562
    14  O   -0.131473  -0.003199   0.367776  -0.307290   0.001745   0.030637
    15  H   -0.073751  -0.003635   0.081904   0.004364   0.000107  -0.002999
               7          8          9         10         11         12
     1  C   -0.001704   0.026694   0.004729  -0.019972   0.001451  -0.008480
     2  H   -0.000138  -0.000562   0.000065  -0.000167   0.000009  -0.000003
     3  C   -0.147776   0.130333   0.006906  -0.054517   0.010628  -0.029286
     4  C    0.020783  -0.211581  -0.016330   0.071759  -0.008876   0.038324
     5  O    0.044106  -0.063659   0.006700  -0.022591  -0.002318   0.001379
     6  O    0.151915  -0.075961  -0.081345  -0.020577   0.016881  -0.003388
     7  C    5.409540  -0.063497   0.446031   0.442181  -0.057891  -0.025086
     8  C   -0.063497   5.495661  -0.057642  -0.046925   0.413921   0.408191
     9  H    0.446031  -0.057642   0.564154  -0.038441   0.001315  -0.007391
    10  H    0.442181  -0.046925  -0.038441   0.520918  -0.004769   0.002600
    11  H   -0.057891   0.413921   0.001315  -0.004769   0.562894  -0.035250
    12  H   -0.025086   0.408191  -0.007391   0.002600  -0.035250   0.567658
    13  H   -0.030022   0.408919   0.009156  -0.004508  -0.035906  -0.045880
    14  O   -0.012650   0.024418   0.000790  -0.002261   0.001462  -0.004348
    15  H    0.000048   0.002063   0.000381  -0.000556   0.000095  -0.001084
              13         14         15
     1  C    0.002375  -0.131473  -0.073751
     2  H   -0.000173  -0.003199  -0.003635
     3  C    0.010118   0.367776   0.081904
     4  C   -0.034462  -0.307290   0.004364
     5  O    0.001570   0.001745   0.000107
     6  O   -0.013562   0.030637  -0.002999
     7  C   -0.030022  -0.012650   0.000048
     8  C    0.408919   0.024418   0.002063
     9  H    0.009156   0.000790   0.000381
    10  H   -0.004508  -0.002261  -0.000556
    11  H   -0.035906   0.001462   0.000095
    12  H   -0.045880  -0.004348  -0.001084
    13  H    0.547553  -0.001684   0.001218
    14  O   -0.001684   8.036902   0.268243
    15  H    0.001218   0.268243   0.475483
          Atomic-Atomic Spin Densities.
               1          2          3          4          5          6
     1  C    1.757103   0.009146  -0.109598   0.243025   0.004605  -0.015610
     2  H    0.009146  -0.085800  -0.016791  -0.004749   0.000175  -0.001036
     3  C   -0.109598  -0.016791  -1.107318  -0.005458  -0.009383   0.056197
     4  C    0.243025  -0.004749  -0.005458  -0.101800   0.017494  -0.052902
     5  O    0.004605   0.000175  -0.009383   0.017494  -0.065025   0.003411
     6  O   -0.015610  -0.001036   0.056197  -0.052902   0.003411   0.006366
     7  C    0.007221  -0.000271  -0.004395  -0.007344   0.002416  -0.003904
     8  C    0.002529   0.000062   0.004638  -0.006859  -0.000435   0.002482
     9  H    0.000969  -0.000032  -0.000798  -0.001445   0.000128   0.000142
    10  H    0.000072  -0.000004   0.002163  -0.001565   0.000052   0.000307
    11  H    0.000166   0.000001   0.000434  -0.000619   0.000004   0.000078
    12  H   -0.000489  -0.000008   0.001184  -0.000523   0.000187  -0.000359
    13  H   -0.001830  -0.000066  -0.003265   0.001314  -0.000011   0.000435
    14  O   -0.227423  -0.004470   0.092050   0.085620  -0.000843   0.008518
    15  H    0.016179   0.000233   0.002450  -0.009360  -0.000093  -0.000974
               7          8          9         10         11         12
     1  C    0.007221   0.002529   0.000969   0.000072   0.000166  -0.000489
     2  H   -0.000271   0.000062  -0.000032  -0.000004   0.000001  -0.000008
     3  C   -0.004395   0.004638  -0.000798   0.002163   0.000434   0.001184
     4  C   -0.007344  -0.006859  -0.001445  -0.001565  -0.000619  -0.000523
     5  O    0.002416  -0.000435   0.000128   0.000052   0.000004   0.000187
     6  O   -0.003904   0.002482   0.000142   0.000307   0.000078  -0.000359
     7  C    0.008960  -0.005600   0.000428  -0.001151  -0.001053   0.000233
     8  C   -0.005600   0.005242   0.000015   0.000000   0.001284  -0.000754
     9  H    0.000428   0.000015   0.000396  -0.000096  -0.000005  -0.000153
    10  H   -0.001151   0.000000  -0.000096   0.000204   0.000028   0.000000
    11  H   -0.001053   0.001284  -0.000005   0.000028  -0.000297  -0.000017
    12  H    0.000233  -0.000754  -0.000153   0.000000  -0.000017   0.000118
    13  H    0.002607  -0.001836   0.000311  -0.000098  -0.000196   0.000122
    14  O    0.004020  -0.000745   0.000308   0.000059   0.000059   0.000625
    15  H   -0.000869   0.000625  -0.000142   0.000050   0.000022  -0.000156
              13         14         15
     1  C   -0.001830  -0.227423   0.016179
     2  H   -0.000066  -0.004470   0.000233
     3  C   -0.003265   0.092050   0.002450
     4  C    0.001314   0.085620  -0.009360
     5  O   -0.000011  -0.000843  -0.000093
     6  O    0.000435   0.008518  -0.000974
     7  C    0.002607   0.004020  -0.000869
     8  C   -0.001836  -0.000745   0.000625
     9  H    0.000311   0.000308  -0.000142
    10  H   -0.000098   0.000059   0.000050
    11  H   -0.000196   0.000059   0.000022
    12  H    0.000122   0.000625  -0.000156
    13  H    0.001386   0.000639  -0.000307
    14  O    0.000639   0.456155   0.001489
    15  H   -0.000307   0.001489  -0.021536
 Mulliken charges and spin densities:
               1          2
     1  C    0.115449   1.686064
     2  H    0.249580  -0.103610
     3  C   -0.052146  -1.097890
     4  C   -0.174105   0.154829
     5  O   -0.272602  -0.047318
     6  O   -0.081443   0.003153
     7  C   -0.175840   0.001299
     8  C   -0.390375   0.000649
     9  H    0.160922   0.000029
    10  H    0.177825   0.000023
    11  H    0.136353  -0.000111
    12  H    0.142044   0.000010
    13  H    0.185288  -0.000794
    14  O   -0.269069   0.416060
    15  H    0.248118  -0.012391
 Sum of Mulliken charges =  -0.00000   1.00000
 Mulliken charges and spin densities with hydrogens summed into heavy atoms:
               1          2
     1  C    0.365029   1.582453
     3  C   -0.052146  -1.097890
     4  C   -0.174105   0.154829
     5  O   -0.272602  -0.047318
     6  O   -0.081443   0.003153
     7  C    0.162907   0.001350
     8  C    0.073310  -0.000246
    14  O   -0.020950   0.403669
 Electronic spatial extent (au):  <R**2>=           1053.7454
 Charge=             -0.0000 electrons
 Dipole moment (field-independent basis, Debye):
    X=             -0.1004    Y=              0.5883    Z=             -3.2998  Tot=              3.3534
 Quadrupole moment (field-independent basis, Debye-Ang):
   XX=            -33.4504   YY=            -48.8155   ZZ=            -51.6140
   XY=              1.2157   XZ=              3.3335   YZ=             -0.1179
 Traceless Quadrupole moment (field-independent basis, Debye-Ang):
   XX=             11.1762   YY=             -4.1889   ZZ=             -6.9873
   XY=              1.2157   XZ=              3.3335   YZ=             -0.1179
 Octapole moment (field-independent basis, Debye-Ang**2):
  XXX=            -24.3421  YYY=             10.5783  ZZZ=             -0.9217  XYY=              0.6097
  XXY=             -5.8287  XXZ=            -14.7919  XZZ=              3.6756  YZZ=              4.4422
  YYZ=            -10.6500  XYZ=              5.1844
 Hexadecapole moment (field-independent basis, Debye-Ang**3):
 XXXX=           -778.2717 YYYY=           -237.4153 ZZZZ=           -164.2728 XXXY=              7.1549
 XXXZ=             31.9007 YYYX=            -22.2834 YYYZ=            -10.4058 ZZZX=             -7.9672
 ZZZY=             -0.0778 XXYY=           -207.2287 XXZZ=           -188.8470 YYZZ=            -74.9278
 XXYZ=             -5.6495 YYXZ=              8.0731 ZZXY=             -3.2068
 N-N= 3.653602633745D+02 E-N=-1.713565655062D+03  KE= 4.175079390507D+02
 1\1\GINC-CHEM-LAB-HP-Z2-TOWER-G9-WORKSTATION-DESKTOP-PC\SP\UCCSD(T)-FC
 \6-311++G(d,p)\C5H7O3(2)\CHEM-LAB\19-Aug-2025\0\\# ccsd(t)/6-311++g(d,
 p) sp\\Title Card Required\\0,2\C,0,2.728458,-0.436122,0.416651\H,0,3.
 774866,-0.450202,0.628551\C,0,1.560348,-0.065892,0.084918\C,0,0.161914
 ,-0.567136,-0.143201\O,0,-0.197159,-1.151572,-1.122919\O,0,-0.62215,-0
 .154747,0.850129\C,0,-2.042077,-0.304601,0.639692\C,0,-2.563185,0.7839
 7,-0.278016\H,0,-2.467857,-0.231655,1.638727\H,0,-2.233291,-1.298668,0
 .234364\H,0,-3.645786,0.687793,-0.381131\H,0,-2.337694,1.769023,0.1326
 21\H,0,-2.112853,0.701521,-1.267511\O,0,1.410115,1.54869,-0.360448\H,0
 ,1.486109,1.997937,0.490851\\Version=ES64L-G16RevA.03\State=2-A\HF=-41
 7.9877538\MP2=-419.255839\MP3=-419.2828339\MP4D=-419.3142205\MP4DQ=-41
 9.2896094\PUHF=-418.0103123\PMP2-0=-419.275569\PMP3-0=-419.2980558\MP4
 SDQ=-419.3112841\CCSD=-419.3167955\CCSD(T)=-419.3714985\S2=1.021849\S2
 -1=0.946549\S2A=0.798202\RMSD=5.185e-09\PG=C01 [X(C5H7O3)]\\@


 IF OTHER PEOPLE ARE GOING TO TALK, CONVERSATION IS SIMPLY IMPOSSIBLE.

                                               -- WHISTLER'S PRINCIPLE
 Job cpu time:       1 days  1 hours 22 minutes 27.0 seconds.
 Elapsed time:       0 days  1 hours  5 minutes 24.8 seconds.
 File lengths (MBytes):  RWF=  44733 Int=      0 D2E=      0 Chk=      6 Scr=      1
 Normal termination of Gaussian 16 at Tue Aug 19 17:51:09 2025.
