 Entering Gaussian System, Link 0=g16
 Initial command:
 /opt/g16/l1.exe "/home/aayush/scratches/g16/Gau-58200.inp" -scrdir="/home/aayush/scratches/g16/"
 Entering Link 1 = /opt/g16/l1.exe PID=     58203.
  
 Copyright (c) 1988,1990,1992,1993,1995,1998,2003,2009,2016,
            Gaussian, Inc.  All Rights Reserved.
  
 This is part of the Gaussian(R) 16 program.  It is based on
 the Gaussian(R) 09 system (copyright 2009, Gaussian, Inc.),
 the Gaussian(R) 03 system (copyright 2003, Gaussian, Inc.),
 the Gaussian(R) 98 system (copyright 1998, Gaussian, Inc.),
 the Gaussian(R) 94 system (copyright 1995, Gaussian, Inc.),
 the Gaussian 92(TM) system (copyright 1992, Gaussian, Inc.),
 the Gaussian 90(TM) system (copyright 1990, Gaussian, Inc.),
 the Gaussian 88(TM) system (copyright 1988, Gaussian, Inc.),
 the Gaussian 86(TM) system (copyright 1986, Carnegie Mellon
 University), and the Gaussian 82(TM) system (copyright 1983,
 Carnegie Mellon University). Gaussian is a federally registered
 trademark of Gaussian, Inc.
  
 This software contains proprietary and confidential information,
 including trade secrets, belonging to Gaussian, Inc.
  
 This software is provided under written license and may be
 used, copied, transmitted, or stored only in accord with that
 written license.
  
 The following legend is applicable only to US Government
 contracts under FAR:
  
                    RESTRICTED RIGHTS LEGEND
  
 Use, reproduction and disclosure by the US Government is
 subject to restrictions as set forth in subparagraphs (a)
 and (c) of the Commercial Computer Software - Restricted
 Rights clause in FAR 52.227-19.
  
 Gaussian, Inc.
 340 Quinnipiac St., Bldg. 40, Wallingford CT 06492
  
  
 ---------------------------------------------------------------
 Warning -- This program may not be used in any manner that
 competes with the business of Gaussian, Inc. or will provide
 assistance to any competitor of Gaussian, Inc.  The licensee
 of this program is prohibited from giving any competitor of
 Gaussian, Inc. access to this program.  By using this program,
 the user acknowledges that Gaussian, Inc. is engaged in the
 business of creating and licensing software in the field of
 computational chemistry and represents and warrants to the
 licensee that it is not a competitor of Gaussian, Inc. and that
 it will not use this program in any manner prohibited above.
 ---------------------------------------------------------------
  

 Cite this work as:
 Gaussian 16, Revision A.03,
 M. J. Frisch, G. W. Trucks, H. B. Schlegel, G. E. Scuseria, 
 M. A. Robb, J. R. Cheeseman, G. Scalmani, V. Barone, 
 G. A. Petersson, H. Nakatsuji, X. Li, M. Caricato, A. V. Marenich, 
 J. Bloino, B. G. Janesko, R. Gomperts, B. Mennucci, H. P. Hratchian, 
 J. V. Ortiz, A. F. Izmaylov, J. L. Sonnenberg, D. Williams-Young, 
 F. Ding, F. Lipparini, F. Egidi, J. Goings, B. Peng, A. Petrone, 
 T. Henderson, D. Ranasinghe, V. G. Zakrzewski, J. Gao, N. Rega, 
 G. Zheng, W. Liang, M. Hada, M. Ehara, K. Toyota, R. Fukuda, 
 J. Hasegawa, M. Ishida, T. Nakajima, Y. Honda, O. Kitao, H. Nakai, 
 T. Vreven, K. Throssell, J. A. Montgomery, Jr., J. E. Peralta, 
 F. Ogliaro, M. J. Bearpark, J. J. Heyd, E. N. Brothers, K. N. Kudin, 
 V. N. Staroverov, T. A. Keith, R. Kobayashi, J. Normand, 
 K. Raghavachari, A. P. Rendell, J. C. Burant, S. S. Iyengar, 
 J. Tomasi, M. Cossi, J. M. Millam, M. Klene, C. Adamo, R. Cammi, 
 J. W. Ochterski, R. L. Martin, K. Morokuma, O. Farkas, 
 J. B. Foresman, and D. J. Fox, Gaussian, Inc., Wallingford CT, 2016.
 
 ******************************************
 Gaussian 16:  ES64L-G16RevA.03 25-Dec-2016
                23-Jun-2025 
 ******************************************
 %nprocshared=24
 Will use up to   24 processors via shared memory.
 %mem=12GB
 %chk=ethyl_propiolate_ts1.chk
 --------------------------
 # freq 6-311++g(d,p) m062x
 --------------------------
 1/10=4,30=1,38=1/1,3;
 2/12=2,17=6,18=5,40=1/2;
 3/5=4,6=6,7=1111,11=2,25=1,30=1,71=2,74=-55,140=1/1,2,3;
 4//1;
 5/5=2,38=5,98=1/2;
 8/6=4,10=90,11=11/1;
 11/6=1,8=1,9=11,15=111,16=1/1,2,10;
 10/6=1/2;
 6/7=2,8=2,9=2,10=2,28=1/1;
 7/8=1,10=1,25=1/1,2,3,16;
 1/10=4,30=1/3;
 99//99;
 -------------------
 Title Card Required
 -------------------
 Symbolic Z-matrix:
 Charge =  0 Multiplicity = 2
 C                    -2.78557  -0.45135  -0.4292 
 H                    -3.83286  -0.44455  -0.64073 
 C                    -1.62098  -0.0703   -0.07365 
 C                    -0.22398  -0.59831   0.13003 
 O                     0.13447  -1.22416   1.08428 
 O                     0.56272  -0.14509  -0.84403 
 C                     1.98239  -0.30195  -0.63723 
 C                     2.50036   0.74803   0.32622 
 H                     2.41019  -0.18679  -1.63143 
 H                     2.17422  -1.3118   -0.27337 
 H                     3.58287   0.64894   0.42744 
 H                     2.27453   1.74915  -0.04337 
 H                     2.04827   0.62376   1.31055 
 O                    -1.475     1.4917    0.42871 
 H                    -1.54802   1.98497  -0.39769 
 

 GradGradGradGradGradGradGradGradGradGradGradGradGradGradGradGradGradGrad
 Berny optimization.
 Initialization pass.
 Trust Radius=3.00D-01 FncErr=1.00D-07 GrdErr=1.00D-07 EigMax=2.50D+02 EigMin=1.00D-04
 Number of steps in this run=      2 maximum allowed number of steps=      2.
 GradGradGradGradGradGradGradGradGradGradGradGradGradGradGradGradGradGrad

                          Input orientation:                          
 ---------------------------------------------------------------------
 Center     Atomic      Atomic             Coordinates (Angstroms)
 Number     Number       Type             X           Y           Z
 ---------------------------------------------------------------------
      1          6           0       -2.785574   -0.451354   -0.429204
      2          1           0       -3.832858   -0.444551   -0.640731
      3          6           0       -1.620983   -0.070302   -0.073654
      4          6           0       -0.223976   -0.598308    0.130025
      5          8           0        0.134469   -1.224160    1.084279
      6          8           0        0.562715   -0.145085   -0.844026
      7          6           0        1.982390   -0.301950   -0.637234
      8          6           0        2.500358    0.748027    0.326221
      9          1           0        2.410190   -0.186786   -1.631433
     10          1           0        2.174216   -1.311795   -0.273365
     11          1           0        3.582874    0.648940    0.427444
     12          1           0        2.274531    1.749153   -0.043368
     13          1           0        2.048267    0.623761    1.310553
     14          8           0       -1.474996    1.491698    0.428706
     15          1           0       -1.548018    1.984968   -0.397693
 ---------------------------------------------------------------------
                    Distance matrix (angstroms):
                    1          2          3          4          5
     1  C    0.000000
     2  H    1.068454   0.000000
     3  C    1.275887   2.313878   0.000000
     4  C    2.626046   3.693472   1.507284   0.000000
     5  O    3.378537   4.395809   2.398710   1.196150   0.000000
     6  O    3.387760   4.410450   2.316809   1.331566   2.250813
     7  C    4.774838   5.816997   3.654529   2.354690   2.688660
     8  C    5.472683   6.516660   4.220784   3.045178   3.172003
     9  H    5.339599   6.326419   4.323263   3.195452   3.691902
    10  H    5.036284   6.080461   3.998090   2.534386   2.451825
    11  H    6.519327   7.571645   5.277171   4.016988   3.978873
    12  H    5.531344   6.516854   4.299577   3.432663   3.833020
    13  H    5.248680   6.287800   3.982606   2.837285   2.669950
    14  O    2.495812   3.232997   1.647277   2.454055   3.224289
    15  H    2.732801   3.343968   2.081937   2.950405   3.914780
                    6          7          8          9         10
     6  O    0.000000
     7  C    1.443207   0.000000
     8  C    2.433431   1.516241   0.000000
     9  H    2.008709   1.088443   2.171270   0.000000
    10  H    2.069735   1.090406   2.169963   1.779235   0.000000
    11  H    3.371716   2.144593   1.091744   2.512489   2.513948
    12  H    2.675725   2.155237   1.090801   2.507631   3.071215
    13  H    2.727673   2.157581   1.090293   3.072988   2.504204
    14  O    2.907090   4.038183   4.045614   4.707032   4.655021
    15  H    3.031754   4.213212   4.294581   4.680389   4.973845
                   11         12         13         14         15
    11  H    0.000000
    12  H    1.773103   0.000000
    13  H    1.770744   1.775051   0.000000
    14  O    5.127601   3.787887   3.734214   0.000000
    15  H    5.365806   3.846172   4.207642   0.965185   0.000000
 Stoichiometry    C5H7O3(2)
 Framework group  C1[X(C5H7O3)]
 Deg. of freedom    39
 Full point group                 C1      NOp   1
 Largest Abelian subgroup         C1      NOp   1
 Largest concise Abelian subgroup C1      NOp   1
                         Standard orientation:                         
 ---------------------------------------------------------------------
 Center     Atomic      Atomic             Coordinates (Angstroms)
 Number     Number       Type             X           Y           Z
 ---------------------------------------------------------------------
      1          6           0       -2.785574   -0.451354   -0.429204
      2          1           0       -3.832858   -0.444551   -0.640731
      3          6           0       -1.620983   -0.070302   -0.073654
      4          6           0       -0.223976   -0.598308    0.130025
      5          8           0        0.134469   -1.224160    1.084279
      6          8           0        0.562715   -0.145085   -0.844026
      7          6           0        1.982390   -0.301950   -0.637234
      8          6           0        2.500358    0.748027    0.326221
      9          1           0        2.410190   -0.186786   -1.631433
     10          1           0        2.174216   -1.311795   -0.273365
     11          1           0        3.582874    0.648940    0.427444
     12          1           0        2.274531    1.749153   -0.043368
     13          1           0        2.048267    0.623761    1.310553
     14          8           0       -1.474996    1.491698    0.428706
     15          1           0       -1.548018    1.984968   -0.397693
 ---------------------------------------------------------------------
 Rotational constants (GHZ):           3.8517598           1.3148298           1.1984625
 Standard basis: 6-311++G(d,p) (5D, 7F)
 There are   233 symmetry adapted cartesian basis functions of A   symmetry.
 There are   225 symmetry adapted basis functions of A   symmetry.
   225 basis functions,   351 primitive gaussians,   233 cartesian basis functions
    31 alpha electrons       30 beta electrons
       nuclear repulsion energy       365.7404999058 Hartrees.
 NAtoms=   15 NActive=   15 NUniq=   15 SFac= 1.00D+00 NAtFMM=   60 NAOKFM=F Big=F
 Integral buffers will be    131072 words long.
 Raffenetti 2 integral format.
 Two-electron integral symmetry is turned on.
 One-electron integrals computed using PRISM.
 NBasis=   225 RedAO= T EigKep=  9.97D-06  NBF=   225
 NBsUse=   225 1.00D-06 EigRej= -1.00D+00 NBFU=   225
 ExpMin= 3.60D-02 ExpMax= 8.59D+03 ExpMxC= 1.30D+03 IAcc=3 IRadAn=         5 AccDes= 0.00D+00
 Harris functional with IExCor= 1009 and IRadAn=       5 diagonalized for initial guess.
 HarFok:  IExCor= 1009 AccDes= 0.00D+00 IRadAn=         5 IDoV= 1 UseB2=F ITyADJ=14
 ICtDFT=  3500011 ScaDFX=  1.000000  1.000000  1.000000  1.000000
 FoFCou: FMM=F IPFlag=           0 FMFlag=      100000 FMFlg1=           0
         NFxFlg=           0 DoJE=T BraDBF=F KetDBF=T FulRan=T
         wScrn=  0.000000 ICntrl=       500 IOpCl=  0 I1Cent=   200000004 NGrid=           0
         NMat0=    1 NMatS0=      1 NMatT0=    0 NMatD0=    1 NMtDS0=    0 NMtDT0=    0
 Petite list used in FoFCou.
 Initial guess <Sx>= 0.0000 <Sy>= 0.0000 <Sz>= 0.5000 <S**2>= 0.7500 S= 0.5000
 Requested convergence on RMS density matrix=1.00D-08 within 128 cycles.
 Requested convergence on MAX density matrix=1.00D-06.
 Requested convergence on             energy=1.00D-06.
 No special actions if energy rises.
 SCF Done:  E(UM062X) =  -420.226223369     A.U. after   18 cycles
            NFock= 18  Conv=0.86D-08     -V/T= 2.0038
 <Sx>= 0.0000 <Sy>= 0.0000 <Sz>= 0.5000 <S**2>= 0.7727 S= 0.5113
 <L.S>=  0.00000000000    
 Annihilation of the first spin contaminant:
 S**2 before annihilation     0.7727,   after     0.7503
 DoSCS=F DFT=T ScalE2(SS,OS)=  1.000000  1.000000
 Range of M.O.s used for correlation:     1   225
 NBasis=   225 NAE=    31 NBE=    30 NFC=     0 NFV=     0
 NROrb=    225 NOA=    31 NOB=    30 NVA=   194 NVB=   195

 **** Warning!!: The largest alpha MO coefficient is  0.95365175D+02


 **** Warning!!: The largest beta MO coefficient is  0.94904323D+02

 Symmetrizing basis deriv contribution to polar:
 IMax=3 JMax=2 DiffMx= 0.00D+00
 G2DrvN: will do    16 centers at a time, making    1 passes.
 Calling FoFCou, ICntrl=  3107 FMM=F I1Cent=   0 AccDes= 0.00D+00.
 End of G2Drv F.D. properties file   721 does not exist.
 End of G2Drv F.D. properties file   722 does not exist.
 End of G2Drv F.D. properties file   788 does not exist.
          IDoAtm=111111111111111
          Differentiating once with respect to electric field.
                with respect to dipole field.
          Differentiating once with respect to nuclear coordinates.
 Keep R1 and R2 ints in memory in canonical form, NReq=671901991.
          There are    48 degrees of freedom in the 1st order CPHF.  IDoFFX=6 NUNeed=     3.
     45 vectors produced by pass  0 Test12= 2.47D-14 2.08D-09 XBig12= 7.89D+01 2.30D+00.
 AX will form    45 AO Fock derivatives at one time.
     45 vectors produced by pass  1 Test12= 2.47D-14 2.08D-09 XBig12= 9.40D+00 4.42D-01.
     45 vectors produced by pass  2 Test12= 2.47D-14 2.08D-09 XBig12= 4.38D-01 1.08D-01.
     45 vectors produced by pass  3 Test12= 2.47D-14 2.08D-09 XBig12= 6.58D-03 9.94D-03.
     45 vectors produced by pass  4 Test12= 2.47D-14 2.08D-09 XBig12= 6.97D-05 1.06D-03.
     45 vectors produced by pass  5 Test12= 2.47D-14 2.08D-09 XBig12= 8.05D-07 7.80D-05.
     38 vectors produced by pass  6 Test12= 2.47D-14 2.08D-09 XBig12= 7.49D-09 7.66D-06.
     21 vectors produced by pass  7 Test12= 2.47D-14 2.08D-09 XBig12= 5.71D-11 7.32D-07.
      5 vectors produced by pass  8 Test12= 2.47D-14 2.08D-09 XBig12= 3.85D-13 5.47D-08.
      3 vectors produced by pass  9 Test12= 2.47D-14 2.08D-09 XBig12= 3.72D-15 4.71D-09.
 InvSVY:  IOpt=1 It=  1 EMax= 1.07D-14
 Solved reduced A of dimension   337 with    48 vectors.
 Isotropic polarizability for W=    0.000000       70.68 Bohr**3.
 End of Minotr F.D. properties file   721 does not exist.
 End of Minotr F.D. properties file   722 does not exist.
 End of Minotr F.D. properties file   788 does not exist.

 **********************************************************************

            Population analysis using the SCF density.

 **********************************************************************

 Orbital symmetries:
 Alpha Orbitals:
       Occupied  (A) (A) (A) (A) (A) (A) (A) (A) (A) (A) (A) (A)
                 (A) (A) (A) (A) (A) (A) (A) (A) (A) (A) (A) (A)
                 (A) (A) (A) (A) (A) (A) (A)
       Virtual   (A) (A) (A) (A) (A) (A) (A) (A) (A) (A) (A) (A)
                 (A) (A) (A) (A) (A) (A) (A) (A) (A) (A) (A) (A)
                 (A) (A) (A) (A) (A) (A) (A) (A) (A) (A) (A) (A)
                 (A) (A) (A) (A) (A) (A) (A) (A) (A) (A) (A) (A)
                 (A) (A) (A) (A) (A) (A) (A) (A) (A) (A) (A) (A)
                 (A) (A) (A) (A) (A) (A) (A) (A) (A) (A) (A) (A)
                 (A) (A) (A) (A) (A) (A) (A) (A) (A) (A) (A) (A)
                 (A) (A) (A) (A) (A) (A) (A) (A) (A) (A) (A) (A)
                 (A) (A) (A) (A) (A) (A) (A) (A) (A) (A) (A) (A)
                 (A) (A) (A) (A) (A) (A) (A) (A) (A) (A) (A) (A)
                 (A) (A) (A) (A) (A) (A) (A) (A) (A) (A) (A) (A)
                 (A) (A) (A) (A) (A) (A) (A) (A) (A) (A) (A) (A)
                 (A) (A) (A) (A) (A) (A) (A) (A) (A) (A) (A) (A)
                 (A) (A) (A) (A) (A) (A) (A) (A) (A) (A) (A) (A)
                 (A) (A) (A) (A) (A) (A) (A) (A) (A) (A) (A) (A)
                 (A) (A) (A) (A) (A) (A) (A) (A) (A) (A) (A) (A)
                 (A) (A)
 Beta  Orbitals:
       Occupied  (A) (A) (A) (A) (A) (A) (A) (A) (A) (A) (A) (A)
                 (A) (A) (A) (A) (A) (A) (A) (A) (A) (A) (A) (A)
                 (A) (A) (A) (A) (A) (A)
       Virtual   (A) (A) (A) (A) (A) (A) (A) (A) (A) (A) (A) (A)
                 (A) (A) (A) (A) (A) (A) (A) (A) (A) (A) (A) (A)
                 (A) (A) (A) (A) (A) (A) (A) (A) (A) (A) (A) (A)
                 (A) (A) (A) (A) (A) (A) (A) (A) (A) (A) (A) (A)
                 (A) (A) (A) (A) (A) (A) (A) (A) (A) (A) (A) (A)
                 (A) (A) (A) (A) (A) (A) (A) (A) (A) (A) (A) (A)
                 (A) (A) (A) (A) (A) (A) (A) (A) (A) (A) (A) (A)
                 (A) (A) (A) (A) (A) (A) (A) (A) (A) (A) (A) (A)
                 (A) (A) (A) (A) (A) (A) (A) (A) (A) (A) (A) (A)
                 (A) (A) (A) (A) (A) (A) (A) (A) (A) (A) (A) (A)
                 (A) (A) (A) (A) (A) (A) (A) (A) (A) (A) (A) (A)
                 (A) (A) (A) (A) (A) (A) (A) (A) (A) (A) (A) (A)
                 (A) (A) (A) (A) (A) (A) (A) (A) (A) (A) (A) (A)
                 (A) (A) (A) (A) (A) (A) (A) (A) (A) (A) (A) (A)
                 (A) (A) (A) (A) (A) (A) (A) (A) (A) (A) (A) (A)
                 (A) (A) (A) (A) (A) (A) (A) (A) (A) (A) (A) (A)
                 (A) (A) (A)
 The electronic state is 2-A.
 Alpha  occ. eigenvalues --  -19.68254 -19.64593 -19.63375 -10.70222 -10.63461
 Alpha  occ. eigenvalues --  -10.60575 -10.59413 -10.53637  -1.25717  -1.16489
 Alpha  occ. eigenvalues --   -1.12326  -0.90954  -0.87627  -0.78124  -0.70879
 Alpha  occ. eigenvalues --   -0.64732  -0.61635  -0.59461  -0.57718  -0.55098
 Alpha  occ. eigenvalues --   -0.53079  -0.49457  -0.48503  -0.46371  -0.45266
 Alpha  occ. eigenvalues --   -0.42257  -0.41671  -0.38529  -0.37494  -0.36911
 Alpha  occ. eigenvalues --   -0.31239
 Alpha virt. eigenvalues --   -0.00568   0.00329   0.00575   0.01471   0.02219
 Alpha virt. eigenvalues --    0.03075   0.03197   0.04416   0.05530   0.06063
 Alpha virt. eigenvalues --    0.07224   0.07823   0.08190   0.10157   0.10328
 Alpha virt. eigenvalues --    0.10899   0.11381   0.12112   0.12964   0.13450
 Alpha virt. eigenvalues --    0.13596   0.14074   0.15144   0.15426   0.15879
 Alpha virt. eigenvalues --    0.16893   0.17611   0.18117   0.19446   0.19912
 Alpha virt. eigenvalues --    0.20843   0.21604   0.23027   0.23648   0.24712
 Alpha virt. eigenvalues --    0.26207   0.26503   0.27936   0.29769   0.30943
 Alpha virt. eigenvalues --    0.32151   0.32417   0.32619   0.34312   0.34802
 Alpha virt. eigenvalues --    0.35302   0.36090   0.37070   0.38132   0.40103
 Alpha virt. eigenvalues --    0.40878   0.42302   0.44318   0.46824   0.48464
 Alpha virt. eigenvalues --    0.49667   0.51892   0.53993   0.55105   0.56800
 Alpha virt. eigenvalues --    0.57840   0.60089   0.62826   0.65377   0.66059
 Alpha virt. eigenvalues --    0.66811   0.68857   0.69995   0.70631   0.72208
 Alpha virt. eigenvalues --    0.73331   0.74999   0.76976   0.79328   0.81436
 Alpha virt. eigenvalues --    0.83282   0.85199   0.89308   0.93092   0.95999
 Alpha virt. eigenvalues --    0.97592   1.01442   1.05284   1.07051   1.10165
 Alpha virt. eigenvalues --    1.15154   1.18550   1.21022   1.22299   1.24505
 Alpha virt. eigenvalues --    1.25281   1.29955   1.30710   1.31807   1.33531
 Alpha virt. eigenvalues --    1.35460   1.37216   1.38404   1.44171   1.46391
 Alpha virt. eigenvalues --    1.47760   1.50701   1.52628   1.56147   1.57668
 Alpha virt. eigenvalues --    1.58112   1.59761   1.61842   1.63272   1.64403
 Alpha virt. eigenvalues --    1.65599   1.69506   1.70781   1.71144   1.74262
 Alpha virt. eigenvalues --    1.75704   1.80191   1.83988   1.87094   1.87595
 Alpha virt. eigenvalues --    1.90445   1.92845   1.99062   2.04184   2.09150
 Alpha virt. eigenvalues --    2.10533   2.12989   2.14433   2.18048   2.21173
 Alpha virt. eigenvalues --    2.30068   2.33599   2.37115   2.46201   2.51550
 Alpha virt. eigenvalues --    2.54086   2.55341   2.59975   2.61109   2.64582
 Alpha virt. eigenvalues --    2.65023   2.66796   2.69751   2.70821   2.73789
 Alpha virt. eigenvalues --    2.77871   2.79028   2.82426   2.87231   2.90711
 Alpha virt. eigenvalues --    2.94120   2.95621   2.98176   3.01323   3.07447
 Alpha virt. eigenvalues --    3.09667   3.13520   3.16012   3.20174   3.24233
 Alpha virt. eigenvalues --    3.27247   3.29622   3.31955   3.35182   3.46198
 Alpha virt. eigenvalues --    3.50847   3.64570   3.71571   3.80274   3.85731
 Alpha virt. eigenvalues --    3.85989   3.90295   3.92521   4.02373   4.08163
 Alpha virt. eigenvalues --    4.18076   4.28012   5.15526   5.17867   5.24003
 Alpha virt. eigenvalues --    5.27958   5.32139   5.47499   5.61333   5.71981
 Alpha virt. eigenvalues --    5.94787  23.57547  23.91528  23.94001  24.05734
 Alpha virt. eigenvalues --   24.63363  49.98790  50.01960  50.10284
  Beta  occ. eigenvalues --  -19.68250 -19.64140 -19.63378 -10.70166 -10.63614
  Beta  occ. eigenvalues --  -10.60574 -10.58725 -10.53637  -1.25680  -1.16482
  Beta  occ. eigenvalues --   -1.10739  -0.89878  -0.86392  -0.77435  -0.69920
  Beta  occ. eigenvalues --   -0.64513  -0.60631  -0.59123  -0.57381  -0.54521
  Beta  occ. eigenvalues --   -0.52787  -0.48775  -0.47183  -0.45311  -0.45199
  Beta  occ. eigenvalues --   -0.41912  -0.40649  -0.38477  -0.36856  -0.35394
  Beta virt. eigenvalues --   -0.08125  -0.00569   0.00476   0.01203   0.01722
  Beta virt. eigenvalues --    0.02382   0.03110   0.03463   0.04593   0.05525
  Beta virt. eigenvalues --    0.05954   0.07232   0.07775   0.08105   0.10232
  Beta virt. eigenvalues --    0.10660   0.10813   0.11665   0.12109   0.12981
  Beta virt. eigenvalues --    0.13057   0.13444   0.14083   0.15195   0.15435
  Beta virt. eigenvalues --    0.16144   0.16611   0.17446   0.18086   0.19562
  Beta virt. eigenvalues --    0.20485   0.21011   0.21534   0.23332   0.23575
  Beta virt. eigenvalues --    0.25053   0.26190   0.26494   0.27900   0.29976
  Beta virt. eigenvalues --    0.30858   0.31981   0.32395   0.32690   0.34303
  Beta virt. eigenvalues --    0.34829   0.35335   0.36114   0.37034   0.38114
  Beta virt. eigenvalues --    0.40097   0.40867   0.42231   0.44378   0.46859
  Beta virt. eigenvalues --    0.48745   0.49643   0.51877   0.54059   0.55488
  Beta virt. eigenvalues --    0.57345   0.58162   0.60625   0.62982   0.65315
  Beta virt. eigenvalues --    0.66051   0.67160   0.68562   0.70032   0.70649
  Beta virt. eigenvalues --    0.72099   0.73328   0.74895   0.76896   0.79041
  Beta virt. eigenvalues --    0.81806   0.83225   0.85216   0.89986   0.93220
  Beta virt. eigenvalues --    0.95953   0.97604   1.01722   1.05490   1.07102
  Beta virt. eigenvalues --    1.10557   1.16001   1.18784   1.21214   1.22471
  Beta virt. eigenvalues --    1.24784   1.25698   1.30459   1.33050   1.33196
  Beta virt. eigenvalues --    1.34563   1.35677   1.37598   1.39092   1.44751
  Beta virt. eigenvalues --    1.47036   1.49123   1.50821   1.52848   1.56959
  Beta virt. eigenvalues --    1.57831   1.58306   1.59793   1.61866   1.63535
  Beta virt. eigenvalues --    1.64796   1.65674   1.69826   1.70817   1.71401
  Beta virt. eigenvalues --    1.74530   1.75733   1.80371   1.84161   1.87186
  Beta virt. eigenvalues --    1.87966   1.90828   1.93060   1.99127   2.04307
  Beta virt. eigenvalues --    2.09769   2.11185   2.13090   2.14550   2.18588
  Beta virt. eigenvalues --    2.21231   2.30297   2.33794   2.37269   2.47318
  Beta virt. eigenvalues --    2.51555   2.54096   2.55424   2.60262   2.61200
  Beta virt. eigenvalues --    2.64638   2.65740   2.67081   2.70124   2.70825
  Beta virt. eigenvalues --    2.74026   2.79323   2.79859   2.82927   2.89153
  Beta virt. eigenvalues --    2.90755   2.94162   2.95672   2.98272   3.01789
  Beta virt. eigenvalues --    3.09022   3.12526   3.14747   3.17046   3.20747
  Beta virt. eigenvalues --    3.24755   3.27471   3.29633   3.32181   3.35172
  Beta virt. eigenvalues --    3.46234   3.52971   3.64563   3.71541   3.80219
  Beta virt. eigenvalues --    3.85728   3.85992   3.90293   3.93233   4.02363
  Beta virt. eigenvalues --    4.08047   4.17974   4.28011   5.15666   5.17925
  Beta virt. eigenvalues --    5.24656   5.29382   5.32524   5.47501   5.62122
  Beta virt. eigenvalues --    5.71992   5.94783  23.57719  23.91536  23.94006
  Beta virt. eigenvalues --   24.05734  24.64291  49.98576  50.01704  50.10284
          Condensed to atoms (all electrons):
               1          2          3          4          5          6
     1  C   10.043175   0.563881  -1.734472  -2.533403  -0.057945  -0.062496
     2  H    0.563881   0.427998  -0.160597  -0.045290  -0.001103  -0.002489
     3  C   -1.734472  -0.160597   8.834003  -1.245482   0.041634  -0.143332
     4  C   -2.533403  -0.045290  -1.245482   9.919047   0.461789   0.048667
     5  O   -0.057945  -0.001103   0.041634   0.461789   7.934279  -0.164438
     6  O   -0.062496  -0.002489  -0.143332   0.048667  -0.164438   8.312859
     7  C   -0.013033  -0.000193  -0.143497   0.048201   0.065665   0.119253
     8  C    0.035048  -0.000476   0.140208  -0.238041  -0.079279  -0.040364
     9  H    0.005509   0.000165   0.006473  -0.007688   0.007854  -0.089840
    10  H   -0.021369  -0.000146  -0.059166   0.078300  -0.017164  -0.016376
    11  H    0.002121   0.000030   0.013536  -0.010031  -0.002637   0.017254
    12  H   -0.006254  -0.000034  -0.025028   0.033294   0.000459   0.000002
    13  H   -0.002339  -0.000219   0.003943  -0.027390   0.007238  -0.018536
    14  O   -0.251694  -0.006349   0.477183  -0.247404  -0.000020   0.039918
    15  H   -0.053163  -0.002790   0.069728  -0.015416   0.000003  -0.004292
               7          8          9         10         11         12
     1  C   -0.013033   0.035048   0.005509  -0.021369   0.002121  -0.006254
     2  H   -0.000193  -0.000476   0.000165  -0.000146   0.000030  -0.000034
     3  C   -0.143497   0.140208   0.006473  -0.059166   0.013536  -0.025028
     4  C    0.048201  -0.238041  -0.007688   0.078300  -0.010031   0.033294
     5  O    0.065665  -0.079279   0.007854  -0.017164  -0.002637   0.000459
     6  O    0.119253  -0.040364  -0.089840  -0.016376   0.017254   0.000002
     7  C    5.454603   0.003181   0.447907   0.407546  -0.059267  -0.032798
     8  C    0.003181   5.479829  -0.065744  -0.035730   0.410133   0.413146
     9  H    0.447907  -0.065744   0.541645  -0.039613   0.000370  -0.012170
    10  H    0.407546  -0.035730  -0.039613   0.523395  -0.006144   0.007101
    11  H   -0.059267   0.410133   0.000370  -0.006144   0.538305  -0.036116
    12  H   -0.032798   0.413146  -0.012170   0.007101  -0.036116   0.546377
    13  H    0.005558   0.375549   0.012470  -0.011623  -0.034629  -0.046395
    14  O   -0.014866   0.023266   0.000990  -0.002471   0.001412  -0.003610
    15  H    0.000859   0.002618   0.000641  -0.000803   0.000201  -0.001457
              13         14         15
     1  C   -0.002339  -0.251694  -0.053163
     2  H   -0.000219  -0.006349  -0.002790
     3  C    0.003943   0.477183   0.069728
     4  C   -0.027390  -0.247404  -0.015416
     5  O    0.007238  -0.000020   0.000003
     6  O   -0.018536   0.039918  -0.004292
     7  C    0.005558  -0.014866   0.000859
     8  C    0.375549   0.023266   0.002618
     9  H    0.012470   0.000990   0.000641
    10  H   -0.011623  -0.002471  -0.000803
    11  H   -0.034629   0.001412   0.000201
    12  H   -0.046395  -0.003610  -0.001457
    13  H    0.541259  -0.002046   0.001718
    14  O   -0.002046   8.006309   0.257028
    15  H    0.001718   0.257028   0.492325
          Atomic-Atomic Spin Densities.
               1          2          3          4          5          6
     1  C    1.673565   0.056054  -0.435642  -0.020092   0.002608  -0.017888
     2  H    0.056054  -0.013218  -0.053925  -0.009244  -0.000016  -0.000705
     3  C   -0.435642  -0.053925   0.002411   0.144800  -0.002061  -0.004632
     4  C   -0.020092  -0.009244   0.144800  -0.136316   0.001228   0.016808
     5  O    0.002608  -0.000016  -0.002061   0.001228  -0.002853   0.000773
     6  O   -0.017888  -0.000705  -0.004632   0.016808   0.000773   0.003224
     7  C   -0.004364  -0.000216  -0.001678  -0.000890  -0.001110   0.002109
     8  C    0.012044   0.000205   0.005198  -0.006706   0.001669  -0.004959
     9  H   -0.000450  -0.000021  -0.001891   0.001557  -0.000092   0.000037
    10  H    0.000082   0.000005   0.001883  -0.003028  -0.000303   0.000834
    11  H    0.000403   0.000007   0.000108   0.000497   0.000086  -0.000373
    12  H   -0.001741  -0.000041  -0.000245   0.000530  -0.000029   0.000696
    13  H   -0.004546  -0.000095  -0.005452   0.005929  -0.000480   0.001059
    14  O   -0.214195  -0.006412   0.047734   0.059400   0.001067   0.006391
    15  H    0.025099   0.001176  -0.008268  -0.002730  -0.000068  -0.001281
               7          8          9         10         11         12
     1  C   -0.004364   0.012044  -0.000450   0.000082   0.000403  -0.001741
     2  H   -0.000216   0.000205  -0.000021   0.000005   0.000007  -0.000041
     3  C   -0.001678   0.005198  -0.001891   0.001883   0.000108  -0.000245
     4  C   -0.000890  -0.006706   0.001557  -0.003028   0.000497   0.000530
     5  O   -0.001110   0.001669  -0.000092  -0.000303   0.000086  -0.000029
     6  O    0.002109  -0.004959   0.000037   0.000834  -0.000373   0.000696
     7  C    0.003853  -0.001949   0.000627   0.000170  -0.000672   0.000535
     8  C   -0.001949   0.001199  -0.000630  -0.000431   0.000703  -0.001233
     9  H    0.000627  -0.000630   0.000428   0.000258  -0.000171   0.000103
    10  H    0.000170  -0.000431   0.000258  -0.000087   0.000114  -0.000009
    11  H   -0.000672   0.000703  -0.000171   0.000114   0.000005  -0.000174
    12  H    0.000535  -0.001233   0.000103  -0.000009  -0.000174   0.000682
    13  H    0.002447  -0.002538   0.000332   0.000166  -0.000525   0.000599
    14  O    0.003537  -0.001894   0.000252   0.000075  -0.000093   0.000434
    15  H   -0.000621   0.000407  -0.000113   0.000079   0.000012  -0.000176
              13         14         15
     1  C   -0.004546  -0.214195   0.025099
     2  H   -0.000095  -0.006412   0.001176
     3  C   -0.005452   0.047734  -0.008268
     4  C    0.005929   0.059400  -0.002730
     5  O   -0.000480   0.001067  -0.000068
     6  O    0.001059   0.006391  -0.001281
     7  C    0.002447   0.003537  -0.000621
     8  C   -0.002538  -0.001894   0.000407
     9  H    0.000332   0.000252  -0.000113
    10  H    0.000166   0.000075   0.000079
    11  H   -0.000525  -0.000093   0.000012
    12  H    0.000599   0.000434  -0.000176
    13  H    0.001929   0.000816  -0.000351
    14  O    0.000816   0.317464  -0.005539
    15  H   -0.000351  -0.005539  -0.005803
 Mulliken charges and spin densities:
               1          2
     1  C    0.086434   1.070936
     2  H    0.227612  -0.026447
     3  C   -0.075134  -0.311659
     4  C   -0.219154   0.051744
     5  O   -0.196335   0.000419
     6  O    0.004209   0.002093
     7  C   -0.289119   0.001780
     8  C   -0.423344   0.001086
     9  H    0.191032   0.000227
    10  H    0.194263  -0.000191
    11  H    0.165462  -0.000072
    12  H    0.163481  -0.000069
    13  H    0.195441  -0.000708
    14  O   -0.277647   0.209038
    15  H    0.252799   0.001823
 Sum of Mulliken charges =  -0.00000   1.00000
 Mulliken charges and spin densities with hydrogens summed into heavy atoms:
               1          2
     1  C    0.314046   1.044490
     3  C   -0.075134  -0.311659
     4  C   -0.219154   0.051744
     5  O   -0.196335   0.000419
     6  O    0.004209   0.002093
     7  C    0.096176   0.001816
     8  C    0.101040   0.000237
    14  O   -0.024848   0.210860
 APT charges:
               1
     1  C   -0.272705
     2  H    0.231760
     3  C    0.224768
     4  C    1.317270
     5  O   -0.750935
     6  O   -0.954489
     7  C    0.534713
     8  C   -0.041165
     9  H   -0.016141
    10  H   -0.011357
    11  H    0.010595
    12  H    0.010773
    13  H    0.030652
    14  O   -0.554261
    15  H    0.240523
 Sum of APT charges =   0.00000
 APT charges with hydrogens summed into heavy atoms:
               1
     1  C   -0.040945
     3  C    0.224768
     4  C    1.317270
     5  O   -0.750935
     6  O   -0.954489
     7  C    0.507215
     8  C    0.010855
    14  O   -0.313738
 Electronic spatial extent (au):  <R**2>=           1052.1909
 Charge=             -0.0000 electrons
 Dipole moment (field-independent basis, Debye):
    X=              0.1358    Y=              0.5268    Z=             -3.0704  Tot=              3.1182
 Quadrupole moment (field-independent basis, Debye-Ang):
   XX=            -33.8217   YY=            -48.8230   ZZ=            -51.3500
   XY=              1.2107   XZ=              3.2552   YZ=             -0.3402
 Traceless Quadrupole moment (field-independent basis, Debye-Ang):
   XX=             10.8432   YY=             -4.1581   ZZ=             -6.6851
   XY=              1.2107   XZ=              3.2552   YZ=             -0.3402
 Octapole moment (field-independent basis, Debye-Ang**2):
  XXX=            -22.3543  YYY=              9.9211  ZZZ=             -0.5109  XYY=              1.3009
  XXY=             -5.2057  XXZ=            -14.3439  XZZ=              4.1209  YZZ=              3.7790
  YYZ=             -9.8606  XYZ=              5.0754
 Hexadecapole moment (field-independent basis, Debye-Ang**3):
 XXXX=           -783.3366 YYYY=           -239.2666 ZZZZ=           -165.3677 XXXY=              8.5944
 XXXZ=             32.1986 YYYX=            -21.5883 YYYZ=            -10.9960 ZZZX=             -8.3134
 ZZZY=             -0.6344 XXYY=           -209.2669 XXZZ=           -190.2169 YYZZ=            -75.5712
 XXYZ=             -5.3307 YYXZ=              7.4996 ZZXY=             -3.0012
 N-N= 3.657404999058D+02 E-N=-1.715934768470D+03  KE= 4.186212948036D+02
  Exact polarizability:  87.432   5.681  66.504   4.523   0.206  58.094
 Approx polarizability:  88.688   6.646  79.524   6.949  -2.330  74.871
                          Isotropic Fermi Contact Couplings
        Atom                 a.u.       MegaHertz       Gauss      10(-4) cm-1
     1  C(13)              0.18356     206.35567      73.63283      68.83284
     2  H(1)              -0.01305     -58.31473     -20.80815     -19.45170
     3  C(13)             -0.02370     -26.63961      -9.50567      -8.88602
     4  C(13)              0.03886      43.68536      15.58802      14.57187
     5  O(17)             -0.00150       0.90821       0.32407       0.30295
     6  O(17)              0.00377      -2.28757      -0.81626      -0.76305
     7  C(13)             -0.00002      -0.02466      -0.00880      -0.00823
     8  C(13)             -0.00029      -0.32568      -0.11621      -0.10863
     9  H(1)               0.00006       0.25883       0.09236       0.08634
    10  H(1)              -0.00001      -0.02362      -0.00843      -0.00788
    11  H(1)               0.00000       0.01419       0.00506       0.00473
    12  H(1)               0.00002       0.09949       0.03550       0.03319
    13  H(1)               0.00002       0.08182       0.02920       0.02729
    14  O(17)              0.07294     -44.21292     -15.77627     -14.74784
    15  H(1)              -0.00417     -18.65764      -6.65751      -6.22352
 --------------------------------------------------------
       Center         ----  Spin Dipole Couplings  ----
                      3XX-RR        3YY-RR        3ZZ-RR
 --------------------------------------------------------
     1   Atom       -0.521617      0.843122     -0.321505
     2   Atom        0.071407     -0.016126     -0.055281
     3   Atom        0.136362     -0.023810     -0.112553
     4   Atom        0.032126     -0.009641     -0.022485
     5   Atom        0.005710     -0.003960     -0.001750
     6   Atom        0.004029     -0.010934      0.006905
     7   Atom        0.003539     -0.001460     -0.002079
     8   Atom        0.001788     -0.000809     -0.000979
     9   Atom        0.001537     -0.000908     -0.000629
    10   Atom        0.001972     -0.000763     -0.001210
    11   Atom        0.001095     -0.000519     -0.000576
    12   Atom        0.001842     -0.000752     -0.001090
    13   Atom        0.001871     -0.000946     -0.000925
    14   Atom       -0.254256      0.524493     -0.270237
    15   Atom       -0.028727      0.007598      0.021128
 --------------------------------------------------------
                        XY            XZ            YZ
 --------------------------------------------------------
     1   Atom       -0.248920     -0.097982      0.282574
     2   Atom       -0.003702      0.026547      0.012192
     3   Atom       -0.010868      0.056479      0.027185
     4   Atom       -0.016157      0.011025      0.000423
     5   Atom       -0.038507     -0.016421     -0.003523
     6   Atom       -0.009282     -0.014605      0.005126
     7   Atom       -0.001472     -0.000455      0.000125
     8   Atom       -0.000020      0.000089      0.000140
     9   Atom       -0.000022     -0.000725     -0.000005
    10   Atom       -0.000575     -0.000043     -0.000035
    11   Atom        0.000145      0.000180      0.000049
    12   Atom        0.000727     -0.000092      0.000069
    13   Atom        0.000083      0.001021      0.000114
    14   Atom        0.479763      0.232541      0.483049
    15   Atom        0.010878      0.005667     -0.027280
 --------------------------------------------------------


 ---------------------------------------------------------------------------------
              Anisotropic Spin Dipole Couplings in Principal Axis System
 ---------------------------------------------------------------------------------

       Atom             a.u.   MegaHertz   Gauss  10(-4) cm-1        Axes

              Baa    -0.5770   -77.431   -27.629   -25.828  0.9644  0.1224  0.2345
     1 C(13)  Bbb    -0.3785   -50.785   -18.121   -16.940 -0.1970 -0.2589  0.9456
              Bcc     0.9555   128.216    45.751    42.768 -0.1764  0.9581  0.2256
 
              Baa    -0.0640   -34.137   -12.181   -11.387 -0.1927 -0.2562  0.9472
     2 H(1)   Bbb    -0.0128    -6.819    -2.433    -2.275 -0.0375  0.9665  0.2538
              Bcc     0.0768    40.956    14.614    13.661  0.9805 -0.0134  0.1959
 
              Baa    -0.1324   -17.773    -6.342    -5.928 -0.2087 -0.2570  0.9436
     3 C(13)  Bbb    -0.0163    -2.184    -0.779    -0.728 -0.0264  0.9660  0.2573
              Bcc     0.1487    19.957     7.121     6.657  0.9776 -0.0288  0.2083
 
              Baa    -0.0257    -3.443    -1.229    -1.148 -0.2553 -0.2820  0.9248
     4 C(13)  Bbb    -0.0137    -1.840    -0.657    -0.614  0.2379  0.9088  0.3427
              Bcc     0.0394     5.283     1.885     1.762  0.9371 -0.3075  0.1649
 
              Baa    -0.0425     3.078     1.098     1.027  0.6550  0.6832  0.3227
     5 O(17)  Bbb     0.0005    -0.033    -0.012    -0.011 -0.0384 -0.3964  0.9173
              Bcc     0.0421    -3.045    -1.087    -1.016  0.7546 -0.6133 -0.2334
 
              Baa    -0.0156     1.129     0.403     0.376  0.5018  0.8550  0.1309
     6 O(17)  Bbb    -0.0075     0.545     0.194     0.182  0.5522 -0.4332  0.7124
              Bcc     0.0231    -1.674    -0.597    -0.558 -0.6658  0.2852  0.6895
 
              Baa    -0.0021    -0.284    -0.101    -0.095  0.0737 -0.0255  0.9970
     7 C(13)  Bbb    -0.0019    -0.250    -0.089    -0.083  0.2633  0.9647  0.0052
              Bcc     0.0040     0.534     0.190     0.178  0.9619 -0.2621 -0.0778
 
              Baa    -0.0011    -0.142    -0.051    -0.047 -0.0305 -0.4866  0.8731
     8 C(13)  Bbb    -0.0007    -0.098    -0.035    -0.033 -0.0103  0.8736  0.4866
              Bcc     0.0018     0.240     0.086     0.080  0.9995 -0.0059  0.0317
 
              Baa    -0.0009    -0.485    -0.173    -0.162  0.0587  0.9839  0.1688
     9 H(1)   Bbb    -0.0008    -0.452    -0.161    -0.151  0.2847 -0.1786  0.9418
              Bcc     0.0018     0.937     0.334     0.313  0.9568 -0.0073 -0.2906
 
              Baa    -0.0012    -0.649    -0.231    -0.216  0.0353  0.1218  0.9919
    10 H(1)   Bbb    -0.0009    -0.466    -0.166    -0.155  0.1945  0.9727 -0.1264
              Bcc     0.0021     1.114     0.398     0.372  0.9803 -0.1974 -0.0107
 
              Baa    -0.0006    -0.325    -0.116    -0.108 -0.0636 -0.3929  0.9174
    11 H(1)   Bbb    -0.0005    -0.277    -0.099    -0.092 -0.1251  0.9151  0.3833
              Bcc     0.0011     0.602     0.215     0.201  0.9901  0.0904  0.1074
 
              Baa    -0.0011    -0.605    -0.216    -0.202  0.1277 -0.4080  0.9040
    12 H(1)   Bbb    -0.0009    -0.480    -0.171    -0.160 -0.2185  0.8775  0.4269
              Bcc     0.0020     1.085     0.387     0.362  0.9674  0.2520 -0.0229
 
              Baa    -0.0013    -0.682    -0.244    -0.228 -0.2934 -0.2426  0.9247
    13 H(1)   Bbb    -0.0009    -0.496    -0.177    -0.165 -0.1089  0.9695  0.2198
              Bcc     0.0022     1.178     0.420     0.393  0.9498  0.0362  0.3108
 
              Baa    -0.4999    36.173    12.908    12.066 -0.2748 -0.3018  0.9129
    14 O(17)  Bbb    -0.4825    34.915    12.459    11.646  0.8762 -0.4695  0.1086
              Bcc     0.9824   -71.089   -25.366   -23.713  0.3959  0.8297  0.3935
 
              Baa    -0.0355   -18.931    -6.755    -6.315  0.8742 -0.3974 -0.2790
    15 H(1)   Bbb    -0.0071    -3.768    -1.344    -1.257  0.4845  0.6753  0.5561
              Bcc     0.0425    22.699     8.099     7.571 -0.0326 -0.6213  0.7829
 

 ---------------------------------------------------------------------------------

 Calling FoFJK, ICntrl=    100127 FMM=F ISym2X=0 I1Cent= 0 IOpClX= 1 NMat=1 NMatS=1 NMatT=0.
 Full mass-weighted force constant matrix:
 Low frequencies --- -352.3831  -68.8496   -0.0004    0.0002    0.0003   24.4829
 Low frequencies ---   36.6685   59.6586  105.3359
 ******    2 imaginary frequencies (negative Signs) ****** 
 Diagonal vibrational polarizability:
      513.1568480      63.4699336      19.6772854
 Harmonic frequencies (cm**-1), IR intensities (KM/Mole), Raman scattering
 activities (A**4/AMU), depolarization ratios for plane and unpolarized
 incident light, reduced masses (AMU), force constants (mDyne/A),
 and normal coordinates:
                      1                      2                      3
                      A                      A                      A
 Frequencies --   -352.3690               -59.6995                91.2503
 Red. masses --      2.6380                 1.2703                 3.3868
 Frc consts  --      0.1930                 0.0027                 0.0166
 IR Inten    --    125.5491                63.6195                 4.2094
  Atom  AN      X      Y      Z        X      Y      Z        X      Y      Z
     1   6     0.08  -0.11  -0.00    -0.04  -0.00   0.07     0.01   0.14  -0.05
     2   1     0.01   0.89   0.25    -0.05   0.16   0.15     0.01   0.32  -0.06
     3   6     0.03   0.26   0.09    -0.00  -0.05  -0.01     0.04   0.01   0.01
     4   6    -0.02   0.02   0.01    -0.01  -0.03  -0.01    -0.00  -0.10  -0.01
     5   8    -0.01  -0.01  -0.01     0.00  -0.06  -0.03    -0.04  -0.10  -0.01
     6   8     0.00   0.01   0.00    -0.00   0.03   0.02     0.01  -0.15  -0.03
     7   6    -0.00  -0.01   0.00    -0.00   0.03   0.01     0.01  -0.01   0.07
     8   6     0.00  -0.00  -0.00     0.00   0.02   0.01    -0.17   0.23  -0.08
     9   1     0.00  -0.01   0.00    -0.00   0.03   0.01     0.06  -0.15   0.08
    10   1    -0.01  -0.00   0.00    -0.00   0.03   0.01     0.08   0.08   0.27
    11   1     0.00  -0.00   0.00     0.00   0.01   0.03    -0.18   0.34   0.06
    12   1     0.00  -0.00  -0.00     0.03   0.03   0.01    -0.22   0.13  -0.31
    13   1     0.00  -0.00  -0.00    -0.01   0.03   0.01    -0.28   0.39  -0.11
    14   8    -0.05  -0.17  -0.07    -0.02   0.03  -0.05     0.14  -0.02   0.09
    15   1     0.01  -0.05   0.01     0.93  -0.09  -0.21     0.07   0.03   0.12
                      4                      5                      6
                      A                      A                      A
 Frequencies --    113.3490               128.5532               193.2768
 Red. masses --      3.0446                 3.3577                 1.5745
 Frc consts  --      0.0230                 0.0327                 0.0347
 IR Inten    --      6.7158                17.4770                 2.2497
  Atom  AN      X      Y      Z        X      Y      Z        X      Y      Z
     1   6     0.02  -0.00  -0.17     0.04   0.03  -0.21    -0.02  -0.03   0.06
     2   1     0.04  -0.02  -0.28     0.04   0.35  -0.25    -0.05  -0.02   0.17
     3   6    -0.03  -0.01   0.00     0.00  -0.06   0.00    -0.01  -0.01  -0.02
     4   6    -0.03   0.01   0.06     0.02   0.01   0.04     0.01   0.04  -0.07
     5   8    -0.06  -0.05   0.03     0.10   0.20   0.13     0.02   0.09  -0.04
     6   8     0.00   0.09   0.11    -0.04  -0.09  -0.06     0.04  -0.00  -0.08
     7   6    -0.00  -0.06   0.04    -0.03  -0.00  -0.09     0.02  -0.05   0.04
     8   6     0.20   0.06  -0.19    -0.07  -0.07   0.01    -0.02  -0.02   0.02
     9   1    -0.05  -0.30  -0.00    -0.05   0.12  -0.09     0.12  -0.15   0.07
    10   1    -0.11  -0.01   0.22     0.04  -0.03  -0.19    -0.07  -0.04   0.14
    11   1     0.18  -0.12  -0.17    -0.05   0.02  -0.08    -0.09  -0.33   0.46
    12   1     0.38   0.02  -0.40    -0.18  -0.05   0.13     0.43  -0.02  -0.24
    13   1     0.18   0.35  -0.16     0.01  -0.22   0.02    -0.42   0.30  -0.12
    14   8    -0.11  -0.03   0.10    -0.05  -0.05   0.15    -0.04  -0.02   0.07
    15   1     0.18  -0.01   0.08     0.67  -0.06   0.08     0.05   0.02   0.08
                      7                      8                      9
                      A                      A                      A
 Frequencies --    235.6389               250.3860               289.1958
 Red. masses --      1.8128                 2.0146                 5.1030
 Frc consts  --      0.0593                 0.0744                 0.2515
 IR Inten    --      3.3376                 8.5832                 1.1201
  Atom  AN      X      Y      Z        X      Y      Z        X      Y      Z
     1   6    -0.12   0.02   0.04    -0.04   0.03  -0.05     0.11  -0.02  -0.05
     2   1    -0.18   0.69   0.33    -0.04   0.49  -0.05     0.10   0.64   0.00
     3   6    -0.03  -0.14  -0.09    -0.01  -0.12   0.00     0.06  -0.03   0.08
     4   6     0.01  -0.02  -0.06    -0.00  -0.05   0.06     0.08  -0.03   0.07
     5   8    -0.03   0.06   0.00     0.06  -0.03   0.05     0.14  -0.16  -0.04
     6   8     0.06  -0.01  -0.01    -0.07   0.05   0.06     0.03  -0.08   0.00
     7   6     0.06  -0.01   0.05    -0.06   0.09  -0.06     0.03  -0.06  -0.04
     8   6     0.09   0.02   0.00     0.01  -0.01   0.01    -0.08  -0.03  -0.01
     9   1     0.07  -0.05   0.05    -0.13   0.19  -0.08     0.02  -0.01  -0.04
    10   1     0.04   0.01   0.09    -0.01   0.06  -0.17     0.07  -0.06  -0.06
    11   1     0.12   0.17  -0.22    -0.05  -0.35   0.30    -0.09  -0.01   0.15
    12   1    -0.12   0.01   0.08     0.42   0.05  -0.08    -0.06  -0.05  -0.07
    13   1     0.29  -0.07   0.09    -0.27   0.16  -0.10    -0.21  -0.01  -0.07
    14   8    -0.03  -0.00   0.03     0.11  -0.02  -0.08    -0.28   0.32   0.00
    15   1    -0.29   0.01   0.06    -0.28  -0.07  -0.07    -0.40   0.12  -0.11
                     10                     11                     12
                      A                      A                      A
 Frequencies --    344.3310               379.2602               451.5756
 Red. masses --      3.2129                 7.7119                 3.5973
 Frc consts  --      0.2244                 0.6536                 0.4322
 IR Inten    --     15.9823                 0.1702                 4.4497
  Atom  AN      X      Y      Z        X      Y      Z        X      Y      Z
     1   6     0.00  -0.02  -0.04    -0.20   0.48   0.05    -0.03   0.11   0.04
     2   1     0.01   0.14  -0.09    -0.12  -0.42  -0.31    -0.04  -0.02   0.13
     3   6    -0.01  -0.06   0.04    -0.07   0.09   0.11     0.05  -0.03  -0.09
     4   6     0.01   0.04  -0.01     0.04  -0.07   0.02     0.08   0.04   0.04
     5   8     0.20   0.03  -0.09     0.26  -0.03  -0.03    -0.06  -0.01   0.07
     6   8    -0.06   0.17   0.01     0.02  -0.11  -0.03     0.13   0.16   0.15
     7   6    -0.12  -0.15   0.15     0.06   0.02   0.06     0.12  -0.11  -0.13
     8   6    -0.10  -0.04  -0.00     0.09   0.03   0.05    -0.16  -0.07  -0.09
     9   1     0.03  -0.45   0.18     0.07   0.03   0.06     0.02  -0.05  -0.17
    10   1    -0.41  -0.11   0.39     0.11   0.03   0.06     0.07  -0.14  -0.20
    11   1    -0.06   0.18  -0.20     0.09  -0.04   0.00    -0.17   0.28   0.25
    12   1    -0.36  -0.11  -0.05     0.15   0.04   0.05    -0.41  -0.16  -0.18
    13   1     0.09  -0.04   0.08     0.13   0.06   0.07    -0.45  -0.17  -0.23
    14   8     0.07  -0.01  -0.03    -0.24  -0.23  -0.14    -0.05  -0.10  -0.02
    15   1    -0.03  -0.06  -0.05    -0.13  -0.24  -0.14    -0.04  -0.03   0.03
                     13                     14                     15
                      A                      A                      A
 Frequencies --    607.4219               633.2041               696.0628
 Red. masses --      4.4339                 4.9607                 1.3703
 Frc consts  --      0.9639                 1.1719                 0.3912
 IR Inten    --      3.6891                22.4116                40.0733
  Atom  AN      X      Y      Z        X      Y      Z        X      Y      Z
     1   6    -0.18  -0.12  -0.08     0.17   0.13   0.05     0.03   0.03  -0.14
     2   1    -0.09   0.11  -0.56     0.26   0.21  -0.33    -0.19  -0.26   0.92
     3   6    -0.27  -0.01   0.29     0.14  -0.23   0.31    -0.03  -0.01   0.09
     4   6    -0.05   0.09  -0.00     0.06   0.03  -0.08    -0.00  -0.01  -0.01
     5   8     0.00   0.02  -0.08    -0.23   0.03   0.02    -0.00  -0.00  -0.00
     6   8     0.09  -0.01   0.01     0.00   0.09  -0.16    -0.00   0.00   0.00
     7   6     0.22  -0.05  -0.05    -0.02   0.02  -0.01     0.01  -0.00  -0.00
     8   6     0.02   0.01   0.00     0.00  -0.00   0.01     0.00   0.00   0.00
     9   1     0.13   0.07  -0.07     0.15  -0.16   0.04    -0.00   0.01  -0.00
    10   1     0.27  -0.07  -0.13    -0.19   0.04   0.14     0.01  -0.00  -0.01
    11   1     0.02   0.26   0.24     0.00  -0.05  -0.03     0.00   0.01   0.01
    12   1    -0.14  -0.05  -0.06     0.02   0.03   0.09    -0.01  -0.00  -0.00
    13   1    -0.17  -0.06  -0.09     0.04  -0.06   0.03    -0.01  -0.00  -0.00
    14   8     0.10   0.05  -0.01    -0.05  -0.05  -0.05     0.01   0.01  -0.01
    15   1     0.07  -0.15  -0.13    -0.10  -0.47  -0.30    -0.01  -0.11  -0.08
                     16                     17                     18
                      A                      A                      A
 Frequencies --    790.6920               798.9915               891.3321
 Red. masses --      9.1274                 1.2320                 3.2532
 Frc consts  --      3.3621                 0.4634                 1.5228
 IR Inten    --     13.7090                 4.4303                16.6472
  Atom  AN      X      Y      Z        X      Y      Z        X      Y      Z
     1   6    -0.07   0.01  -0.03     0.03   0.01   0.01     0.05   0.02   0.02
     2   1    -0.12   0.07   0.20     0.03   0.02  -0.01     0.07   0.04  -0.04
     3   6    -0.01  -0.12  -0.10     0.02  -0.03   0.01     0.03  -0.05   0.04
     4   6     0.16   0.64   0.39    -0.01   0.05  -0.01    -0.07   0.07  -0.09
     5   8    -0.04  -0.18  -0.08    -0.01   0.02  -0.05     0.01   0.09  -0.16
     6   8    -0.00  -0.14  -0.13     0.01  -0.02   0.03     0.10  -0.12   0.23
     7   6    -0.04   0.03  -0.01    -0.03  -0.04   0.06    -0.07   0.07   0.03
     8   6    -0.02   0.02  -0.00    -0.01  -0.03   0.02    -0.09  -0.02  -0.10
     9   1     0.07  -0.17   0.02    -0.09   0.51   0.10    -0.28  -0.06  -0.07
    10   1    -0.04   0.11   0.21     0.12  -0.19  -0.45     0.26   0.20   0.25
    11   1    -0.03  -0.20  -0.07     0.01   0.07  -0.18    -0.12  -0.45  -0.17
    12   1     0.13   0.12   0.19    -0.05  -0.18  -0.40     0.17   0.18   0.31
    13   1     0.08  -0.10   0.03     0.13   0.42   0.14    -0.01  -0.36  -0.10
    14   8     0.03  -0.10  -0.02    -0.00  -0.01  -0.00    -0.00  -0.01   0.00
    15   1     0.08   0.05   0.07    -0.00  -0.05  -0.02    -0.01  -0.15  -0.08
                     19                     20                     21
                      A                      A                      A
 Frequencies --    917.4464              1068.1684              1110.5167
 Red. masses --      2.6401                 4.0259                 1.1837
 Frc consts  --      1.3093                 2.7064                 0.8601
 IR Inten    --      0.3102                25.4375                40.2659
  Atom  AN      X      Y      Z        X      Y      Z        X      Y      Z
     1   6    -0.09  -0.03  -0.03     0.06   0.02   0.02     0.01   0.01  -0.01
     2   1    -0.10  -0.03  -0.05     0.06   0.01   0.06     0.01  -0.00   0.02
     3   6    -0.07   0.06   0.03     0.03  -0.03  -0.04    -0.00  -0.06   0.07
     4   6     0.13  -0.06  -0.01    -0.15   0.01   0.05     0.00  -0.01  -0.02
     5   8    -0.01  -0.04   0.09     0.02  -0.00  -0.01    -0.01   0.01  -0.01
     6   8     0.16   0.05  -0.06    -0.20   0.04  -0.04     0.00  -0.00   0.00
     7   6    -0.05   0.09   0.05     0.32   0.11   0.16    -0.00  -0.00   0.01
     8   6    -0.16  -0.08  -0.07    -0.08  -0.14  -0.13     0.00   0.00  -0.00
     9   1     0.27   0.17   0.20     0.37   0.23   0.20    -0.03   0.01  -0.00
    10   1    -0.01   0.11   0.08     0.39   0.17   0.26     0.02   0.00  -0.00
    11   1    -0.14  -0.52  -0.54    -0.07  -0.25  -0.22     0.00   0.00   0.01
    12   1     0.17  -0.03  -0.11    -0.03  -0.16  -0.20    -0.01   0.00   0.01
    13   1     0.22   0.08   0.12    -0.04  -0.23  -0.14    -0.01  -0.02  -0.01
    14   8     0.01   0.02   0.00    -0.00  -0.01  -0.00    -0.01  -0.02  -0.06
    15   1     0.02   0.05   0.02    -0.02   0.03   0.02     0.13   0.87   0.46
                     22                     23                     24
                      A                      A                      A
 Frequencies --   1127.2017              1201.8838              1269.2461
 Red. masses --      2.0887                 1.7862                 4.7650
 Frc consts  --      1.5636                 1.5202                 4.5227
 IR Inten    --     21.1175                 9.7789               539.7310
  Atom  AN      X      Y      Z        X      Y      Z        X      Y      Z
     1   6    -0.01  -0.00  -0.00    -0.02  -0.01  -0.00    -0.08  -0.03  -0.02
     2   1    -0.01  -0.00  -0.01    -0.02  -0.00  -0.01    -0.09  -0.02  -0.07
     3   6    -0.01   0.01   0.01    -0.00   0.01  -0.00    -0.01   0.05   0.02
     4   6     0.03   0.00  -0.00     0.07  -0.00  -0.02     0.42   0.04  -0.18
     5   8    -0.00  -0.00   0.00    -0.01  -0.02   0.03    -0.06   0.01  -0.01
     6   8     0.05  -0.04  -0.02    -0.02   0.04  -0.06    -0.23  -0.05   0.11
     7   6    -0.11   0.18   0.10    -0.03  -0.10   0.16     0.12   0.04   0.03
     8   6     0.11  -0.14  -0.08     0.03   0.08  -0.11    -0.02  -0.04   0.06
     9   1    -0.09   0.08   0.10    -0.34   0.36   0.08    -0.60  -0.20  -0.30
    10   1    -0.20   0.16   0.08     0.30  -0.19  -0.27    -0.04   0.09   0.20
    11   1     0.10   0.38   0.32    -0.03  -0.15   0.25     0.00   0.02  -0.16
    12   1    -0.41  -0.30  -0.23    -0.01   0.23   0.35     0.01  -0.15  -0.25
    13   1    -0.37  -0.13  -0.29    -0.07  -0.41  -0.21     0.01   0.09   0.08
    14   8    -0.00   0.00   0.00     0.00   0.00   0.00    -0.00   0.01   0.00
    15   1     0.00  -0.03  -0.02     0.00  -0.03  -0.02     0.04  -0.03  -0.02
                     25                     26                     27
                      A                      A                      A
 Frequencies --   1342.6826              1400.8740              1429.3080
 Red. masses --      1.1893                 1.2657                 1.3561
 Frc consts  --      1.2633                 1.4634                 1.6323
 IR Inten    --     57.4149                14.9169                11.4566
  Atom  AN      X      Y      Z        X      Y      Z        X      Y      Z
     1   6     0.01   0.00   0.00    -0.01  -0.00  -0.00    -0.01  -0.00  -0.00
     2   1     0.01   0.00   0.01    -0.01  -0.00  -0.01    -0.01  -0.00  -0.01
     3   6    -0.00  -0.00  -0.00     0.00   0.00   0.00     0.00   0.00   0.00
     4   6    -0.04  -0.01   0.02     0.05  -0.00  -0.01     0.04   0.00  -0.01
     5   8     0.01  -0.01   0.02    -0.01   0.01  -0.01    -0.01   0.01  -0.01
     6   8     0.04   0.04  -0.06    -0.04   0.00   0.03    -0.03   0.01   0.02
     7   6    -0.03  -0.01   0.00    -0.05  -0.03  -0.04    -0.08  -0.06  -0.06
     8   6    -0.00  -0.04   0.04    -0.01  -0.08  -0.07     0.08   0.06   0.06
     9   1    -0.54  -0.17  -0.24     0.36   0.21   0.17     0.42   0.20   0.18
    10   1     0.66   0.21   0.26     0.30   0.14   0.25     0.41   0.15   0.26
    11   1     0.01   0.07  -0.04     0.00   0.38   0.31     0.06  -0.31  -0.21
    12   1    -0.02  -0.10  -0.10     0.16   0.13   0.37    -0.33  -0.13  -0.20
    13   1     0.02   0.16   0.08     0.20   0.36   0.09    -0.31  -0.17  -0.15
    14   8     0.00  -0.00   0.00    -0.00   0.00   0.00    -0.00   0.00   0.00
    15   1    -0.01  -0.01  -0.00     0.00  -0.00  -0.00     0.01  -0.00  -0.00
                     28                     29                     30
                      A                      A                      A
 Frequencies --   1491.4463              1501.5533              1513.6242
 Red. masses --      1.0402                 1.0533                 1.0915
 Frc consts  --      1.3633                 1.3993                 1.4733
 IR Inten    --     10.2397                 1.1468                17.2700
  Atom  AN      X      Y      Z        X      Y      Z        X      Y      Z
     1   6     0.00   0.00   0.00    -0.00  -0.00  -0.00     0.01   0.00   0.00
     2   1     0.00   0.00   0.00    -0.00  -0.00  -0.00     0.01   0.00   0.00
     3   6    -0.00  -0.00  -0.00     0.00   0.00   0.00    -0.00  -0.00  -0.00
     4   6    -0.00   0.00  -0.00     0.01  -0.00   0.00    -0.02   0.00  -0.00
     5   8     0.00  -0.00   0.00    -0.00   0.00  -0.00     0.01  -0.01   0.01
     6   8     0.00   0.00  -0.00    -0.01   0.00   0.00     0.02  -0.00  -0.01
     7   6    -0.01  -0.02   0.01     0.00   0.03   0.04     0.05  -0.04  -0.02
     8   6    -0.02  -0.02   0.04     0.03  -0.03  -0.00     0.02  -0.02  -0.00
     9   1    -0.00   0.13   0.04     0.11  -0.39   0.02    -0.29   0.48  -0.10
    10   1    -0.00  -0.00   0.06     0.17  -0.10  -0.38    -0.38   0.04   0.41
    11   1     0.08   0.49  -0.43     0.04  -0.04  -0.34     0.03  -0.12  -0.19
    12   1     0.56   0.09  -0.06    -0.14   0.10   0.42    -0.19   0.06   0.31
    13   1    -0.34  -0.27  -0.16    -0.39   0.40  -0.13    -0.23   0.32  -0.07
    14   8     0.00   0.00  -0.00    -0.00  -0.00  -0.00    -0.00  -0.00  -0.00
    15   1    -0.00  -0.00  -0.00     0.00  -0.00  -0.00    -0.00   0.00   0.00
                     31                     32                     33
                      A                      A                      A
 Frequencies --   1789.2042              1868.0009              3075.8590
 Red. masses --      7.5222                11.5484                 1.0354
 Frc consts  --     14.1879                23.7425                 5.7713
 IR Inten    --     42.1138               288.9024                 9.2147
  Atom  AN      X      Y      Z        X      Y      Z        X      Y      Z
     1   6    -0.40  -0.11  -0.12     0.16   0.04   0.05     0.00   0.00   0.00
     2   1    -0.60  -0.15  -0.14     0.24   0.05   0.09    -0.00   0.00  -0.00
     3   6     0.56   0.05   0.13    -0.25   0.00  -0.07    -0.00  -0.00   0.00
     4   6    -0.04  -0.10   0.18     0.27  -0.40   0.57     0.00   0.00  -0.00
     5   8    -0.05   0.08  -0.13    -0.15   0.25  -0.37     0.00   0.00   0.00
     6   8     0.00   0.01  -0.02     0.01   0.03  -0.05    -0.00  -0.00   0.00
     7   6     0.02  -0.00   0.00     0.03  -0.01   0.02    -0.00   0.00   0.00
     8   6    -0.00   0.00   0.00    -0.01   0.01   0.00    -0.02  -0.03  -0.03
     9   1    -0.06   0.04  -0.02    -0.15   0.08  -0.05     0.00  -0.00  -0.01
    10   1    -0.05  -0.02   0.03    -0.11  -0.04   0.07     0.00  -0.02   0.01
    11   1    -0.00  -0.01  -0.03    -0.00  -0.02  -0.05     0.62  -0.06   0.05
    12   1     0.01   0.00   0.00     0.03   0.01  -0.00    -0.13   0.53  -0.20
    13   1    -0.01  -0.01  -0.01    -0.03  -0.04  -0.01    -0.22  -0.07   0.47
    14   8    -0.01   0.03   0.01     0.00  -0.01  -0.00     0.00   0.00   0.00
    15   1    -0.01   0.04   0.01    -0.01  -0.01  -0.00    -0.00  -0.00  -0.00
                     34                     35                     36
                      A                      A                      A
 Frequencies --   3108.8379              3151.6731              3154.7720
 Red. masses --      1.0607                 1.1019                 1.1045
 Frc consts  --      6.0400                 6.4487                 6.4765
 IR Inten    --     19.8483                13.6382                 3.7254
  Atom  AN      X      Y      Z        X      Y      Z        X      Y      Z
     1   6    -0.00  -0.00  -0.00    -0.00   0.00   0.00    -0.00   0.00  -0.00
     2   1     0.00  -0.00   0.00     0.00  -0.00   0.00     0.00  -0.00   0.00
     3   6     0.00  -0.00  -0.00    -0.00  -0.00   0.00    -0.00  -0.00  -0.00
     4   6    -0.00  -0.00   0.00    -0.00  -0.00   0.00     0.00  -0.00   0.00
     5   8    -0.00   0.00  -0.00     0.00   0.00  -0.00    -0.00   0.00  -0.00
     6   8     0.00   0.00  -0.00    -0.00   0.00  -0.00    -0.00  -0.00  -0.00
     7   6     0.03  -0.06  -0.02     0.01   0.01  -0.03    -0.01  -0.03   0.04
     8   6    -0.01   0.01   0.00     0.06  -0.06   0.03     0.06   0.01  -0.05
     9   1    -0.22  -0.07   0.51    -0.14  -0.04   0.33     0.15   0.04  -0.35
    10   1    -0.14   0.75  -0.28     0.02  -0.08   0.03    -0.06   0.33  -0.12
    11   1     0.13  -0.02   0.01    -0.59   0.04  -0.05    -0.47   0.05  -0.05
    12   1     0.01  -0.06   0.03    -0.14   0.65  -0.24     0.03  -0.08   0.02
    13   1     0.01   0.01  -0.03     0.04  -0.00  -0.06    -0.28  -0.08   0.62
    14   8     0.00  -0.00  -0.00     0.00   0.00  -0.00     0.00   0.00  -0.00
    15   1    -0.00  -0.00   0.00    -0.00  -0.00   0.00    -0.00  -0.00   0.00
                     37                     38                     39
                      A                      A                      A
 Frequencies --   3175.2710              3421.3796              3861.4213
 Red. masses --      1.1074                 1.1208                 1.0674
 Frc consts  --      6.5782                 7.7302                 9.3773
 IR Inten    --     14.5615                69.0129                66.3487
  Atom  AN      X      Y      Z        X      Y      Z        X      Y      Z
     1   6    -0.00  -0.00  -0.00    -0.10  -0.01  -0.02     0.00  -0.00   0.00
     2   1     0.00   0.00  -0.00     0.97  -0.00   0.20     0.00   0.00  -0.00
     3   6    -0.00  -0.00   0.00     0.02   0.00   0.00    -0.00  -0.00  -0.00
     4   6    -0.00   0.00  -0.00    -0.00   0.00   0.00    -0.00   0.00  -0.00
     5   8     0.00  -0.00   0.00     0.00   0.00  -0.00     0.00  -0.00   0.00
     6   8     0.00  -0.00   0.00     0.00  -0.00  -0.00     0.00   0.00  -0.00
     7   6     0.01   0.04  -0.06    -0.00  -0.00   0.00    -0.00   0.00   0.00
     8   6     0.02   0.03  -0.05    -0.00  -0.00   0.00     0.00  -0.00   0.00
     9   1    -0.25  -0.07   0.58     0.00   0.00  -0.00     0.00   0.00  -0.00
    10   1     0.07  -0.41   0.14     0.00  -0.00   0.00     0.00  -0.00   0.00
    11   1    -0.06   0.01  -0.01     0.00  -0.00   0.00     0.00   0.00   0.00
    12   1     0.08  -0.35   0.12    -0.00  -0.00   0.00    -0.00   0.00   0.00
    13   1    -0.21  -0.05   0.45    -0.00  -0.00  -0.00    -0.00  -0.00  -0.00
    14   8     0.00  -0.00  -0.00     0.00   0.00   0.00    -0.00   0.03  -0.05
    15   1     0.00  -0.00   0.00    -0.00   0.00  -0.00     0.08  -0.51   0.85

 -------------------
 - Thermochemistry -
 -------------------
 Temperature   298.150 Kelvin.  Pressure   1.00000 Atm.
 Atom     1 has atomic number  6 and mass  12.00000
 Atom     2 has atomic number  1 and mass   1.00783
 Atom     3 has atomic number  6 and mass  12.00000
 Atom     4 has atomic number  6 and mass  12.00000
 Atom     5 has atomic number  8 and mass  15.99491
 Atom     6 has atomic number  8 and mass  15.99491
 Atom     7 has atomic number  6 and mass  12.00000
 Atom     8 has atomic number  6 and mass  12.00000
 Atom     9 has atomic number  1 and mass   1.00783
 Atom    10 has atomic number  1 and mass   1.00783
 Atom    11 has atomic number  1 and mass   1.00783
 Atom    12 has atomic number  1 and mass   1.00783
 Atom    13 has atomic number  1 and mass   1.00783
 Atom    14 has atomic number  8 and mass  15.99491
 Atom    15 has atomic number  1 and mass   1.00783
 Molecular mass:   115.03952 amu.
 Principal axes and moments of inertia in atomic units:
                           1         2         3
     Eigenvalues --   468.549771372.604381505.88041
           X            0.99989   0.01177   0.00914
           Y           -0.01205   0.99944   0.03109
           Z           -0.00877  -0.03120   0.99947
 This molecule is an asymmetric top.
 Rotational symmetry number  1.
 Warning -- assumption of classical behavior for rotation
           may cause significant error
 Rotational temperatures (Kelvin)      0.18486     0.06310     0.05752
 Rotational constants (GHZ):           3.85176     1.31483     1.19846
    2 imaginary frequencies ignored.
 Zero-point vibrational energy     292336.8 (Joules/Mol)
                                   69.87016 (Kcal/Mol)
 Warning -- explicit consideration of  11 degrees of freedom as
           vibrations may cause significant error
 Vibrational temperatures:    131.29   163.08   184.96   278.08   339.03
          (Kelvin)            360.25   416.09   495.42   545.67   649.72
                              873.94   911.04  1001.48  1137.63  1149.57
                             1282.43  1320.00  1536.86  1597.79  1621.79
                             1729.24  1826.16  1931.82  2015.55  2056.46
                             2145.86  2160.40  2177.77  2574.27  2687.64
                             4425.48  4472.92  4534.55  4539.01  4568.51
                             4922.60  5555.72
 
 Zero-point correction=                           0.111345 (Hartree/Particle)
 Thermal correction to Energy=                    0.120102
 Thermal correction to Enthalpy=                  0.121046
 Thermal correction to Gibbs Free Energy=         0.077264
 Sum of electronic and zero-point Energies=           -420.114878
 Sum of electronic and thermal Energies=              -420.106122
 Sum of electronic and thermal Enthalpies=            -420.105178
 Sum of electronic and thermal Free Energies=         -420.148960
 
                     E (Thermal)             CV                S
                      KCal/Mol        Cal/Mol-Kelvin    Cal/Mol-Kelvin
 Total                   75.365             30.256             92.147
 Electronic               0.000              0.000              1.377
 Translational            0.889              2.981             40.136
 Rotational               0.889              2.981             28.362
 Vibrational             73.587             24.295             22.273
 Vibration     1          0.602              1.955              3.633
 Vibration     2          0.607              1.938              3.211
 Vibration     3          0.611              1.925              2.968
 Vibration     4          0.635              1.849              2.196
 Vibration     5          0.655              1.786              1.836
 Vibration     6          0.663              1.762              1.728
 Vibration     7          0.686              1.694              1.479
 Vibration     8          0.723              1.587              1.192
 Vibration     9          0.749              1.514              1.042
 Vibration    10          0.810              1.357              0.791
 Vibration    11          0.966              1.016              0.437
                       Q            Log10(Q)             Ln(Q)
 Total Bot       0.289228D-35        -35.538759        -81.831017
 Total V=0       0.474712D+16         15.676430         36.096314
 Vib (Bot)       0.846438D-49        -49.072405       -112.993388
 Vib (Bot)    1  0.225270D+01          0.352704          0.812131
 Vib (Bot)    2  0.180561D+01          0.256623          0.590897
 Vib (Bot)    3  0.158641D+01          0.200417          0.461477
 Vib (Bot)    4  0.103427D+01          0.014633          0.033693
 Vib (Bot)    5  0.833764D+00         -0.078957         -0.181805
 Vib (Bot)    6  0.779340D+00         -0.108273         -0.249308
 Vib (Bot)    7  0.661548D+00         -0.179439         -0.413173
 Vib (Bot)    8  0.537780D+00         -0.269395         -0.620306
 Vib (Bot)    9  0.476978D+00         -0.321502         -0.740285
 Vib (Bot)   10  0.379267D+00         -0.421055         -0.969516
 Vib (Bot)   11  0.243947D+00         -0.612705         -1.410806
 Vib (V=0)       0.138926D+03          2.142784          4.933943
 Vib (V=0)    1  0.280753D+01          0.448324          1.032303
 Vib (V=0)    2  0.237356D+01          0.375400          0.864390
 Vib (V=0)    3  0.216334D+01          0.335125          0.771655
 Vib (V=0)    4  0.164879D+01          0.217164          0.500039
 Vib (V=0)    5  0.147219D+01          0.167965          0.386754
 Vib (V=0)    6  0.142594D+01          0.154102          0.354833
 Vib (V=0)    7  0.132924D+01          0.123605          0.284610
 Vib (V=0)    8  0.123431D+01          0.091423          0.210510
 Vib (V=0)    9  0.119102D+01          0.075919          0.174810
 Vib (V=0)   10  0.112757D+01          0.052143          0.120064
 Vib (V=0)   11  0.105634D+01          0.023802          0.054807
 Electronic      0.200000D+01          0.301030          0.693147
 Translational   0.484981D+08          7.685724         17.697035
 Rotational      0.352283D+06          5.546891         12.772189
 ***** Axes restored to original set *****
 -------------------------------------------------------------------
 Center     Atomic                   Forces (Hartrees/Bohr)
 Number     Number              X              Y              Z
 -------------------------------------------------------------------
      1        6           0.010236237   -0.011307457   -0.000089981
      2        1           0.000497769    0.002817749    0.000795697
      3        6           0.000562540    0.063117555    0.019497560
      4        6          -0.004033918    0.003228208    0.000842425
      5        8          -0.002866888   -0.001915552   -0.002841143
      6        8           0.000194540   -0.001142615   -0.000535776
      7        6           0.000044358   -0.000693070   -0.000282444
      8        6          -0.000240315   -0.000202796   -0.000159789
      9        1           0.000063295   -0.000033759    0.000003598
     10        1           0.000054162   -0.000026946    0.000000192
     11        1          -0.000020620    0.000014032    0.000017247
     12        1          -0.000006264   -0.000012832   -0.000028843
     13        1          -0.000025676   -0.000032774    0.000002066
     14        8          -0.004657981   -0.052835966   -0.017704030
     15        1           0.000198763   -0.000973775    0.000483220
 -------------------------------------------------------------------
 Cartesian Forces:  Max     0.063117555 RMS     0.013151636

 GradGradGradGradGradGradGradGradGradGradGradGradGradGradGradGradGradGrad
 Berny optimization.
 Search for a local minimum.
 Step number   1 out of a maximum of    2
 All quantities printed in internal units (Hartrees-Bohrs-Radians)
 Second derivative matrix not updated -- analytic derivatives used.
 ITU=  0
     Eigenvalues ---   -0.03481  -0.00024   0.00147   0.00162   0.00239
     Eigenvalues ---    0.00390   0.00534   0.01158   0.02145   0.02766
     Eigenvalues ---    0.03309   0.03983   0.04226   0.05508   0.06467
     Eigenvalues ---    0.07516   0.08618   0.08855   0.10246   0.11232
     Eigenvalues ---    0.12913   0.14265   0.17058   0.19320   0.23842
     Eigenvalues ---    0.29185   0.29997   0.43229   0.49278   0.61322
     Eigenvalues ---    0.67111   0.76407   0.79172   0.85444   0.87574
     Eigenvalues ---    0.92958   1.00036   1.74689   1.81129
 Eigenvalue     1 is  -3.48D-02 should be greater than     0.000000 Eigenvector:
                          Y3        Y14       Y2        Y1        Z3
   1                    0.64886  -0.43842   0.33258  -0.28000   0.20153
                          X1        Z14       X2        X14       Z2
   1                    0.19416  -0.19169   0.13974  -0.12698   0.12299
 Eigenvalue     2 is  -2.39D-04 should be greater than     0.000000 Eigenvector:
                          X15       Z15       Z2        Y15       Y2
   1                    0.89852  -0.20818   0.18078  -0.11586   0.11567
                          Y5        Z1        X2        Y3        Y13
   1                   -0.11425   0.08806  -0.08358  -0.07436   0.06978
 Quadratic step=1.527D+01 exceeds max=3.000D-01 adjusted using Lamda=-2.581D-01.
 Angle between NR and scaled steps=  73.33 degrees.
 Angle between quadratic step and forces=   6.22 degrees.
 Linear search not attempted -- first point.
 B after Tr=    -0.001136   -0.001680   -0.001960
         Rot=    1.000000    0.000232    0.000182   -0.000145 Ang=   0.04 deg.
 Variable       Old X    -DE/DX   Delta X   Delta X   Delta X     New X
                                 (Linear)    (Quad)   (Total)
    X1       -5.26397   0.01024   0.00000   0.03439   0.03381  -5.23016
    Y1       -0.85294  -0.01131   0.00000  -0.03234  -0.03591  -0.88884
    Z1       -0.81108  -0.00009   0.00000   0.00517   0.00172  -0.80936
    X2       -7.24305   0.00050   0.00000   0.01483   0.01438  -7.22868
    Y2       -0.84008   0.00282   0.00000   0.00600   0.00166  -0.83842
    Z2       -1.21081   0.00080   0.00000   0.00544   0.00124  -1.20957
    X3       -3.06321   0.00056   0.00000   0.00158   0.00044  -3.06277
    Y3       -0.13285   0.06312   0.00000   0.22202   0.21942   0.08657
    Z3       -0.13919   0.01950   0.00000   0.06853   0.06541  -0.07377
    X4       -0.42325  -0.00403   0.00000  -0.01907  -0.01998  -0.44323
    Y4       -1.13064   0.00323   0.00000   0.01714   0.01545  -1.11519
    Z4        0.24571   0.00084   0.00000   0.00488   0.00327   0.24899
    X5        0.25411  -0.00287   0.00000  -0.01187  -0.01307   0.24104
    Y5       -2.31333  -0.00192   0.00000  -0.00618  -0.00684  -2.32016
    Z5        2.04899  -0.00284   0.00000  -0.01112  -0.01192   2.03708
    X6        1.06338   0.00019   0.00000  -0.00080  -0.00127   1.06210
    Y6       -0.27417  -0.00114   0.00000  -0.00119  -0.00330  -0.27747
    Z6       -1.59498  -0.00054   0.00000  -0.00057  -0.00202  -1.59700
    X7        3.74617   0.00004   0.00000  -0.00093  -0.00146   3.74472
    Y7       -0.57060  -0.00069   0.00000  -0.00198  -0.00313  -0.57373
    Z7       -1.20420  -0.00028   0.00000  -0.00090  -0.00123  -1.20543
    X8        4.72499  -0.00024   0.00000   0.00084  -0.00093   4.72406
    Y8        1.41357  -0.00020   0.00000  -0.00165  -0.00167   1.41189
    Z8        0.61647  -0.00016   0.00000   0.00001  -0.00089   0.61558
    X9        4.55460   0.00006   0.00000   0.00045   0.00053   4.55513
    Y9       -0.35297  -0.00003   0.00000   0.00102  -0.00077  -0.35375
    Z9       -3.08296   0.00000   0.00000  -0.00014  -0.00028  -3.08324
   X10        4.10867   0.00005   0.00000   0.00165   0.00142   4.11009
   Y10       -2.47893  -0.00003   0.00000  -0.00047  -0.00120  -2.48013
   Z10       -0.51658   0.00000   0.00000  -0.00068   0.00000  -0.51658
   X11        6.77065  -0.00002   0.00000   0.00079  -0.00099   6.76966
   Y11        1.22632   0.00001   0.00000  -0.00043   0.00023   1.22654
   Z11        0.80775   0.00002   0.00000   0.00014   0.00007   0.80782
   X12        4.29824  -0.00001   0.00000   0.00113  -0.00094   4.29731
   Y12        3.30542  -0.00001   0.00000  -0.00022  -0.00070   3.30472
   Z12       -0.08195  -0.00003   0.00000   0.00119  -0.00074  -0.08270
   X13        3.87066  -0.00003   0.00000   0.00116  -0.00122   3.86944
   Y13        1.17874  -0.00003   0.00000  -0.00098  -0.00039   1.17835
   Z13        2.47659   0.00000   0.00000   0.00059  -0.00051   2.47607
   X14       -2.78734  -0.00466   0.00000  -0.01027  -0.01244  -2.79978
   Y14        2.81890  -0.05284   0.00000  -0.16625  -0.16839   2.65051
   Z14        0.81014  -0.01770   0.00000  -0.06485  -0.06906   0.74107
   X15       -2.92533   0.00020   0.00000   0.00369   0.00174  -2.92359
   Y15        3.75105  -0.00097   0.00000  -0.01160  -0.01447   3.73658
   Z15       -0.75153   0.00048   0.00000   0.01969   0.01493  -0.73660
         Item               Value     Threshold  Converged?
 Maximum Force            0.063118     0.000450     NO 
 RMS     Force            0.013152     0.000300     NO 
 Maximum Displacement     0.219424     0.001800     NO 
 RMS     Displacement     0.044682     0.001200     NO 
 Predicted change in Energy=-2.732403D-02
 GradGradGradGradGradGradGradGradGradGradGradGradGradGradGradGradGradGrad


 ----------------------------------------------------------------------

 Electric dipole moment (input orientation):
 (Debye = 10**-18 statcoulomb cm , SI units = C m)
                  (au)            (Debye)         (10**-30 SI)
   Tot        0.122680D+01      0.311820D+01      0.104012D+02
   x          0.534352D-01      0.135819D+00      0.453042D+00
   y          0.207272D+00      0.526832D+00      0.175732D+01
   z         -0.120798D+01     -0.307037D+01     -0.102417D+02

 Dipole polarizability, Alpha (input orientation).
 (esu units = cm**3 , SI units = C**2 m**2 J**-1)
 Alpha(0;0):
               (au)            (10**-24 esu)      (10**-40 SI)
   iso        0.706768D+02      0.104732D+02      0.116530D+02
   aniso      0.290351D+02      0.430256D+01      0.478725D+01
   xx         0.874325D+02      0.129562D+02      0.144157D+02
   yx         0.568072D+01      0.841796D+00      0.936624D+00
   yy         0.665035D+02      0.985481D+01      0.109650D+02
   zx         0.452302D+01      0.670242D+00      0.745745D+00
   zy         0.206265D+00      0.305654D-01      0.340086D-01
   zz         0.580944D+02      0.860870D+01      0.957847D+01

 ----------------------------------------------------------------------

 Dipole orientation:
     6         -5.29110523          0.95818366          0.42524903
     1         -7.28575182          1.00570993          0.73481556
     6         -3.06585559          0.14309838         -0.01881836
     6         -0.40795393          1.07129300         -0.45140374
     8          0.35169171          1.93481229         -2.39733809
     8          0.99390535          0.54364794          1.57050778
     6          3.69225799          0.77974021          1.25249223
     6          4.74208497         -1.47986933         -0.16238003
     1          4.41727030          0.88566367          3.17441931
     1          4.09143626          2.54579261          0.26879644
     1          6.79481423         -1.32004807         -0.29326365
     1          4.27830582         -3.22809417          0.82637678
     1          3.97046483         -1.56585981         -2.07085265
     8         -2.75983949         -2.92556748         -0.44285389
     1         -2.96917665         -3.58096776          1.24633854

 Electric dipole moment (dipole orientation):
 (Debye = 10**-18 statcoulomb cm , SI units = C m)
                  (au)            (Debye)         (10**-30 SI)
   Tot        0.122680D+01      0.311820D+01      0.104012D+02
   x          0.000000D+00      0.000000D+00      0.000000D+00
   y          0.000000D+00      0.000000D+00      0.000000D+00
   z          0.122680D+01      0.311820D+01      0.104012D+02

 Dipole polarizability, Alpha (dipole orientation).
 (esu units = cm**3 , SI units = C**2 m**2 J**-1)
 Alpha(0;0):
               (au)            (10**-24 esu)      (10**-40 SI)
   iso        0.706768D+02      0.104732D+02      0.116530D+02
   aniso      0.290351D+02      0.430256D+01      0.478725D+01
   xx         0.877280D+02      0.129999D+02      0.144644D+02
   yx        -0.622577D+01     -0.922565D+00     -0.102649D+01
   yy         0.662853D+02      0.982247D+01      0.109290D+02
   zx        -0.220921D+01     -0.327371D+00     -0.364249D+00
   zy        -0.149140D+01     -0.221003D+00     -0.245899D+00
   zz         0.580171D+02      0.859725D+01      0.956573D+01

 ----------------------------------------------------------------------
 1\1\GINC-AJ\Freq\UM062X\6-311++G(d,p)\C5H7O3(2)\AAYUSH\23-Jun-2025\0\\
 # freq 6-311++g(d,p) m062x\\Title Card Required\\0,2\C,-2.785574,-0.45
 1354,-0.429204\H,-3.832858,-0.444551,-0.640731\C,-1.620983,-0.070302,-
 0.073654\C,-0.223976,-0.598308,0.130025\O,0.134469,-1.22416,1.084279\O
 ,0.562715,-0.145085,-0.844026\C,1.98239,-0.30195,-0.637234\C,2.500358,
 0.748027,0.326221\H,2.41019,-0.186786,-1.631433\H,2.174216,-1.311795,-
 0.273365\H,3.582874,0.64894,0.427444\H,2.274531,1.749153,-0.043368\H,2
 .048267,0.623761,1.310553\O,-1.474996,1.491698,0.428706\H,-1.548018,1.
 984968,-0.397693\\Version=ES64L-G16RevA.03\State=2-A\HF=-420.2262234\S
 2=0.772735\S2-1=0.\S2A=0.750342\RMSD=8.596e-09\RMSF=1.315e-02\ZeroPoin
 t=0.1113452\Thermal=0.1201016\Dipole=0.0534352,0.2072717,-1.2079782\Di
 poleDeriv=-0.3497656,-0.0502962,-0.0464922,-0.0446702,-0.2789647,-0.03
 7382,-0.1172893,-0.0422502,-0.1893849,0.2355981,0.0130656,0.0004198,0.
 0692684,0.2264089,0.0126954,0.0367108,-0.0002244,0.2332724,0.0880136,0
 .1249689,0.0610376,0.2247859,0.5791088,0.2140664,0.1187416,0.156609,0.
 007181,1.8580094,-0.1646946,-0.1829777,-0.0561532,0.7251544,-0.6514416
 ,-0.5659438,-0.6889681,1.3686449,-0.7886261,0.1957188,-0.1740759,0.066
 2731,-0.610214,0.3707628,0.0622039,0.4149337,-0.8539649,-1.6452038,-0.
 1872399,0.3261644,-0.1552555,-0.4196294,0.192054,0.463953,0.2366115,-0
 .7986328,0.989324,0.1051504,-0.0456346,0.0064246,0.2910525,0.0814974,0
 .0729015,0.0310259,0.3237624,-0.0656499,-0.032468,0.0295428,-0.0447536
 ,-0.0106307,-0.0818827,-0.0370257,-0.0549126,-0.0472136,-0.0267225,-0.
 0121123,0.0243242,-0.0247834,0.0679421,0.008984,0.0628873,-0.0170804,-
 0.0896426,-0.0194232,-0.0386498,0.0092759,0.0386366,-0.0712515,-0.0055
 946,-0.057483,0.032492,0.0566033,-0.1268138,0.0005596,-0.019979,0.0135
 496,0.0672726,-0.0059931,-0.0200928,-0.0190585,0.0913262,0.0798129,0.0
 524229,-0.0288712,0.0071591,-0.0761019,0.0220079,-0.0311414,0.0535973,
 0.028607,0.0751728,-0.0027305,0.0693653,-0.0174014,0.047102,0.0169522,
 0.0467041,-0.0113256,-0.0303199,-0.5935618,0.0355499,0.0051398,-0.0653
 882,-0.8351349,-0.1183982,0.0053978,-0.0276521,-0.2340851,0.2898357,-0
 .0392448,-0.0272391,-0.0176917,0.2978859,-0.0183281,-0.040524,-0.06379
 75,0.1338466\Polar=87.432464,5.6807217,66.5035407,4.5230167,0.2062654,
 58.0944117\Quadrupole=8.0616556,-3.0914736,-4.9701819,0.9001617,2.4201
 463,-0.2529321\PG=C01 [X(C5H7O3)]\NImag=2\\1.02696335,0.16856445,0.079
 05412,0.25456426,0.04485390,0.11594533,-0.39600474,-0.00924887,-0.0791
 0163,0.38926220,0.01272465,0.00378446,0.00991519,0.00146189,0.00140332
 ,-0.07278039,0.00503967,-0.03618234,0.07692314,-0.00352654,0.02956865,
 -0.61324286,-0.13708631,-0.16534231,0.00602843,-0.01732682,-0.00293366
 ,0.89650153,-0.11322903,-0.03056680,-0.02250698,0.00733436,-0.01147595
 ,-0.00151725,0.03744588,0.06454689,-0.15687700,-0.02623381,-0.07900718
 ,0.00291715,-0.00748738,0.00094356,0.16742209,-0.03912184,0.18838832,-
 0.00766785,-0.00175789,0.00002938,-0.00006534,0.00199460,-0.00220104,-
 0.18421467,0.05651124,-0.01233087,0.61857285,-0.02027425,-0.00036233,-
 0.00449280,-0.00068013,0.00229753,-0.00099205,0.04214191,-0.05943229,0
 .00510451,-0.12600156,0.46289364,-0.00956410,-0.00031965,-0.00422842,-
 0.00138532,-0.00061108,0.00715436,-0.00515271,0.00482294,-0.06164296,0
 .08744917,-0.34163928,0.75549662,-0.00116721,0.00254802,-0.00088579,-0
 .00003306,-0.00054921,0.00183321,-0.01412038,0.01827257,-0.03565634,-0
 .18243276,0.12350135,-0.17513532,0.16949868,0.00244349,-0.00125000,0.0
 0144366,0.00030290,-0.00017343,-0.00121999,0.02208505,0.00082125,0.025
 09119,0.11733520,-0.27288835,0.29147864,-0.13147273,0.27753812,0.00083
 510,0.00135279,0.00113402,-0.00009696,-0.00015333,-0.00011523,-0.02002
 976,0.01559523,-0.01007214,-0.17362682,0.29145583,-0.51618050,0.177923
 38,-0.37065184,0.60329566,-0.00462540,0.00253642,0.00001251,0.00068075
 ,0.00053786,-0.00151883,-0.04792223,-0.01323676,0.03196591,-0.19179557
 ,-0.03319975,0.08885350,0.02835742,-0.01451885,0.02645181,0.48839419,0
 .00131789,0.00075944,0.00014879,-0.00003805,-0.00031713,0.00021096,0.0
 0493593,0.00525757,-0.00194583,-0.02807981,-0.09880580,0.06324904,-0.0
 1532280,-0.00137940,0.05862473,0.01858029,0.16040068,0.00212619,-0.000
 04287,0.00092338,0.00001851,-0.00010301,-0.00080548,0.00781592,0.00212
 342,0.00381061,0.07017117,0.06127568,-0.18973678,0.02412810,0.05894184
 ,-0.07795868,-0.09064138,-0.13521702,0.34577978,0.00111129,-0.00034120
 ,0.00042673,-0.00028274,-0.00003999,-0.00000947,0.00128955,-0.00147211
 ,-0.00048641,-0.05214380,-0.01280187,0.03447904,-0.00096611,0.01081042
 ,-0.01735239,-0.17559143,0.01817169,-0.01391371,0.44813778,0.00069223,
 0.00018413,-0.00006868,0.00003143,-0.00007268,0.00002764,0.00013828,0.
 00264799,0.00276984,-0.01297846,0.00774895,-0.01092594,0.00213547,-0.0
 0573478,0.00078944,0.02559042,-0.07795105,0.01775455,-0.00825620,0.585
 19507,0.00097337,-0.00034182,0.00012192,0.00001060,-0.00009677,0.00034
 799,0.00487909,0.00383561,-0.00201743,0.03322235,-0.00770011,0.0064846
 6,0.00166420,-0.00129552,-0.00357104,-0.03440096,0.01750375,-0.0881329
 5,-0.06179509,-0.05145442,0.60962129,0.00000428,0.00009455,0.00001680,
 0.00007140,0.00000255,-0.00000159,0.00008923,0.00069994,0.00094721,0.0
 0147906,0.00129101,-0.00953556,0.00090787,-0.00218233,0.00226297,-0.03
 862106,-0.02889940,-0.02491369,-0.08073139,-0.02045563,-0.01471131,0.5
 7550320,0.00008481,-0.00012137,0.00000751,-0.00000229,0.00001005,-0.00
 000506,-0.00024045,0.00018267,-0.00020158,-0.00098740,-0.00148114,0.00
 274492,-0.00075130,0.00068785,-0.00149762,0.00142550,0.00702287,0.0013
 1903,-0.03007467,-0.15423447,-0.06177441,-0.02568478,0.54264668,0.0000
 8837,0.00002699,0.00000018,0.00000694,-0.00001693,-0.00000312,-0.00035
 663,0.00019637,0.00012022,0.00129011,0.00006980,0.00348508,-0.00150455
 ,-0.00119070,-0.00138022,-0.00729854,-0.00156792,-0.00156559,-0.022239
 41,-0.06030913,-0.13980776,-0.02405442,-0.04156521,0.55036455,-0.00044
 568,0.00015725,-0.00008674,0.00002739,0.00004562,-0.00007870,-0.001164
 60,-0.00111423,0.00088963,-0.00405690,0.00490930,-0.00447451,0.0016048
 8,-0.00082119,0.00110371,-0.03338687,-0.00687744,0.03431398,-0.0816446
 7,-0.00964335,0.08847735,0.00682548,0.00200684,-0.01167505,0.10784814,
 0.00001824,-0.00000449,-0.00000827,0.00001102,-0.00000150,0.00002237,0
 .00029257,0.00018888,-0.00004197,0.00062302,-0.00154163,0.00236802,-0.
 00194452,0.00087690,-0.00037648,0.00457927,0.00150732,-0.00492818,-0.0
 1339667,-0.05764195,0.03228652,0.00941654,0.00291507,-0.02385250,0.013
 76917,0.05565959,-0.00001264,0.00003033,0.00001823,-0.00000929,-0.0000
 0259,-0.00003704,-0.00029251,-0.00024895,0.00011632,-0.00226233,0.0004
 6415,-0.00000548,0.00089862,-0.00045902,0.00068157,-0.00434129,-0.0003
 3882,0.00798925,0.10151567,0.03105272,-0.28594845,0.00650920,0.0025172
 9,-0.01772192,-0.10306399,-0.03025524,0.30227471,-0.00020929,-0.000007
 73,0.00002937,0.00002316,0.00004362,-0.00004790,-0.00018674,-0.0004524
 3,-0.00004847,0.00256950,0.00511035,-0.00723939,0.00044133,-0.00208920
 ,0.00344370,-0.02730299,0.03470990,-0.01181041,-0.05475475,0.03127857,
 -0.00930167,0.00390234,-0.01159382,0.00458968,0.00414815,-0.01196168,0
 .00308347,0.07142051,-0.00003584,0.00004633,-0.00002768,-0.00001040,-0
 .00001663,0.00002046,-0.00000944,-0.00025243,-0.00024843,-0.00099198,-
 0.00105445,0.00340277,-0.00261894,0.00092016,-0.00043265,0.00681550,0.
 00149239,0.00009693,0.04144601,-0.28473234,0.08406388,0.00226162,-0.01
 994973,0.00727520,-0.00083360,-0.00061283,0.00041705,-0.04419621,0.304
 48809,-0.00006353,0.00002470,0.00000082,0.00001905,0.00000361,0.000011
 37,0.00003569,0.00026567,0.00002879,0.00218983,-0.00055835,0.00055328,
 0.00098707,-0.00033312,-0.00117876,-0.00535152,0.00289545,-0.00145484,
 -0.01527527,0.08720713,-0.08365155,0.00398650,-0.02219368,0.00835997,-
 0.00494669,0.02652322,-0.00769354,0.01939880,-0.09175729,0.08617183,-0
 .00008142,-0.00000658,-0.00003386,0.00002381,0.00001719,0.00001313,0.0
 0014390,0.00015961,0.00008318,0.00133863,0.00079411,-0.00129101,-0.000
 02737,-0.00048966,0.00034044,-0.00081955,-0.00265014,-0.00107551,-0.01
 064161,0.00316376,0.00125279,-0.31433395,0.02469485,-0.02485389,0.0002
 8397,-0.00005692,-0.00037534,0.00022980,-0.00044405,0.00006309,0.34056
 442,-0.00004213,0.00009510,0.00000735,0.00000939,-0.00001058,-0.000009
 43,-0.00000426,-0.00009478,0.00025281,0.00075267,0.00058350,-0.0021427
 5,0.00010692,-0.00060497,0.00060062,-0.00536912,-0.00359202,-0.0032484
 7,-0.02174227,0.00378689,0.00139298,0.02617907,-0.04961904,0.00138695,
 0.00053648,0.00085312,0.00008099,0.00053669,0.00018886,0.00100613,-0.0
 2669996,0.04979583,-0.00003126,0.00005327,0.00000890,0.00000867,-0.000
 00258,-0.00000741,-0.00007157,-0.00011051,0.00013703,0.00055244,0.0008
 8392,-0.00333170,0.00059699,-0.00023319,0.00133917,-0.00550508,-0.0045
 8694,-0.00160326,-0.01934411,0.00552484,-0.00092091,-0.02333593,0.0010
 1265,-0.04853138,0.00059454,0.00086110,0.00011036,0.00037021,0.0000422
 3,0.00075088,0.02784867,-0.00041426,0.04915773,0.00002239,0.00006784,0
 .00001571,-0.00001808,-0.00002300,-0.00000396,-0.00000980,-0.00019727,
 -0.00006081,-0.00027625,-0.00078277,0.00133274,-0.00051241,0.00016219,
 -0.00066437,0.00220993,0.00048551,0.00057213,0.00054807,-0.01234966,0.
 00366733,-0.05904436,0.05368151,-0.01907540,0.00012181,0.00079106,0.00
 025414,-0.00026230,-0.00194565,-0.00166250,-0.00479007,0.02986830,-0.0
 1100139,0.05910631,-0.00004271,0.00006881,0.00000124,-0.00000366,-0.00
 001327,0.00000030,-0.00006898,-0.00021968,-0.00002660,0.00005106,-0.00
 068408,0.00063573,-0.00030869,0.00026771,-0.00040888,0.00049351,0.0025
 5114,0.00065893,0.00565722,-0.02348484,0.00795741,0.05168847,-0.274981
 54,0.08696385,0.00010064,0.00091822,-0.00009887,-0.00168712,-0.0014844
 1,-0.00372716,0.00012386,-0.00076578,0.00007798,-0.05636612,0.29979904
 ,0.00000294,-0.00005775,-0.00002567,0.00000162,0.00001405,0.00000385,-
 0.00000842,0.00006277,0.00002727,-0.00038132,0.00045078,-0.00022998,0.
 00049665,0.00025695,0.00040979,0.00182374,0.00158806,0.00076139,0.0053
 7067,-0.02400751,0.00796295,-0.02019498,0.08912013,-0.08219316,0.00064
 515,0.00056680,0.00105542,-0.00234652,-0.00311822,-0.00276825,0.000053
 30,0.00173082,-0.00229841,0.02284215,-0.09252012,0.08563408,0.00009277
 ,0.00005101,0.00004732,-0.00002249,-0.00002776,-0.00001421,-0.00013565
 ,-0.00014322,-0.00008160,-0.00078754,-0.00020120,-0.00113652,-0.000645
 28,-0.00079441,0.00045679,0.00137659,0.00097008,0.00102230,0.00450633,
 0.00145165,-0.01307350,-0.09583246,-0.01266319,0.10512858,-0.00018596,
 -0.00214315,-0.00202916,0.00004394,0.00050455,0.00070769,-0.01169075,-
 0.00415221,0.02924537,0.00278344,0.00034556,-0.00816299,0.10015903,0.0
 0005149,-0.00005617,0.00000878,-0.00000079,0.00001122,-0.00001305,-0.0
 0017348,0.00002043,0.00008280,-0.00074078,0.00157171,-0.00202327,0.000
 35506,-0.00118222,0.00128611,0.00004292,0.00065401,0.00276498,0.012870
 55,0.00276397,-0.02445240,-0.01492582,-0.05267006,0.03260636,-0.002493
 34,-0.00317117,-0.00312918,0.00061708,0.00092224,0.00044637,0.00135684
 ,-0.00095832,-0.00325003,-0.01366255,-0.00221426,0.02613291,0.01683864
 ,0.05461161,0.00003636,0.00002140,0.00004318,-0.00001472,-0.00001064,-
 0.00002386,-0.00021011,-0.00031453,-0.00006532,-0.00074876,0.00051789,
 -0.00186391,0.00107763,0.00050612,0.00116559,-0.00031527,0.00076865,0.
 00210953,0.00937298,0.00154596,-0.02067435,0.10291647,0.03037116,-0.27
 092977,-0.00171744,-0.00318700,-0.00083712,-0.00018041,0.00030287,0.00
 082681,-0.00204688,-0.00064636,0.00510392,0.00385309,0.00050952,-0.008
 36249,-0.11225066,-0.03038742,0.29351786,-0.00477555,-0.02453421,-0.00
 873392,0.00027782,0.00163567,0.00102044,-0.04000269,0.01131981,-0.0019
 4047,-0.00389488,0.01342863,0.00548577,-0.00006031,-0.00075450,-0.0017
 7189,0.00011570,0.00437706,0.00106964,0.00156915,-0.00066065,-0.000950
 72,-0.00028580,-0.00019785,0.00006300,0.00004823,-0.00004480,0.0001101
 5,-0.00018399,0.00014386,-0.00010412,-0.00025623,0.00015654,0.00004680
 ,0.00035690,0.00020848,-0.00023866,0.00032010,-0.00015831,0.00027228,0
 .04913365,-0.05170202,-0.05190483,-0.02695981,0.00110676,0.00463477,0.
 00166431,0.04483652,0.04370989,0.02056699,-0.00656212,-0.03444884,-0.0
 0976252,0.00655738,0.00089295,0.00416305,0.00624075,0.00187575,-0.0014
 1295,-0.00172933,0.00124617,0.00012707,0.00058121,-0.00048945,0.000040
 92,0.00029584,0.00005385,-0.00004936,-0.00012537,0.00004362,0.00025143
 ,0.00008590,0.00037803,0.00015265,0.00026019,0.00024687,-0.00023443,-0
 .00009540,-0.00029155,-0.00002537,-0.01912338,0.18836290,-0.02017932,-
 0.02368427,0.00085412,0.00062962,0.00212367,-0.00075410,0.01481806,0.0
 5141972,-0.04736746,-0.00042858,-0.00361219,0.00445423,0.00259013,-0.0
 0247695,0.00193439,-0.00089829,-0.00188707,0.00080549,-0.00067044,-0.0
 0006822,0.00018394,0.00002687,0.00016406,-0.00017300,-0.00006277,0.000
 04363,0.00001359,0.00009559,-0.00004590,0.00005722,0.00000559,-0.00000
 347,0.00007403,-0.00003935,-0.00005559,-0.00000584,0.00013732,-0.00006
 815,0.00002660,0.04348726,-0.22149480,0.44637774,0.00002590,-0.0010367
 6,-0.00095784,0.00003149,-0.00049687,-0.00020017,-0.00305302,-0.001898
 37,0.00325680,0.00337553,0.00276487,-0.00268579,-0.00084529,-0.0000163
 7,0.00072429,-0.00106947,-0.00168071,0.00111677,-0.00040566,-0.0001378
 6,0.00008617,0.00006616,0.00030224,-0.00010878,-0.00002337,0.00004684,
 0.00001529,0.00012133,-0.00008543,0.00001589,0.00005643,-0.00013611,0.
 00002564,-0.00023559,-0.00019152,0.00009666,0.00001794,0.00002249,-0.0
 0004455,-0.00236210,0.01937309,-0.03951169,0.00429975,-0.00057127,0.00
 027359,-0.00232220,-0.00027359,-0.00006017,0.00029770,0.00303360,-0.01
 533365,0.02143930,0.00083222,-0.00439642,-0.00127757,-0.00050857,0.001
 20820,-0.00034702,-0.00051798,0.00052423,0.00001716,0.00089842,0.00027
 892,-0.00005177,-0.00006701,0.00008159,-0.00006403,-0.00003799,0.00000
 062,0.00001949,-0.00018265,0.00000112,-0.00005411,-0.00004879,-0.00003
 584,-0.00001112,0.00001043,-0.00000396,0.00001477,0.00005905,-0.000011
 44,0.00002774,0.01420364,-0.15431013,0.19964554,-0.01682952,0.17178332
 ,0.00088165,-0.00072288,0.00039352,0.00007261,-0.00004565,-0.00010121,
 -0.00057319,-0.01450166,0.00660036,-0.00292474,-0.00122776,-0.00040850
 ,0.00098603,0.00014193,0.00049638,0.00116369,0.00055417,-0.00092186,-0
 .00007880,0.00016178,0.00000170,0.00008146,-0.00001916,-0.00002407,0.0
 0008154,-0.00002202,-0.00001589,-0.00003604,0.00000879,-0.00001403,0.0
 0001628,0.00000609,0.00001105,-0.00002951,0.00003225,0.00002906,0.0000
 0327,-0.00000482,-0.00003667,-0.03781557,0.23297282,-0.40648095,0.0381
 7132,-0.21733388,0.40047110\\-0.01023624,0.01130746,0.00008998,-0.0004
 9777,-0.00281775,-0.00079570,-0.00056254,-0.06311755,-0.01949756,0.004
 03392,-0.00322821,-0.00084242,0.00286689,0.00191555,0.00284114,-0.0001
 9454,0.00114262,0.00053578,-0.00004436,0.00069307,0.00028244,0.0002403
 2,0.00020280,0.00015979,-0.00006330,0.00003376,-0.00000360,-0.00005416
 ,0.00002695,-0.00000019,0.00002062,-0.00001403,-0.00001725,0.00000626,
 0.00001283,0.00002884,0.00002568,0.00003277,-0.00000207,0.00465798,0.0
 5283597,0.01770403,-0.00019876,0.00097378,-0.00048322\\\@


 THE FIRST AND LAST THING REQUIRED OF GENIUS IS THE LOVE OF TRUTH.

                          -- GOETHE
 Job cpu time:       0 days  0 hours 57 minutes 15.6 seconds.
 Elapsed time:       0 days  0 hours  2 minutes 23.2 seconds.
 File lengths (MBytes):  RWF=    153 Int=      0 D2E=      0 Chk=      9 Scr=      1
 Normal termination of Gaussian 16 at Mon Jun 23 04:42:01 2025.
