 Entering Gaussian System, Link 0=g16
 Initial command:
 /opt/g16/l1.exe "/home/aayush/scratches/g16/Gau-60939.inp" -scrdir="/home/aayush/scratches/g16/"
 Entering Link 1 = /opt/g16/l1.exe PID=     60942.
  
 Copyright (c) 1988,1990,1992,1993,1995,1998,2003,2009,2016,
            Gaussian, Inc.  All Rights Reserved.
  
 This is part of the Gaussian(R) 16 program.  It is based on
 the Gaussian(R) 09 system (copyright 2009, Gaussian, Inc.),
 the Gaussian(R) 03 system (copyright 2003, Gaussian, Inc.),
 the Gaussian(R) 98 system (copyright 1998, Gaussian, Inc.),
 the Gaussian(R) 94 system (copyright 1995, Gaussian, Inc.),
 the Gaussian 92(TM) system (copyright 1992, Gaussian, Inc.),
 the Gaussian 90(TM) system (copyright 1990, Gaussian, Inc.),
 the Gaussian 88(TM) system (copyright 1988, Gaussian, Inc.),
 the Gaussian 86(TM) system (copyright 1986, Carnegie Mellon
 University), and the Gaussian 82(TM) system (copyright 1983,
 Carnegie Mellon University). Gaussian is a federally registered
 trademark of Gaussian, Inc.
  
 This software contains proprietary and confidential information,
 including trade secrets, belonging to Gaussian, Inc.
  
 This software is provided under written license and may be
 used, copied, transmitted, or stored only in accord with that
 written license.
  
 The following legend is applicable only to US Government
 contracts under FAR:
  
                    RESTRICTED RIGHTS LEGEND
  
 Use, reproduction and disclosure by the US Government is
 subject to restrictions as set forth in subparagraphs (a)
 and (c) of the Commercial Computer Software - Restricted
 Rights clause in FAR 52.227-19.
  
 Gaussian, Inc.
 340 Quinnipiac St., Bldg. 40, Wallingford CT 06492
  
  
 ---------------------------------------------------------------
 Warning -- This program may not be used in any manner that
 competes with the business of Gaussian, Inc. or will provide
 assistance to any competitor of Gaussian, Inc.  The licensee
 of this program is prohibited from giving any competitor of
 Gaussian, Inc. access to this program.  By using this program,
 the user acknowledges that Gaussian, Inc. is engaged in the
 business of creating and licensing software in the field of
 computational chemistry and represents and warrants to the
 licensee that it is not a competitor of Gaussian, Inc. and that
 it will not use this program in any manner prohibited above.
 ---------------------------------------------------------------
  

 Cite this work as:
 Gaussian 16, Revision A.03,
 M. J. Frisch, G. W. Trucks, H. B. Schlegel, G. E. Scuseria, 
 M. A. Robb, J. R. Cheeseman, G. Scalmani, V. Barone, 
 G. A. Petersson, H. Nakatsuji, X. Li, M. Caricato, A. V. Marenich, 
 J. Bloino, B. G. Janesko, R. Gomperts, B. Mennucci, H. P. Hratchian, 
 J. V. Ortiz, A. F. Izmaylov, J. L. Sonnenberg, D. Williams-Young, 
 F. Ding, F. Lipparini, F. Egidi, J. Goings, B. Peng, A. Petrone, 
 T. Henderson, D. Ranasinghe, V. G. Zakrzewski, J. Gao, N. Rega, 
 G. Zheng, W. Liang, M. Hada, M. Ehara, K. Toyota, R. Fukuda, 
 J. Hasegawa, M. Ishida, T. Nakajima, Y. Honda, O. Kitao, H. Nakai, 
 T. Vreven, K. Throssell, J. A. Montgomery, Jr., J. E. Peralta, 
 F. Ogliaro, M. J. Bearpark, J. J. Heyd, E. N. Brothers, K. N. Kudin, 
 V. N. Staroverov, T. A. Keith, R. Kobayashi, J. Normand, 
 K. Raghavachari, A. P. Rendell, J. C. Burant, S. S. Iyengar, 
 J. Tomasi, M. Cossi, J. M. Millam, M. Klene, C. Adamo, R. Cammi, 
 J. W. Ochterski, R. L. Martin, K. Morokuma, O. Farkas, 
 J. B. Foresman, and D. J. Fox, Gaussian, Inc., Wallingford CT, 2016.
 
 ******************************************
 Gaussian 16:  ES64L-G16RevA.03 25-Dec-2016
                20-Jun-2025 
 ******************************************
 %nprocshared=24
 Will use up to   24 processors via shared memory.
 %mem=12GB
 %chk=ethyl_propiolate_ts1.chk
 -------------------
 # freq 6-31+g m062x
 -------------------
 1/10=4,30=1,38=1/1,3;
 2/12=2,17=6,18=5,40=1/2;
 3/5=1,6=6,7=10,11=2,25=1,30=1,71=2,74=-55,140=1/1,2,3;
 4//1;
 5/5=2,38=5,98=1/2;
 8/6=4,10=90,11=11/1;
 11/6=1,8=1,9=11,15=111,16=1/1,2,10;
 10/6=1/2;
 6/7=2,8=2,9=2,10=2,28=1/1;
 7/8=1,10=1,25=1/1,2,3,16;
 1/10=4,30=1/3;
 99//99;
 -------------------
 Title Card Required
 -------------------
 Symbolic Z-matrix:
 Charge =  0 Multiplicity = 2
 C                     2.74279  -0.40768   0.41537 
 H                     3.78602  -0.44433   0.62785 
 C                     1.56946  -0.29335   0.14576 
 C                     0.15951  -0.57776  -0.1408 
 O                    -0.20494  -1.14609  -1.12866 
 O                    -0.62163  -0.1508    0.84874 
 C                    -2.04083  -0.30253   0.63877 
 C                    -2.56422   0.78459  -0.27859 
 H                    -2.46615  -0.23037   1.63815 
 H                    -2.23063  -1.29696   0.23335 
 H                    -3.64687   0.68828  -0.38106 
 H                    -2.33943   1.76988   0.13208 
 H                    -2.11414   0.70154  -1.26807 
 O                     1.40009   1.69071  -0.39893 
 H                     1.496     2.04844   0.49811 
 

 GradGradGradGradGradGradGradGradGradGradGradGradGradGradGradGradGradGrad
 Berny optimization.
 Initialization pass.
 Trust Radius=3.00D-01 FncErr=1.00D-07 GrdErr=1.00D-07 EigMax=2.50D+02 EigMin=1.00D-04
 Number of steps in this run=      2 maximum allowed number of steps=      2.
 GradGradGradGradGradGradGradGradGradGradGradGradGradGradGradGradGradGrad

                          Input orientation:                          
 ---------------------------------------------------------------------
 Center     Atomic      Atomic             Coordinates (Angstroms)
 Number     Number       Type             X           Y           Z
 ---------------------------------------------------------------------
      1          6           0        2.742794   -0.407679    0.415368
      2          1           0        3.786019   -0.444329    0.627854
      3          6           0        1.569458   -0.293354    0.145762
      4          6           0        0.159513   -0.577758   -0.140802
      5          8           0       -0.204936   -1.146093   -1.128656
      6          8           0       -0.621625   -0.150797    0.848735
      7          6           0       -2.040830   -0.302533    0.638771
      8          6           0       -2.564224    0.784588   -0.278591
      9          1           0       -2.466153   -0.230370    1.638148
     10          1           0       -2.230635   -1.296955    0.233354
     11          1           0       -3.646870    0.688275   -0.381058
     12          1           0       -2.339425    1.769881    0.132083
     13          1           0       -2.114138    0.701539   -1.268065
     14          8           0        1.400087    1.690705   -0.398925
     15          1           0        1.495995    2.048435    0.498109
 ---------------------------------------------------------------------
                    Distance matrix (angstroms):
                    1          2          3          4          5
     1  C    0.000000
     2  H    1.065276   0.000000
     3  C    1.209328   2.273400   0.000000
     4  C    2.647941   3.709472   1.466612   0.000000
     5  O    3.408574   4.416506   2.345161   1.196530   0.000000
     6  O    3.401927   4.422926   2.305502   1.331036   2.252625
     7  C    4.789992   5.828584   3.643806   2.350530   2.684380
     8  C    5.483386   6.531268   4.292943   3.048560   3.164866
     9  H    5.353481   6.336886   4.303178   3.190527   3.688747
    10  H    5.055585   6.089559   3.931360   2.523895   2.445667
    11  H    6.531708   7.586075   5.333968   4.018596   3.971236
    12  H    5.536332   6.532196   4.420010   3.439559   3.827324
    13  H    5.258717   6.302331   4.069103   2.841973   2.660495
    14  O    2.620906   3.362338   2.064427   2.598379   3.340064
    15  H    2.755694   3.387465   2.369287   3.015175   3.967939
                    6          7          8          9         10
     6  O    0.000000
     7  C    1.442654   0.000000
     8  C    2.433002   1.515693   0.000000
     9  H    2.007931   1.088513   2.171093   0.000000
    10  H    2.069127   1.090534   2.169376   1.779471   0.000000
    11  H    3.371727   2.145021   1.091741   2.513005   2.514828
    12  H    2.674590   2.154250   1.090867   2.507049   3.070435
    13  H    2.726704   2.156283   1.090199   3.072205   2.502361
    14  O    3.005845   4.109711   4.068328   4.773679   4.744263
    15  H    3.073089   4.249231   4.322725   4.710760   5.014928
                   11         12         13         14         15
    11  H    0.000000
    12  H    1.772737   0.000000
    13  H    1.770939   1.775535   0.000000
    14  O    5.145577   3.777855   3.752816   0.000000
    15  H    5.391849   3.862902   4.238698   0.970484   0.000000
 Stoichiometry    C5H7O3(2)
 Framework group  C1[X(C5H7O3)]
 Deg. of freedom    39
 Full point group                 C1      NOp   1
 Largest Abelian subgroup         C1      NOp   1
 Largest concise Abelian subgroup C1      NOp   1
                         Standard orientation:                         
 ---------------------------------------------------------------------
 Center     Atomic      Atomic             Coordinates (Angstroms)
 Number     Number       Type             X           Y           Z
 ---------------------------------------------------------------------
      1          6           0       -2.804103   -0.436930   -0.398689
      2          1           0       -3.847418   -0.475176   -0.610452
      3          6           0       -1.630645   -0.320564   -0.130493
      4          6           0       -0.220619   -0.602805    0.157808
      5          8           0        0.144158   -1.163136    1.150104
      6          8           0        0.560173   -0.184001   -0.835481
      7          6           0        1.979444   -0.334203   -0.624860
      8          6           0        2.503339    0.760275    0.283424
      9          1           0        2.404373   -0.270220   -1.624961
     10          1           0        2.169291   -1.325319   -0.211448
     11          1           0        3.586014    0.664663    0.386236
     12          1           0        2.278495    1.742225   -0.135156
     13          1           0        2.053641    0.685329    1.273721
     14          8           0       -1.460813    1.667836    0.397978
     15          1           0       -1.557038    2.018274   -0.501896
 ---------------------------------------------------------------------
 Rotational constants (GHZ):           3.5870428           1.3073955           1.1713754
 Standard basis: 6-31+G (6D, 7F)
 There are   118 symmetry adapted cartesian basis functions of A   symmetry.
 There are   118 symmetry adapted basis functions of A   symmetry.
   118 basis functions,   236 primitive gaussians,   118 cartesian basis functions
    31 alpha electrons       30 beta electrons
       nuclear repulsion energy       361.5758780838 Hartrees.
 NAtoms=   15 NActive=   15 NUniq=   15 SFac= 1.00D+00 NAtFMM=   60 NAOKFM=F Big=F
 Integral buffers will be    131072 words long.
 Raffenetti 2 integral format.
 Two-electron integral symmetry is turned on.
 One-electron integrals computed using PRISM.
 NBasis=   118 RedAO= T EigKep=  3.02D-06  NBF=   118
 NBsUse=   118 1.00D-06 EigRej= -1.00D+00 NBFU=   118
 ExpMin= 4.38D-02 ExpMax= 5.48D+03 ExpMxC= 8.25D+02 IAcc=3 IRadAn=         5 AccDes= 0.00D+00
 Harris functional with IExCor= 1009 and IRadAn=       5 diagonalized for initial guess.
 HarFok:  IExCor= 1009 AccDes= 0.00D+00 IRadAn=         5 IDoV= 1 UseB2=F ITyADJ=14
 ICtDFT=  3500011 ScaDFX=  1.000000  1.000000  1.000000  1.000000
 FoFCou: FMM=F IPFlag=           0 FMFlag=      100000 FMFlg1=           0
         NFxFlg=           0 DoJE=T BraDBF=F KetDBF=T FulRan=T
         wScrn=  0.000000 ICntrl=       500 IOpCl=  0 I1Cent=   200000004 NGrid=           0
         NMat0=    1 NMatS0=      1 NMatT0=    0 NMatD0=    1 NMtDS0=    0 NMtDT0=    0
 Petite list used in FoFCou.
 Initial guess <Sx>= 0.0000 <Sy>= 0.0000 <Sz>= 0.5000 <S**2>= 0.7500 S= 0.5000
 Requested convergence on RMS density matrix=1.00D-08 within 128 cycles.
 Requested convergence on MAX density matrix=1.00D-06.
 Requested convergence on             energy=1.00D-06.
 No special actions if energy rises.
 Restarting incremental Fock formation.
 SCF Done:  E(UM062X) =  -419.954613987     A.U. after   23 cycles
            NFock= 23  Conv=0.79D-08     -V/T= 2.0050
 <Sx>= 0.0000 <Sy>= 0.0000 <Sz>= 0.5000 <S**2>= 0.7667 S= 0.5083
 <L.S>=  0.00000000000    
 Annihilation of the first spin contaminant:
 S**2 before annihilation     0.7667,   after     0.7501
 DoSCS=F DFT=T ScalE2(SS,OS)=  1.000000  1.000000
 Range of M.O.s used for correlation:     1   118
 NBasis=   118 NAE=    31 NBE=    30 NFC=     0 NFV=     0
 NROrb=    118 NOA=    31 NOB=    30 NVA=    87 NVB=    88

 **** Warning!!: The largest alpha MO coefficient is  0.17417871D+03


 **** Warning!!: The largest beta MO coefficient is  0.16046950D+03

 Symmetrizing basis deriv contribution to polar:
 IMax=3 JMax=2 DiffMx= 0.00D+00
 G2DrvN: will do    16 centers at a time, making    1 passes.
 Calling FoFCou, ICntrl=  3107 FMM=F I1Cent=   0 AccDes= 0.00D+00.
 End of G2Drv F.D. properties file   721 does not exist.
 End of G2Drv F.D. properties file   722 does not exist.
 End of G2Drv F.D. properties file   788 does not exist.
          IDoAtm=111111111111111
          Differentiating once with respect to electric field.
                with respect to dipole field.
          Differentiating once with respect to nuclear coordinates.
 Keep R1 and R2 ints in memory in canonical form, NReq=71861349.
          There are    48 degrees of freedom in the 1st order CPHF.  IDoFFX=6 NUNeed=     3.
     45 vectors produced by pass  0 Test12= 1.11D-14 2.08D-09 XBig12= 9.03D+01 3.25D+00.
 AX will form    45 AO Fock derivatives at one time.
     45 vectors produced by pass  1 Test12= 1.11D-14 2.08D-09 XBig12= 1.77D+01 5.67D-01.
     45 vectors produced by pass  2 Test12= 1.11D-14 2.08D-09 XBig12= 4.38D-01 1.20D-01.
     45 vectors produced by pass  3 Test12= 1.11D-14 2.08D-09 XBig12= 2.79D-03 7.11D-03.
     45 vectors produced by pass  4 Test12= 1.11D-14 2.08D-09 XBig12= 2.21D-05 7.59D-04.
     45 vectors produced by pass  5 Test12= 1.11D-14 2.08D-09 XBig12= 2.27D-07 6.71D-05.
     32 vectors produced by pass  6 Test12= 1.11D-14 2.08D-09 XBig12= 1.59D-09 4.36D-06.
     12 vectors produced by pass  7 Test12= 1.11D-14 2.08D-09 XBig12= 1.08D-11 3.70D-07.
      4 vectors produced by pass  8 Test12= 1.11D-14 2.08D-09 XBig12= 6.48D-14 2.05D-08.
      2 vectors produced by pass  9 Test12= 1.11D-14 2.08D-09 XBig12= 5.07D-16 2.82D-09.
 InvSVY:  IOpt=1 It=  1 EMax= 1.07D-14
 Solved reduced A of dimension   320 with    48 vectors.
 Isotropic polarizability for W=    0.000000       70.43 Bohr**3.
 End of Minotr F.D. properties file   721 does not exist.
 End of Minotr F.D. properties file   722 does not exist.
 End of Minotr F.D. properties file   788 does not exist.

 **********************************************************************

            Population analysis using the SCF density.

 **********************************************************************

 Orbital symmetries:
 Alpha Orbitals:
       Occupied  (A) (A) (A) (A) (A) (A) (A) (A) (A) (A) (A) (A)
                 (A) (A) (A) (A) (A) (A) (A) (A) (A) (A) (A) (A)
                 (A) (A) (A) (A) (A) (A) (A)
       Virtual   (A) (A) (A) (A) (A) (A) (A) (A) (A) (A) (A) (A)
                 (A) (A) (A) (A) (A) (A) (A) (A) (A) (A) (A) (A)
                 (A) (A) (A) (A) (A) (A) (A) (A) (A) (A) (A) (A)
                 (A) (A) (A) (A) (A) (A) (A) (A) (A) (A) (A) (A)
                 (A) (A) (A) (A) (A) (A) (A) (A) (A) (A) (A) (A)
                 (A) (A) (A) (A) (A) (A) (A) (A) (A) (A) (A) (A)
                 (A) (A) (A) (A) (A) (A) (A) (A) (A) (A) (A) (A)
                 (A) (A) (A)
 Beta  Orbitals:
       Occupied  (A) (A) (A) (A) (A) (A) (A) (A) (A) (A) (A) (A)
                 (A) (A) (A) (A) (A) (A) (A) (A) (A) (A) (A) (A)
                 (A) (A) (A) (A) (A) (A)
       Virtual   (A) (A) (A) (A) (A) (A) (A) (A) (A) (A) (A) (A)
                 (A) (A) (A) (A) (A) (A) (A) (A) (A) (A) (A) (A)
                 (A) (A) (A) (A) (A) (A) (A) (A) (A) (A) (A) (A)
                 (A) (A) (A) (A) (A) (A) (A) (A) (A) (A) (A) (A)
                 (A) (A) (A) (A) (A) (A) (A) (A) (A) (A) (A) (A)
                 (A) (A) (A) (A) (A) (A) (A) (A) (A) (A) (A) (A)
                 (A) (A) (A) (A) (A) (A) (A) (A) (A) (A) (A) (A)
                 (A) (A) (A) (A)
 The electronic state is 2-A.
 Alpha  occ. eigenvalues --  -19.70707 -19.68761 -19.66313 -10.73037 -10.61621
 Alpha  occ. eigenvalues --  -10.60548 -10.59861 -10.54462  -1.28107  -1.18780
 Alpha  occ. eigenvalues --   -1.13427  -0.91753  -0.88241  -0.78725  -0.71334
 Alpha  occ. eigenvalues --   -0.64802  -0.62421  -0.58844  -0.57115  -0.54294
 Alpha  occ. eigenvalues --   -0.53729  -0.50228  -0.48805  -0.46544  -0.45290
 Alpha  occ. eigenvalues --   -0.42077  -0.41791  -0.39167  -0.38317  -0.37091
 Alpha  occ. eigenvalues --   -0.34586
 Alpha virt. eigenvalues --   -0.00906   0.01840   0.02330   0.03485   0.03631
 Alpha virt. eigenvalues --    0.03768   0.05154   0.06368   0.07494   0.07992
 Alpha virt. eigenvalues --    0.08491   0.09015   0.09609   0.11921   0.12558
 Alpha virt. eigenvalues --    0.12943   0.14412   0.15303   0.15707   0.16362
 Alpha virt. eigenvalues --    0.16889   0.19213   0.19613   0.20771   0.22171
 Alpha virt. eigenvalues --    0.22680   0.23802   0.24527   0.25433   0.27987
 Alpha virt. eigenvalues --    0.28841   0.29477   0.29710   0.30046   0.31980
 Alpha virt. eigenvalues --    0.33382   0.34176   0.34964   0.35279   0.36257
 Alpha virt. eigenvalues --    0.38208   0.38425   0.41320   0.44038   0.45035
 Alpha virt. eigenvalues --    0.47406   0.58184   0.59945   0.68717   0.70183
 Alpha virt. eigenvalues --    0.71553   0.72889   0.74480   0.76672   0.77236
 Alpha virt. eigenvalues --    0.80428   0.83585   0.85095   0.89198   0.91268
 Alpha virt. eigenvalues --    0.94414   0.96597   1.00462   1.06805   1.10358
 Alpha virt. eigenvalues --    1.11639   1.12752   1.17219   1.17415   1.20882
 Alpha virt. eigenvalues --    1.22956   1.26599   1.27472   1.28875   1.32770
 Alpha virt. eigenvalues --    1.35481   1.37224   1.40219   1.43304   1.44684
 Alpha virt. eigenvalues --    1.47843   1.57516   1.63735   1.72087   1.82961
 Alpha virt. eigenvalues --    2.01715   2.04556
  Beta  occ. eigenvalues --  -19.70712 -19.67238 -19.66334 -10.73011 -10.61621
  Beta  occ. eigenvalues --  -10.60591 -10.59647 -10.54463  -1.28114  -1.18813
  Beta  occ. eigenvalues --   -1.07340  -0.91292  -0.87886  -0.78563  -0.71153
  Beta  occ. eigenvalues --   -0.64729  -0.61935  -0.58707  -0.56936  -0.53966
  Beta  occ. eigenvalues --   -0.51408  -0.49289  -0.46900  -0.45323  -0.42055
  Beta  occ. eigenvalues --   -0.40744  -0.38780  -0.38308  -0.37128  -0.36712
  Beta virt. eigenvalues --   -0.09420   0.00019   0.01860   0.02411   0.03534
  Beta virt. eigenvalues --    0.03682   0.04039   0.05098   0.06439   0.07579
  Beta virt. eigenvalues --    0.07924   0.08591   0.09031   0.09701   0.12126
  Beta virt. eigenvalues --    0.12502   0.13275   0.14704   0.15285   0.15864
  Beta virt. eigenvalues --    0.16448   0.16950   0.19257   0.20038   0.20893
  Beta virt. eigenvalues --    0.22205   0.22755   0.23873   0.24589   0.25397
  Beta virt. eigenvalues --    0.28126   0.29057   0.29403   0.29779   0.30099
  Beta virt. eigenvalues --    0.32038   0.33373   0.34211   0.34942   0.35308
  Beta virt. eigenvalues --    0.36313   0.38265   0.38435   0.41247   0.43993
  Beta virt. eigenvalues --    0.45190   0.47449   0.58161   0.60080   0.68805
  Beta virt. eigenvalues --    0.70417   0.72139   0.73161   0.74716   0.76717
  Beta virt. eigenvalues --    0.78262   0.80449   0.83545   0.85023   0.88892
  Beta virt. eigenvalues --    0.91374   0.94555   0.96902   1.00544   1.06585
  Beta virt. eigenvalues --    1.10524   1.11685   1.13705   1.17593   1.18641
  Beta virt. eigenvalues --    1.20956   1.23825   1.27008   1.28262   1.30183
  Beta virt. eigenvalues --    1.33835   1.35667   1.39074   1.40679   1.43995
  Beta virt. eigenvalues --    1.44771   1.48023   1.57732   1.64432   1.72041
  Beta virt. eigenvalues --    1.84769   2.01719   2.04809
          Condensed to atoms (all electrons):
               1          2          3          4          5          6
     1  C   23.421942   0.555261  -6.546807 -11.197315   0.160954  -0.133314
     2  H    0.555261   0.359276  -0.206066  -0.030719   0.000046   0.000040
     3  C   -6.546807  -0.206066  16.953460  -3.060467   0.206996  -0.832219
     4  C  -11.197315  -0.030719  -3.060467  19.781833  -0.179926   0.380332
     5  O    0.160954   0.000046   0.206996  -0.179926   8.456687  -0.251328
     6  O   -0.133314   0.000040  -0.832219   0.380332  -0.251328   9.089900
     7  C   -0.312305   0.000111  -0.628305   0.710222  -0.012552   0.016434
     8  C    0.086700  -0.000014   0.032099  -0.252939  -0.042598   0.027749
     9  H   -0.003526   0.000000  -0.011514   0.027120  -0.000005  -0.069415
    10  H    0.003952   0.000000   0.017281  -0.026179   0.003266  -0.034281
    11  H   -0.000078   0.000000   0.001538   0.005645  -0.000150   0.007575
    12  H    0.003282   0.000000   0.010961  -0.008434  -0.000461  -0.000721
    13  H   -0.002685  -0.000000  -0.013357   0.011878   0.001823  -0.009030
    14  O   -0.243873  -0.000256   0.377129  -0.179101  -0.015070   0.016956
    15  H    0.123612  -0.000055  -0.015739  -0.096192   0.000540  -0.001753
               7          8          9         10         11         12
     1  C   -0.312305   0.086700  -0.003526   0.003952  -0.000078   0.003282
     2  H    0.000111  -0.000014   0.000000   0.000000   0.000000   0.000000
     3  C   -0.628305   0.032099  -0.011514   0.017281   0.001538   0.010961
     4  C    0.710222  -0.252939   0.027120  -0.026179   0.005645  -0.008434
     5  O   -0.012552  -0.042598  -0.000005   0.003266  -0.000150  -0.000461
     6  O    0.016434   0.027749  -0.069415  -0.034281   0.007575  -0.000721
     7  C    5.970797  -0.149260   0.426791   0.419071  -0.074669  -0.054193
     8  C   -0.149260   5.774577  -0.056660  -0.073946   0.400579   0.393427
     9  H    0.426791  -0.056660   0.502352  -0.032720  -0.000583  -0.004655
    10  H    0.419071  -0.073946  -0.032720   0.489790  -0.000814   0.003809
    11  H   -0.074669   0.400579  -0.000583  -0.000814   0.503334  -0.026134
    12  H   -0.054193   0.393427  -0.004655   0.003809  -0.026134   0.490684
    13  H   -0.045198   0.404249   0.003523  -0.004550  -0.023049  -0.026383
    14  O   -0.017012   0.007393   0.000145   0.000041   0.000032  -0.000518
    15  H   -0.001866   0.004937  -0.000004  -0.000002   0.000000  -0.000007
              13         14         15
     1  C   -0.002685  -0.243873   0.123612
     2  H   -0.000000  -0.000256  -0.000055
     3  C   -0.013357   0.377129  -0.015739
     4  C    0.011878  -0.179101  -0.096192
     5  O    0.001823  -0.015070   0.000540
     6  O   -0.009030   0.016956  -0.001753
     7  C   -0.045198  -0.017012  -0.001866
     8  C    0.404249   0.007393   0.004937
     9  H    0.003523   0.000145  -0.000004
    10  H   -0.004550   0.000041  -0.000002
    11  H   -0.023049   0.000032   0.000000
    12  H   -0.026383  -0.000518  -0.000007
    13  H    0.459988  -0.000089   0.000018
    14  O   -0.000089   8.341314   0.143873
    15  H    0.000018   0.143873   0.431411
          Atomic-Atomic Spin Densities.
               1          2          3          4          5          6
     1  C    0.947395   0.001528  -0.120952  -0.249644   0.016914  -0.030899
     2  H    0.001528  -0.009746  -0.001460  -0.002015   0.000001  -0.000028
     3  C   -0.120952  -0.001460  -0.066484   0.084565   0.010493  -0.009418
     4  C   -0.249644  -0.002015   0.084565   0.072692  -0.021462   0.025923
     5  O    0.016914   0.000001   0.010493  -0.021462  -0.011432  -0.001566
     6  O   -0.030899  -0.000028  -0.009418   0.025923  -0.001566   0.006318
     7  C   -0.028158  -0.000037  -0.020558   0.031244  -0.002590   0.005482
     8  C    0.014808   0.000007   0.015686  -0.018718   0.001161  -0.003637
     9  H   -0.000166   0.000000  -0.000539   0.000709  -0.000007  -0.000044
    10  H    0.000131   0.000000   0.000105  -0.000486  -0.000081   0.000166
    11  H    0.000006   0.000000   0.000088  -0.000196   0.000009   0.000015
    12  H   -0.000015  -0.000000  -0.000154   0.000081  -0.000033   0.000082
    13  H   -0.000329  -0.000000  -0.001544   0.002033  -0.000083  -0.000071
    14  O   -0.248543  -0.000559  -0.004023   0.114497   0.000076   0.004130
    15  H    0.007232   0.000038  -0.003756  -0.000362  -0.000030  -0.000109
               7          8          9         10         11         12
     1  C   -0.028158   0.014808  -0.000166   0.000131   0.000006  -0.000015
     2  H   -0.000037   0.000007   0.000000   0.000000   0.000000  -0.000000
     3  C   -0.020558   0.015686  -0.000539   0.000105   0.000088  -0.000154
     4  C    0.031244  -0.018718   0.000709  -0.000486  -0.000196   0.000081
     5  O   -0.002590   0.001161  -0.000007  -0.000081   0.000009  -0.000033
     6  O    0.005482  -0.003637  -0.000044   0.000166   0.000015   0.000082
     7  C    0.018174  -0.009942   0.000143  -0.000025  -0.000183   0.000070
     8  C   -0.009942   0.003763  -0.000054   0.000204   0.000341  -0.000025
     9  H    0.000143  -0.000054  -0.000041  -0.000006  -0.000006  -0.000001
    10  H   -0.000025   0.000204  -0.000006  -0.000153  -0.000007  -0.000004
    11  H   -0.000183   0.000341  -0.000006  -0.000007  -0.000082  -0.000018
    12  H    0.000070  -0.000025  -0.000001  -0.000004  -0.000018  -0.000008
    13  H    0.000447  -0.000466  -0.000001   0.000001   0.000002  -0.000007
    14  O    0.004983  -0.001667   0.000003   0.000007   0.000002  -0.000014
    15  H    0.000100  -0.000346   0.000000   0.000000  -0.000000  -0.000001
              13         14         15
     1  C   -0.000329  -0.248543   0.007232
     2  H   -0.000000  -0.000559   0.000038
     3  C   -0.001544  -0.004023  -0.003756
     4  C    0.002033   0.114497  -0.000362
     5  O   -0.000083   0.000076  -0.000030
     6  O   -0.000071   0.004130  -0.000109
     7  C    0.000447   0.004983   0.000100
     8  C   -0.000466  -0.001667  -0.000346
     9  H   -0.000001   0.000003   0.000000
    10  H    0.000001   0.000007   0.000000
    11  H    0.000002   0.000002  -0.000000
    12  H   -0.000007  -0.000014  -0.000001
    13  H   -0.000015   0.000003  -0.000001
    14  O    0.000003   0.954988   0.000912
    15  H   -0.000001   0.000912  -0.034132
 Mulliken charges and spin densities:
               1          2
     1  C    0.084198   0.309305
     2  H    0.322375  -0.012272
     3  C   -0.284990  -0.117949
     4  C    0.114243   0.038861
     5  O   -0.328221  -0.008630
     6  O   -0.206924  -0.003655
     7  C   -0.248066  -0.000851
     8  C   -0.556293   0.001114
     9  H    0.219151  -0.000008
    10  H    0.235281  -0.000147
    11  H    0.206774  -0.000029
    12  H    0.219345  -0.000046
    13  H    0.242863  -0.000033
    14  O   -0.430964   0.824796
    15  H    0.411229  -0.030454
 Sum of Mulliken charges =  -0.00000   1.00000
 Mulliken charges and spin densities with hydrogens summed into heavy atoms:
               1          2
     1  C    0.406573   0.297032
     3  C   -0.284990  -0.117949
     4  C    0.114243   0.038861
     5  O   -0.328221  -0.008630
     6  O   -0.206924  -0.003655
     7  C    0.206366  -0.001006
     8  C    0.112689   0.001006
    14  O   -0.019735   0.794342
 APT charges:
               1
     1  C   -0.166890
     2  H    0.253130
     3  C   -0.472667
     4  C    1.439524
     5  O   -0.742741
     6  O   -0.927742
     7  C    0.499110
     8  C   -0.059189
     9  H   -0.004597
    10  H   -0.002660
    11  H    0.016612
    12  H    0.020028
    13  H    0.041897
    14  O   -0.144216
    15  H    0.250401
 Sum of APT charges =   0.00000
 APT charges with hydrogens summed into heavy atoms:
               1
     1  C    0.086240
     3  C   -0.472667
     4  C    1.439524
     5  O   -0.742741
     6  O   -0.927742
     7  C    0.491854
     8  C    0.019347
    14  O    0.106185
 Electronic spatial extent (au):  <R**2>=           1071.9824
 Charge=             -0.0000 electrons
 Dipole moment (field-independent basis, Debye):
    X=              0.1173    Y=              0.5641    Z=             -3.2643  Tot=              3.3147
 Quadrupole moment (field-independent basis, Debye-Ang):
   XX=            -32.9192   YY=            -48.4318   ZZ=            -52.4440
   XY=              1.2096   XZ=              3.5479   YZ=             -0.4221
 Traceless Quadrupole moment (field-independent basis, Debye-Ang):
   XX=             11.6791   YY=             -3.8335   ZZ=             -7.8456
   XY=              1.2096   XZ=              3.5479   YZ=             -0.4221
 Octapole moment (field-independent basis, Debye-Ang**2):
  XXX=            -26.7936  YYY=             10.7408  ZZZ=             -1.4149  XYY=              0.9841
  XXY=             -6.3031  XXZ=            -15.8164  XZZ=              3.3506  YZZ=              5.1290
  YYZ=            -10.8271  XYZ=              6.2473
 Hexadecapole moment (field-independent basis, Debye-Ang**3):
 XXXX=           -764.5673 YYYY=           -257.6175 ZZZZ=           -169.9965 XXXY=             12.5463
 XXXZ=             35.4367 YYYX=            -20.5985 YYYZ=            -12.4325 ZZZX=             -7.1357
 ZZZY=              1.1049 XXYY=           -212.5725 XXZZ=           -190.3335 YYZZ=            -79.2619
 XXYZ=             -6.0324 YYXZ=              9.6016 ZZXY=             -3.2321
 N-N= 3.615758780838D+02 E-N=-1.705926139646D+03  KE= 4.178793746707D+02
  Exact polarizability:  86.750   6.693  68.445   5.249   0.429  56.094
 Approx polarizability:  91.587   6.370  68.766   9.828  -4.709  69.516
                          Isotropic Fermi Contact Couplings
        Atom                 a.u.       MegaHertz       Gauss      10(-4) cm-1
     1  C(13)              0.03291      37.00268      13.20348      12.34277
     2  H(1)              -0.00514     -22.95303      -8.19021      -7.65631
     3  C(13)              0.00768       8.63489       3.08114       2.88029
     4  C(13)              0.01300      14.61663       5.21558       4.87558
     5  O(17)             -0.00252       1.52847       0.54540       0.50984
     6  O(17)              0.00039      -0.23656      -0.08441      -0.07891
     7  C(13)              0.00006       0.06384       0.02278       0.02130
     8  C(13)             -0.00043      -0.48748      -0.17395      -0.16261
     9  H(1)               0.00002       0.07779       0.02776       0.02595
    10  H(1)              -0.00005      -0.24079      -0.08592      -0.08032
    11  H(1)              -0.00000      -0.01367      -0.00488      -0.00456
    12  H(1)               0.00000       0.01277       0.00456       0.00426
    13  H(1)               0.00001       0.03197       0.01141       0.01066
    14  O(17)              0.12955     -78.53256     -28.02237     -26.19564
    15  H(1)              -0.01472     -65.78981     -23.47544     -21.94512
 --------------------------------------------------------
       Center         ----  Spin Dipole Couplings  ----
                      3XX-RR        3YY-RR        3ZZ-RR
 --------------------------------------------------------
     1   Atom       -0.179018      0.283919     -0.104901
     2   Atom        0.026653     -0.006225     -0.020428
     3   Atom        0.050578     -0.010550     -0.040028
     4   Atom        0.004964      0.011310     -0.016274
     5   Atom        0.020328     -0.022459      0.002131
     6   Atom        0.006655     -0.012026      0.005371
     7   Atom        0.002736     -0.000871     -0.001865
     8   Atom        0.003266     -0.001567     -0.001699
     9   Atom        0.001241     -0.000670     -0.000571
    10   Atom        0.001122      0.000116     -0.001238
    11   Atom        0.001697     -0.000789     -0.000908
    12   Atom        0.004316     -0.002202     -0.002114
    13   Atom        0.003667     -0.001699     -0.001968
    14   Atom       -0.920622      2.018203     -1.097580
    15   Atom       -0.097656     -0.023536      0.121193
 --------------------------------------------------------
                        XY            XZ            YZ
 --------------------------------------------------------
     1   Atom       -0.003743     -0.011495      0.093080
     2   Atom        0.005253      0.011202      0.005088
     3   Atom       -0.008344      0.018543      0.005954
     4   Atom       -0.018036      0.000168      0.004137
     5   Atom       -0.039261     -0.018558     -0.025047
     6   Atom       -0.008705     -0.007998      0.002531
     7   Atom       -0.002496     -0.000999      0.000559
     8   Atom       -0.001370     -0.000203      0.000078
     9   Atom       -0.000987     -0.001118      0.000527
    10   Atom       -0.001526     -0.000240      0.000225
    11   Atom       -0.000476      0.000024      0.000026
    12   Atom        0.000057     -0.000975      0.000084
    13   Atom       -0.001694      0.001521     -0.000346
    14   Atom        1.405721      0.483989      1.206705
    15   Atom        0.011681      0.027897     -0.075470
 --------------------------------------------------------


 ---------------------------------------------------------------------------------
              Anisotropic Spin Dipole Couplings in Principal Axis System
 ---------------------------------------------------------------------------------

       Atom             a.u.   MegaHertz   Gauss  10(-4) cm-1        Axes

              Baa    -0.1811   -24.296    -8.669    -8.104  0.9826 -0.0288  0.1836
     1 C(13)  Bbb    -0.1241   -16.650    -5.941    -5.554 -0.1854 -0.2202  0.9577
              Bcc     0.3051    40.946    14.610    13.658 -0.0128  0.9750  0.2217
 
              Baa    -0.0238   -12.707    -4.534    -4.239 -0.1895 -0.2202  0.9569
     2 H(1)   Bbb    -0.0064    -3.438    -1.227    -1.147 -0.2130  0.9605  0.1789
              Bcc     0.0303    16.145     5.761     5.385  0.9585  0.1699  0.2289
 
              Baa    -0.0453    -6.079    -2.169    -2.028 -0.2034 -0.2126  0.9557
     3 C(13)  Bbb    -0.0097    -1.300    -0.464    -0.434  0.0638  0.9712  0.2296
              Bcc     0.0550     7.379     2.633     2.461  0.9770 -0.1077  0.1839
 
              Baa    -0.0175    -2.354    -0.840    -0.785 -0.2288 -0.2768  0.9333
     4 C(13)  Bbb    -0.0091    -1.225    -0.437    -0.409  0.7360  0.5783  0.3519
              Bcc     0.0267     3.579     1.277     1.194 -0.6371  0.7674  0.0714
 
              Baa    -0.0610     4.416     1.576     1.473  0.4697  0.7647  0.4412
     5 O(17)  Bbb     0.0171    -1.234    -0.440    -0.412 -0.1334 -0.4326  0.8917
              Bcc     0.0440    -3.181    -1.135    -1.061  0.8727 -0.4777 -0.1011
 
              Baa    -0.0155     1.120     0.399     0.373  0.3758  0.9261  0.0318
     6 O(17)  Bbb    -0.0010     0.069     0.025     0.023  0.5504 -0.2507  0.7964
              Bcc     0.0164    -1.188    -0.424    -0.396  0.7455 -0.2818 -0.6040
 
              Baa    -0.0022    -0.291    -0.104    -0.097  0.3397  0.8381 -0.4268
     7 C(13)  Bbb    -0.0021    -0.276    -0.099    -0.092  0.3460  0.3106  0.8853
              Bcc     0.0042     0.567     0.202     0.189  0.8745 -0.4485 -0.1845
 
              Baa    -0.0019    -0.259    -0.092    -0.086  0.2497  0.9625 -0.1058
     8 C(13)  Bbb    -0.0017    -0.229    -0.082    -0.076  0.0659  0.0921  0.9936
              Bcc     0.0036     0.488     0.174     0.163  0.9661 -0.2550 -0.0404
 
              Baa    -0.0012    -0.615    -0.219    -0.205  0.0788 -0.6579  0.7490
     9 H(1)   Bbb    -0.0011    -0.564    -0.201    -0.188  0.5384  0.6604  0.5234
              Bcc     0.0022     1.178     0.420     0.393  0.8390 -0.3620 -0.4062
 
              Baa    -0.0013    -0.680    -0.243    -0.227 -0.0098 -0.1701  0.9854
    10 H(1)   Bbb    -0.0010    -0.524    -0.187    -0.175  0.5917  0.7934  0.1428
              Bcc     0.0023     1.204     0.430     0.402  0.8061 -0.5845 -0.0929
 
              Baa    -0.0009    -0.495    -0.177    -0.165 -0.1003 -0.5089  0.8549
    11 H(1)   Bbb    -0.0009    -0.458    -0.163    -0.153  0.1519  0.8414  0.5187
              Bcc     0.0018     0.953     0.340     0.318  0.9833 -0.1819  0.0071
 
              Baa    -0.0023    -1.241    -0.443    -0.414  0.1218 -0.5947  0.7947
    12 H(1)   Bbb    -0.0021    -1.139    -0.406    -0.380  0.0819  0.8039  0.5891
              Bcc     0.0045     2.380     0.849     0.794  0.9892  0.0067 -0.1466
 
              Baa    -0.0024    -1.271    -0.453    -0.424 -0.3176 -0.3389  0.8856
    13 H(1)   Bbb    -0.0021    -1.147    -0.409    -0.382  0.1576  0.9021  0.4018
              Bcc     0.0045     2.417     0.863     0.806  0.9350 -0.2672  0.2331
 
              Baa    -1.5106   109.305    39.003    36.460 -0.1045 -0.2843  0.9530
    14 O(17)  Bbb    -1.4847   107.434    38.335    35.836  0.9290 -0.3699 -0.0084
              Bcc     2.9953  -216.739   -77.338   -72.296  0.3549  0.8845  0.3028
 
              Baa    -0.1083   -57.785   -20.619   -19.275  0.9219 -0.3207 -0.2175
    15 H(1)   Bbb    -0.0469   -25.000    -8.921    -8.339  0.3783  0.8663  0.3262
              Bcc     0.1552    82.785    29.540    27.614  0.0838 -0.3830  0.9199
 

 ---------------------------------------------------------------------------------

 Calling FoFJK, ICntrl=    100127 FMM=F ISym2X=0 I1Cent= 0 IOpClX= 1 NMat=1 NMatS=1 NMatT=0.
 Full mass-weighted force constant matrix:
 Low frequencies --- -503.0871 -368.5673 -134.2330 -118.2948  -72.9474  -61.3936
 Low frequencies ---  -33.3335   -0.0011   -0.0010
 ******    4 imaginary frequencies (negative Signs) ****** 
 Diagonal vibrational polarizability:
       42.4153405      76.7350894      56.0463245
 Harmonic frequencies (cm**-1), IR intensities (KM/Mole), Raman scattering
 activities (A**4/AMU), depolarization ratios for plane and unpolarized
 incident light, reduced masses (AMU), force constants (mDyne/A),
 and normal coordinates:
                      1                      2                      3
                      A                      A                      A
 Frequencies --   -502.4218              -368.1703              -122.2477
 Red. masses --      1.0800                 9.0272                 6.0919
 Frc consts  --      0.1606                 0.7209                 0.0536
 IR Inten    --    118.7470                24.4055                 3.4578
  Atom  AN      X      Y      Z        X      Y      Z        X      Y      Z
     1   6    -0.00   0.00   0.00     0.06  -0.11  -0.00     0.01   0.06  -0.18
     2   1    -0.00   0.04   0.00     0.08  -0.31  -0.08     0.01   0.12  -0.20
     3   6    -0.00  -0.02   0.00     0.02   0.64   0.18     0.01  -0.03  -0.15
     4   6    -0.00  -0.01   0.00     0.01   0.11   0.04    -0.00   0.01  -0.05
     5   8     0.01  -0.01  -0.00    -0.06  -0.03  -0.03    -0.03   0.30   0.12
     6   8    -0.01   0.01   0.00     0.01  -0.01  -0.01     0.03  -0.18  -0.10
     7   6    -0.00   0.01  -0.01     0.01  -0.03  -0.01     0.03  -0.08   0.01
     8   6     0.00   0.00  -0.00     0.00  -0.01  -0.02    -0.06   0.05  -0.09
     9   1    -0.01   0.01  -0.01     0.01  -0.04  -0.01     0.09  -0.19   0.03
    10   1    -0.01   0.00  -0.01     0.00  -0.02  -0.00     0.04  -0.02   0.15
    11   1     0.00   0.00  -0.01     0.00  -0.01  -0.01    -0.07   0.09  -0.02
    12   1     0.01   0.00  -0.00     0.00  -0.02  -0.03    -0.06  -0.01  -0.24
    13   1     0.00   0.00  -0.00    -0.00   0.00  -0.02    -0.12   0.17  -0.11
    14   8    -0.06   0.02   0.01    -0.06  -0.41  -0.10     0.01  -0.16   0.32
    15   1     0.96  -0.19  -0.18     0.38   0.26   0.12     0.24   0.31   0.48
                      4                      5                      6
                      A                      A                      A
 Frequencies --    -38.4698                40.1204                86.7753
 Red. masses --      3.8944                 2.7643                 3.6077
 Frc consts  --      0.0034                 0.0026                 0.0160
 IR Inten    --      3.7336                 1.0742                 5.7040
  Atom  AN      X      Y      Z        X      Y      Z        X      Y      Z
     1   6    -0.04   0.12   0.11    -0.02  -0.01   0.09    -0.07  -0.04   0.28
     2   1    -0.07   0.21   0.21    -0.03   0.00   0.15    -0.13  -0.08   0.61
     3   6    -0.00   0.01  -0.02     0.00  -0.00   0.01     0.02   0.02  -0.14
     4   6    -0.01  -0.09  -0.05     0.01   0.01  -0.04     0.02   0.04  -0.15
     5   8    -0.06  -0.15  -0.06     0.07   0.13   0.01    -0.07   0.07  -0.09
     6   8     0.02  -0.10  -0.02    -0.03  -0.07  -0.10     0.11   0.01  -0.08
     7   6     0.02   0.04   0.10    -0.01   0.06  -0.08     0.09  -0.06   0.08
     8   6    -0.17   0.23  -0.02    -0.15  -0.09   0.19     0.05  -0.04   0.07
     9   1     0.09  -0.07   0.12     0.00   0.34  -0.05     0.21  -0.16   0.12
    10   1     0.07   0.12   0.26     0.09  -0.01  -0.30    -0.02  -0.05   0.17
    11   1    -0.18   0.31   0.16    -0.12   0.06   0.08     0.02  -0.18   0.31
    12   1    -0.16   0.14  -0.23    -0.34  -0.02   0.47     0.28  -0.05  -0.09
    13   1    -0.31   0.39  -0.08    -0.06  -0.44   0.20    -0.17   0.13  -0.02
    14   8     0.23  -0.05  -0.04     0.10  -0.03  -0.07    -0.15   0.01   0.01
    15   1     0.23   0.00  -0.02     0.12  -0.05  -0.07    -0.06   0.09   0.03
                      7                      8                      9
                      A                      A                      A
 Frequencies --    140.4140               178.4143               204.0543
 Red. masses --      4.9156                 1.3813                 4.1413
 Frc consts  --      0.0571                 0.0259                 0.1016
 IR Inten    --      1.0106                 2.1971                 0.8248
  Atom  AN      X      Y      Z        X      Y      Z        X      Y      Z
     1   6    -0.10  -0.26  -0.00    -0.04   0.01   0.04     0.07  -0.28  -0.03
     2   1    -0.10  -0.42   0.04    -0.06   0.04   0.12     0.09  -0.60  -0.08
     3   6    -0.10  -0.08  -0.07    -0.01  -0.02  -0.07     0.02   0.15   0.01
     4   6    -0.08   0.08  -0.02    -0.02  -0.01  -0.02     0.00   0.05  -0.02
     5   8    -0.09   0.10  -0.00    -0.08   0.00   0.01    -0.07  -0.05  -0.05
     6   8    -0.06   0.20   0.04     0.03   0.01   0.04     0.03  -0.09  -0.05
     7   6    -0.07   0.04   0.02     0.03   0.01   0.02     0.02  -0.07   0.02
     8   6     0.10  -0.03  -0.00     0.08   0.02  -0.02    -0.11   0.01  -0.01
     9   1    -0.08  -0.04   0.02    -0.00  -0.01   0.01     0.07  -0.11   0.04
    10   1    -0.19   0.02   0.04     0.04   0.01   0.03     0.03  -0.05   0.08
    11   1     0.06  -0.33   0.15     0.15   0.34  -0.51    -0.07   0.30  -0.17
    12   1     0.44   0.00  -0.10    -0.40   0.01   0.20    -0.43  -0.04   0.05
    13   1    -0.05   0.17  -0.05     0.52  -0.25   0.15     0.05  -0.13   0.05
    14   8     0.31  -0.07   0.01     0.01  -0.05  -0.01     0.05   0.28   0.12
    15   1     0.31  -0.04   0.02     0.04   0.03   0.02     0.08   0.09   0.04
                     10                     11                     12
                      A                      A                      A
 Frequencies --    311.0067               417.3564               463.7904
 Red. masses --      2.9037                 3.6029                 1.1889
 Frc consts  --      0.1655                 0.3698                 0.1507
 IR Inten    --     14.3912                 1.4394               101.3739
  Atom  AN      X      Y      Z        X      Y      Z        X      Y      Z
     1   6    -0.01   0.03  -0.02     0.09   0.02   0.04    -0.01  -0.02   0.01
     2   1     0.00   0.05  -0.09     0.06   0.04   0.18    -0.02  -0.02   0.03
     3   6    -0.03  -0.03   0.06     0.13  -0.05  -0.13    -0.00  -0.02  -0.03
     4   6    -0.00   0.06  -0.04     0.07   0.05   0.06    -0.01  -0.03   0.02
     5   8     0.20   0.04  -0.12    -0.06  -0.02   0.07     0.06  -0.02  -0.00
     6   8    -0.03   0.12  -0.05     0.06   0.20   0.13    -0.03  -0.02   0.01
     7   6    -0.08  -0.15   0.17     0.02  -0.12  -0.11    -0.03   0.02   0.01
     8   6    -0.07  -0.02   0.01    -0.21  -0.08  -0.08     0.01   0.00   0.01
     9   1     0.10  -0.46   0.23    -0.04  -0.10  -0.14    -0.04   0.03   0.01
    10   1    -0.35  -0.09   0.44    -0.06  -0.15  -0.15    -0.01   0.02   0.00
    11   1    -0.03   0.20  -0.21    -0.21   0.23   0.17     0.01  -0.05  -0.03
    12   1    -0.35  -0.10  -0.03    -0.42  -0.16  -0.16     0.05   0.02   0.03
    13   1     0.14  -0.03   0.10    -0.43  -0.17  -0.19     0.05   0.01   0.03
    14   8     0.01  -0.04  -0.01    -0.00  -0.04  -0.02    -0.01   0.02  -0.04
    15   1    -0.02  -0.06  -0.01     0.05   0.24   0.08     0.20   0.92   0.28
                     13                     14                     15
                      A                      A                      A
 Frequencies --    568.3996               628.6921               699.0479
 Red. masses --      4.0430                 4.7502                 1.6047
 Frc consts  --      0.7696                 1.1062                 0.4620
 IR Inten    --      4.9386                31.8358                 6.9587
  Atom  AN      X      Y      Z        X      Y      Z        X      Y      Z
     1   6    -0.23   0.00  -0.05     0.16  -0.00   0.05     0.00  -0.14  -0.04
     2   1    -0.18  -0.04  -0.35     0.26   0.28  -0.45    -0.08   0.95   0.18
     3   6    -0.25  -0.05   0.17     0.08  -0.20   0.33    -0.02   0.07   0.03
     4   6    -0.02   0.08   0.01     0.04   0.07  -0.08    -0.01  -0.13  -0.06
     5   8     0.04   0.01  -0.06    -0.26   0.02  -0.01     0.01   0.03   0.02
     6   8     0.15   0.01   0.07     0.01   0.06  -0.18     0.01   0.04   0.02
     7   6     0.25  -0.07  -0.07     0.01   0.02  -0.01     0.02  -0.00  -0.00
     8   6     0.01  -0.00  -0.01     0.01   0.00   0.02     0.00  -0.00  -0.00
     9   1     0.12   0.09  -0.12     0.17  -0.14   0.05     0.01  -0.01  -0.01
    10   1     0.34  -0.11  -0.20    -0.15   0.04   0.13    -0.00  -0.01  -0.00
    11   1     0.00   0.32   0.27     0.01  -0.02  -0.00     0.00   0.04   0.02
    12   1    -0.20  -0.09  -0.10     0.02   0.03   0.08    -0.03  -0.01  -0.01
    13   1    -0.24  -0.09  -0.13     0.03  -0.05   0.02    -0.03  -0.01  -0.02
    14   8     0.00   0.00  -0.01    -0.01  -0.03  -0.04     0.00   0.03   0.00
    15   1     0.07   0.22   0.07     0.10   0.46   0.14    -0.04   0.00  -0.00
                     16                     17                     18
                      A                      A                      A
 Frequencies --    728.5494               761.8158               817.5485
 Red. masses --      3.3855                 1.4212                 1.2791
 Frc consts  --      1.0588                 0.4860                 0.5037
 IR Inten    --     84.6820                51.5334                 6.6447
  Atom  AN      X      Y      Z        X      Y      Z        X      Y      Z
     1   6     0.01  -0.08  -0.06     0.03   0.04  -0.14     0.04   0.01   0.00
     2   1    -0.14   0.69   0.52    -0.17  -0.31   0.91     0.04  -0.02   0.03
     3   6    -0.00  -0.07  -0.05    -0.02  -0.02   0.10     0.03  -0.02   0.03
     4   6     0.02   0.36   0.18     0.00  -0.04  -0.03    -0.03   0.00  -0.05
     5   8    -0.00  -0.08  -0.06    -0.02   0.01   0.01    -0.01   0.03  -0.05
     6   8    -0.01  -0.10  -0.03    -0.00   0.02  -0.01     0.01  -0.01   0.04
     7   6    -0.02  -0.00   0.01     0.02  -0.00  -0.01    -0.03  -0.04   0.07
     8   6    -0.00   0.01   0.01     0.01   0.00   0.00    -0.01  -0.03   0.02
     9   1    -0.03   0.07   0.01     0.03  -0.04  -0.00    -0.11   0.52   0.07
    10   1     0.06  -0.00  -0.03    -0.02   0.01   0.03     0.13  -0.22  -0.44
    11   1     0.00  -0.06  -0.04     0.01   0.02   0.03     0.01   0.06  -0.18
    12   1     0.05   0.02   0.00    -0.01   0.00   0.02    -0.06  -0.20  -0.39
    13   1     0.06   0.04   0.04    -0.02  -0.02  -0.01     0.13   0.41   0.11
    14   8     0.01  -0.03   0.00    -0.00   0.00  -0.00    -0.00  -0.00  -0.00
    15   1     0.01  -0.02   0.01     0.02   0.05   0.01     0.01   0.01   0.00
                     19                     20                     21
                      A                      A                      A
 Frequencies --    898.5797               943.4037              1110.1533
 Red. masses --      3.3806                 2.5030                 4.1849
 Frc consts  --      1.6083                 1.3125                 3.0388
 IR Inten    --     19.4030                 5.5969                 9.7740
  Atom  AN      X      Y      Z        X      Y      Z        X      Y      Z
     1   6     0.08   0.01   0.01    -0.10  -0.01  -0.03     0.07   0.00   0.02
     2   1     0.09   0.01   0.02    -0.11  -0.00  -0.02     0.08  -0.00   0.03
     3   6     0.04  -0.04   0.07    -0.06   0.02   0.01     0.04  -0.00  -0.03
     4   6    -0.09   0.04  -0.11     0.14  -0.01   0.01    -0.17  -0.01   0.05
     5   8    -0.01   0.09  -0.17    -0.00  -0.04   0.07     0.01   0.00  -0.01
     6   8     0.10  -0.10   0.24     0.15   0.04  -0.05    -0.18   0.03  -0.04
     7   6    -0.08   0.07   0.01    -0.05   0.10   0.06     0.28   0.17   0.19
     8   6    -0.08  -0.01  -0.09    -0.16  -0.09  -0.07    -0.04  -0.18  -0.16
     9   1    -0.28  -0.16  -0.09     0.25   0.17   0.19     0.29   0.27   0.20
    10   1     0.21   0.23   0.28     0.02   0.12   0.08     0.38   0.22   0.23
    11   1    -0.11  -0.39  -0.08    -0.15  -0.57  -0.52    -0.05  -0.10  -0.05
    12   1     0.16   0.21   0.34     0.17  -0.02  -0.08    -0.13  -0.23  -0.19
    13   1    -0.05  -0.39  -0.10     0.22   0.08   0.10    -0.15  -0.29  -0.22
    14   8    -0.00  -0.01  -0.00    -0.00   0.01   0.00     0.00  -0.01  -0.00
    15   1     0.01   0.00   0.00     0.01   0.00  -0.00    -0.01   0.00   0.00
                     22                     23                     24
                      A                      A                      A
 Frequencies --   1158.2615              1227.9530              1320.7867
 Red. masses --      2.0897                 1.7589                 2.3559
 Frc consts  --      1.6517                 1.5627                 2.4214
 IR Inten    --     16.9380                 6.5099               375.1019
  Atom  AN      X      Y      Z        X      Y      Z        X      Y      Z
     1   6    -0.02  -0.00  -0.01    -0.02  -0.00  -0.01    -0.05  -0.00  -0.01
     2   1    -0.03  -0.00  -0.01    -0.02  -0.00  -0.01    -0.06  -0.00  -0.03
     3   6    -0.01   0.00   0.01    -0.01   0.00  -0.00    -0.01   0.00   0.00
     4   6     0.06   0.01  -0.01     0.08   0.00  -0.02     0.25   0.03  -0.09
     5   8    -0.00  -0.00   0.00    -0.01  -0.01   0.03    -0.03   0.01  -0.01
     6   8     0.08  -0.05  -0.01    -0.00   0.03  -0.06    -0.14  -0.02   0.05
     7   6    -0.14   0.17   0.06    -0.05  -0.09   0.16     0.09   0.03   0.02
     8   6     0.11  -0.12  -0.05     0.03   0.07  -0.11    -0.03  -0.05   0.06
     9   1    -0.13   0.02   0.06    -0.41   0.33   0.04    -0.69  -0.24  -0.32
    10   1    -0.31   0.13   0.04     0.30  -0.19  -0.24     0.25   0.15   0.24
    11   1     0.10   0.46   0.32    -0.02  -0.10   0.26    -0.00   0.02  -0.11
    12   1    -0.38  -0.30  -0.22     0.00   0.24   0.35     0.01  -0.15  -0.19
    13   1    -0.32  -0.08  -0.24    -0.10  -0.41  -0.19     0.05   0.16   0.10
    14   8    -0.00   0.00   0.00    -0.00   0.00   0.00    -0.00   0.01   0.00
    15   1     0.01  -0.00  -0.00     0.01   0.00  -0.00     0.02   0.01   0.00
                     25                     26                     27
                      A                      A                      A
 Frequencies --   1367.1492              1441.5460              1458.1129
 Red. masses --      1.5739                 1.3552                 1.2559
 Frc consts  --      1.7333                 1.6593                 1.5733
 IR Inten    --    218.5453                26.4384                19.8022
  Atom  AN      X      Y      Z        X      Y      Z        X      Y      Z
     1   6     0.02   0.00   0.01    -0.01  -0.00  -0.00     0.00   0.00   0.00
     2   1     0.02   0.00   0.01    -0.02  -0.00  -0.01     0.00   0.00   0.00
     3   6     0.00  -0.00  -0.00    -0.00  -0.00   0.00     0.00  -0.00  -0.00
     4   6    -0.12  -0.02   0.05     0.08   0.00  -0.02    -0.02  -0.00   0.01
     5   8     0.01  -0.01   0.02    -0.01   0.01  -0.02     0.00  -0.00   0.00
     6   8     0.09   0.05  -0.09    -0.06   0.00   0.04     0.01  -0.00  -0.01
     7   6    -0.06  -0.01  -0.02    -0.09  -0.06  -0.06     0.03   0.03   0.02
     8   6     0.00  -0.04   0.04     0.03  -0.04  -0.03    -0.07  -0.09  -0.08
     9   1    -0.45  -0.16  -0.19     0.52   0.30   0.24    -0.15  -0.11  -0.06
    10   1     0.71   0.24   0.25     0.50   0.22   0.33    -0.15  -0.07  -0.12
    11   1     0.02   0.07  -0.03     0.03   0.20   0.17    -0.04   0.46   0.29
    12   1    -0.05  -0.10  -0.09    -0.01   0.05   0.20     0.34   0.21   0.39
    13   1     0.00   0.17   0.06     0.03   0.20  -0.00     0.35   0.38   0.16
    14   8     0.00  -0.00  -0.00    -0.00   0.00   0.00     0.00  -0.00  -0.00
    15   1    -0.01  -0.01  -0.00     0.01  -0.00  -0.00    -0.00   0.00   0.00
                     28                     29                     30
                      A                      A                      A
 Frequencies --   1526.8173              1536.9952              1544.6126
 Red. masses --      1.0414                 1.0548                 1.0879
 Frc consts  --      1.4304                 1.4682                 1.5292
 IR Inten    --     14.5390                 3.0250                26.9369
  Atom  AN      X      Y      Z        X      Y      Z        X      Y      Z
     1   6     0.00  -0.00  -0.00     0.00  -0.00   0.00     0.00   0.00   0.00
     2   1    -0.00   0.00  -0.00     0.00   0.00   0.00     0.00   0.00   0.00
     3   6    -0.00   0.00   0.00    -0.00   0.00   0.00    -0.00  -0.00  -0.00
     4   6    -0.00   0.00  -0.00    -0.01   0.00  -0.00    -0.02   0.00  -0.00
     5   8     0.00  -0.00   0.00     0.00  -0.00   0.01     0.00  -0.01   0.01
     6   8     0.00   0.00  -0.00     0.01  -0.00  -0.01     0.02  -0.00  -0.01
     7   6    -0.01  -0.02   0.01     0.00  -0.03  -0.03     0.05  -0.04  -0.02
     8   6    -0.02  -0.02   0.04    -0.03   0.03  -0.01     0.03  -0.02  -0.00
     9   1    -0.01   0.13   0.02    -0.13   0.39  -0.05    -0.26   0.48  -0.11
    10   1    -0.01   0.00   0.07    -0.20   0.11   0.37    -0.36   0.07   0.41
    11   1     0.08   0.48  -0.45    -0.05   0.06   0.35     0.02  -0.12  -0.19
    12   1     0.57   0.08  -0.08     0.15  -0.11  -0.38    -0.19   0.08   0.32
    13   1    -0.33  -0.26  -0.14     0.41  -0.36   0.16    -0.25   0.34  -0.10
    14   8     0.00  -0.00  -0.00     0.00  -0.00  -0.00    -0.00  -0.00  -0.00
    15   1    -0.00  -0.00  -0.00    -0.00  -0.00  -0.00    -0.00   0.00   0.00
                     31                     32                     33
                      A                      A                      A
 Frequencies --   1920.7069              2241.1885              3107.5582
 Red. masses --     12.2864                 5.9099                 1.0352
 Frc consts  --     26.7052                17.4898                 5.8899
 IR Inten    --    317.2870                83.2612                12.3138
  Atom  AN      X      Y      Z        X      Y      Z        X      Y      Z
     1   6    -0.08  -0.01  -0.01    -0.37  -0.03  -0.09    -0.00  -0.00  -0.00
     2   1    -0.12  -0.02  -0.01    -0.73  -0.06  -0.15    -0.00   0.00  -0.00
     3   6     0.07   0.01  -0.00     0.52  -0.00   0.11    -0.00   0.00   0.00
     4   6     0.22  -0.37   0.67    -0.10   0.03  -0.04     0.00   0.00  -0.00
     5   8    -0.17   0.25  -0.43     0.01  -0.01   0.02     0.00   0.00   0.00
     6   8     0.03   0.03  -0.06    -0.00  -0.00   0.00    -0.00  -0.00   0.00
     7   6     0.02  -0.01   0.01     0.00   0.00  -0.00     0.00   0.00   0.00
     8   6    -0.01   0.01   0.00    -0.00  -0.00  -0.00    -0.02  -0.04  -0.02
     9   1    -0.15   0.09  -0.05     0.01  -0.00  -0.00     0.00   0.00  -0.00
    10   1    -0.12  -0.03   0.07     0.00   0.00  -0.00     0.00  -0.02   0.01
    11   1    -0.00  -0.02  -0.05     0.00   0.00   0.00     0.62  -0.06   0.06
    12   1     0.03   0.01  -0.01     0.00  -0.00  -0.00    -0.13   0.52  -0.23
    13   1    -0.03  -0.05  -0.01     0.00   0.00   0.00    -0.22  -0.05   0.46
    14   8    -0.00   0.01  -0.00     0.00   0.01   0.00     0.00  -0.00   0.00
    15   1    -0.02   0.02   0.01    -0.00  -0.00   0.00    -0.00  -0.00  -0.00
                     34                     35                     36
                      A                      A                      A
 Frequencies --   3137.8438              3186.6599              3191.1164
 Red. masses --      1.0601                 1.1008                 1.1024
 Frc consts  --      6.1496                 6.5859                 6.6143
 IR Inten    --     21.0323                13.2483                 7.8234
  Atom  AN      X      Y      Z        X      Y      Z        X      Y      Z
     1   6    -0.00   0.00   0.00    -0.00   0.00  -0.00     0.00   0.00   0.00
     2   1     0.00   0.00   0.00     0.00  -0.00  -0.00     0.00  -0.00   0.00
     3   6     0.00  -0.00  -0.00     0.00   0.00   0.00    -0.00  -0.00   0.00
     4   6    -0.00  -0.00   0.00    -0.00  -0.00   0.00    -0.00   0.00  -0.00
     5   8    -0.00   0.00  -0.00     0.00  -0.00  -0.00     0.00  -0.00   0.00
     6   8     0.00   0.00  -0.00    -0.00   0.00  -0.00     0.00   0.00  -0.00
     7   6     0.03  -0.06  -0.02     0.01   0.02  -0.04     0.01   0.03  -0.04
     8   6    -0.01   0.01   0.00     0.05  -0.05   0.04    -0.07   0.01   0.03
     9   1    -0.22  -0.05   0.52    -0.18  -0.03   0.43    -0.16  -0.02   0.37
    10   1    -0.14   0.73  -0.32     0.04  -0.17   0.07     0.07  -0.36   0.15
    11   1     0.12  -0.01   0.01    -0.50   0.03  -0.04     0.56  -0.05   0.06
    12   1     0.01  -0.06   0.03    -0.13   0.61  -0.26     0.01  -0.10   0.05
    13   1     0.01   0.01  -0.03     0.08   0.00  -0.14     0.23   0.05  -0.53
    14   8     0.00  -0.00  -0.00     0.00  -0.00  -0.00    -0.00   0.00   0.00
    15   1    -0.00   0.00   0.00    -0.00  -0.00   0.00     0.00   0.00  -0.00
                     37                     38                     39
                      A                      A                      A
 Frequencies --   3211.5326              3523.5638              3822.7121
 Red. masses --      1.1050                 1.1644                 1.0672
 Frc consts  --      6.7147                 8.5175                 9.1882
 IR Inten    --     16.6600                62.1810                17.6469
  Atom  AN      X      Y      Z        X      Y      Z        X      Y      Z
     1   6    -0.00   0.00   0.00    -0.11  -0.01  -0.02     0.00  -0.00   0.00
     2   1     0.00  -0.00  -0.00     0.97   0.03   0.20    -0.00   0.00  -0.00
     3   6     0.00  -0.00   0.00     0.03   0.00   0.01    -0.00  -0.00  -0.00
     4   6    -0.00   0.00  -0.00    -0.00   0.00  -0.00    -0.00   0.00  -0.00
     5   8     0.00  -0.00   0.00     0.00  -0.00  -0.00     0.00  -0.00   0.00
     6   8    -0.00   0.00  -0.00     0.00   0.00  -0.00     0.00  -0.00  -0.00
     7   6     0.01   0.03  -0.05    -0.00  -0.00   0.00    -0.00   0.00   0.00
     8   6     0.02   0.03  -0.06     0.00  -0.00   0.00     0.00  -0.00  -0.00
     9   1    -0.21  -0.03   0.50     0.00   0.00  -0.00     0.00   0.00  -0.00
    10   1     0.06  -0.34   0.13     0.00   0.00   0.00     0.00  -0.00   0.00
    11   1    -0.11   0.02  -0.02     0.00   0.00   0.00     0.00  -0.00   0.00
    12   1     0.09  -0.37   0.15    -0.00   0.00  -0.00    -0.00   0.00  -0.00
    13   1    -0.25  -0.04   0.55    -0.00  -0.00  -0.00     0.00  -0.00   0.00
    14   8    -0.00   0.00   0.00     0.00   0.00   0.00    -0.01   0.02  -0.06
    15   1     0.00  -0.00   0.00    -0.00  -0.00   0.00     0.10  -0.36   0.93

 -------------------
 - Thermochemistry -
 -------------------
 Temperature   298.150 Kelvin.  Pressure   1.00000 Atm.
 Atom     1 has atomic number  6 and mass  12.00000
 Atom     2 has atomic number  1 and mass   1.00783
 Atom     3 has atomic number  6 and mass  12.00000
 Atom     4 has atomic number  6 and mass  12.00000
 Atom     5 has atomic number  8 and mass  15.99491
 Atom     6 has atomic number  8 and mass  15.99491
 Atom     7 has atomic number  6 and mass  12.00000
 Atom     8 has atomic number  6 and mass  12.00000
 Atom     9 has atomic number  1 and mass   1.00783
 Atom    10 has atomic number  1 and mass   1.00783
 Atom    11 has atomic number  1 and mass   1.00783
 Atom    12 has atomic number  1 and mass   1.00783
 Atom    13 has atomic number  1 and mass   1.00783
 Atom    14 has atomic number  8 and mass  15.99491
 Atom    15 has atomic number  1 and mass   1.00783
 Molecular mass:   115.03952 amu.
 Principal axes and moments of inertia in atomic units:
                           1         2         3
     Eigenvalues --   503.127871380.409531540.70268
           X            0.99989   0.01231   0.00828
           Y           -0.01247   0.99973   0.01936
           Z           -0.00804  -0.01946   0.99978
 This molecule is an asymmetric top.
 Rotational symmetry number  1.
 Warning -- assumption of classical behavior for rotation
           may cause significant error
 Rotational temperatures (Kelvin)      0.17215     0.06275     0.05622
 Rotational constants (GHZ):           3.58704     1.30740     1.17138
    4 imaginary frequencies ignored.
 Zero-point vibrational energy     292625.9 (Joules/Mol)
                                   69.93928 (Kcal/Mol)
 Warning -- explicit consideration of   9 degrees of freedom as
           vibrations may cause significant error
 Vibrational temperatures:     57.72   124.85   202.02   256.70   293.59
          (Kelvin)            447.47   600.48   667.29   817.80   904.55
                             1005.77  1048.22  1096.08  1176.27  1292.86
                             1357.35  1597.26  1666.48  1766.75  1900.32
                             1967.02  2074.06  2097.90  2196.75  2211.39
                             2222.35  2763.47  3224.57  4471.08  4514.66
                             4584.89  4591.30  4620.68  5069.62  5500.03
 
 Zero-point correction=                           0.111455 (Hartree/Particle)
 Thermal correction to Energy=                    0.119570
 Thermal correction to Enthalpy=                  0.120515
 Thermal correction to Gibbs Free Energy=         0.076970
 Sum of electronic and zero-point Energies=           -419.843159
 Sum of electronic and thermal Energies=              -419.835044
 Sum of electronic and thermal Enthalpies=            -419.834099
 Sum of electronic and thermal Free Energies=         -419.877644
 
                     E (Thermal)             CV                S
                      KCal/Mol        Cal/Mol-Kelvin    Cal/Mol-Kelvin
 Total                   75.032             27.240             91.648
 Electronic               0.000              0.000              1.377
 Translational            0.889              2.981             40.136
 Rotational               0.889              2.981             28.461
 Vibrational             73.254             21.279             21.674
 Vibration     1          0.594              1.981              5.253
 Vibration     2          0.601              1.958              3.731
 Vibration     3          0.615              1.913              2.798
 Vibration     4          0.629              1.869              2.345
 Vibration     5          0.640              1.834              2.096
 Vibration     6          0.700              1.653              1.357
 Vibration     7          0.780              1.433              0.901
 Vibration     8          0.821              1.330              0.755
 Vibration     9          0.924              1.100              0.507
                       Q            Log10(Q)             Ln(Q)
 Total Bot       0.394825D-35        -35.403595        -81.519790
 Total V=0       0.728209D+16         15.862256         36.524195
 Vib (Bot)       0.109926D-48        -48.958898       -112.732028
 Vib (Bot)    1  0.515701D+01          0.712398          1.640357
 Vib (Bot)    2  0.237070D+01          0.374877          0.863185
 Vib (Bot)    3  0.144795D+01          0.160754          0.370150
 Vib (Bot)    4  0.112637D+01          0.051680          0.118997
 Vib (Bot)    5  0.975639D+00         -0.010711         -0.024663
 Vib (Bot)    6  0.607646D+00         -0.216349         -0.498162
 Vib (Bot)    7  0.421566D+00         -0.375135         -0.863779
 Vib (Bot)    8  0.365582D+00         -0.437015         -1.006264
 Vib (Bot)    9  0.271197D+00         -0.566715         -1.304909
 Vib (V=0)       0.202747D+03          2.306953          5.311957
 Vib (V=0)    1  0.568119D+01          0.754439          1.737161
 Vib (V=0)    2  0.292285D+01          0.465807          1.072560
 Vib (V=0)    3  0.203185D+01          0.307892          0.708947
 Vib (V=0)    4  0.173236D+01          0.238637          0.549482
 Vib (V=0)    5  0.159630D+01          0.203114          0.467688
 Vib (V=0)    6  0.128691D+01          0.109550          0.252247
 Vib (V=0)    7  0.115400D+01          0.062206          0.143235
 Vib (V=0)    8  0.111940D+01          0.048983          0.112789
 Vib (V=0)    9  0.106881D+01          0.028902          0.066548
 Electronic      0.200000D+01          0.301030          0.693147
 Translational   0.484981D+08          7.685724         17.697035
 Rotational      0.370295D+06          5.568548         12.822056
 ***** Axes restored to original set *****
 -------------------------------------------------------------------
 Center     Atomic                   Forces (Hartrees/Bohr)
 Number     Number              X              Y              Z
 -------------------------------------------------------------------
      1        6           0.021508753    0.000452510    0.004334966
      2        1           0.000789233   -0.000337319   -0.000024440
      3        6          -0.024303192   -0.013378424   -0.001177119
      4        6           0.044421901    0.019537311    0.023722848
      5        8          -0.018908829   -0.023874271   -0.040554983
      6        8          -0.002283678    0.006865324    0.014283656
      7        6          -0.017454748   -0.000453958    0.003791541
      8        6          -0.000451047    0.000157183   -0.000211494
      9        1          -0.000403180   -0.000046120    0.000713946
     10        1          -0.000498778   -0.001345663   -0.000800395
     11        1          -0.001394636    0.000219023   -0.000548372
     12        1           0.000281976    0.001162383    0.000247935
     13        1           0.000271111    0.000392146   -0.001649978
     14        8          -0.003072886    0.002934501   -0.017624306
     15        1           0.001498001    0.007715372    0.015496195
 -------------------------------------------------------------------
 Cartesian Forces:  Max     0.044421901 RMS     0.013299931

 GradGradGradGradGradGradGradGradGradGradGradGradGradGradGradGradGradGrad
 Berny optimization.
 Search for a local minimum.
 Step number   1 out of a maximum of    2
 All quantities printed in internal units (Hartrees-Bohrs-Radians)
 Second derivative matrix not updated -- analytic derivatives used.
 ITU=  0
     Eigenvalues ---   -0.06494  -0.01557  -0.00539  -0.00069  -0.00011
     Eigenvalues ---    0.00101   0.00212   0.00512   0.00853   0.01312
     Eigenvalues ---    0.01983   0.03188   0.03513   0.05333   0.06434
     Eigenvalues ---    0.06825   0.07680   0.08702   0.09105   0.10563
     Eigenvalues ---    0.12098   0.14898   0.17649   0.18493   0.20816
     Eigenvalues ---    0.25219   0.29782   0.43248   0.50086   0.64469
     Eigenvalues ---    0.73397   0.77751   0.80647   0.88485   0.92500
     Eigenvalues ---    0.95232   0.97559   1.88399   2.68435
 Eigenvalue     1 is  -6.49D-02 should be greater than     0.000000 Eigenvector:
                          Y3        Y14       Z3        Z14       Y4
   1                    0.72768  -0.58068  -0.21298   0.19479   0.11268
                          X5        Y2        Y1        Z15       Y15
   1                    0.07597  -0.07253  -0.07244  -0.06356   0.06045
 Eigenvalue     2 is  -1.56D-02 should be greater than     0.000000 Eigenvector:
                          X15       X14       Z15       Y15       Y6
   1                    0.78708  -0.50867  -0.19064   0.15355  -0.08720
                          Y5        X12       X13       X8        Y14
   1                    0.07838   0.07745   0.06712   0.06387  -0.06285
 Eigenvalue     3 is  -5.39D-03 should be greater than     0.000000 Eigenvector:
                          Y5        Z15       Z14       Y6        Z5
   1                    0.56945  -0.41752  -0.30293  -0.22899  -0.22881
                          Y14       X15       Z6        Z1        Y15
   1                   -0.21414  -0.19847   0.17456   0.17245   0.16222
 Eigenvalue     4 is  -6.93D-04 should be greater than     0.000000 Eigenvector:
                          Y13       Z12       Z10       Y9        Y5
   1                    0.44832   0.38974  -0.34235  -0.25720  -0.24371
                          Z15       Y11       Y8        X15       Y2
   1                   -0.23046   0.18773   0.18442  -0.17815   0.17076
 Eigenvalue     5 is  -1.14D-04 should be greater than     0.000000 Eigenvector:
                          X12       X15       X14       Z2        X13
   1                    0.39002  -0.33163  -0.32094  -0.27745   0.26307
                          Y11       X8        X11       Y2        Y6
   1                    0.23583   0.23390   0.22154   0.19041  -0.18418
 Quadratic step=5.033D+00 exceeds max=3.000D-01 adjusted using Lamda=-1.112D-02.
 Angle between NR and scaled steps=  74.30 degrees.
 Angle between quadratic step and forces=  67.31 degrees.
 Linear search not attempted -- first point.
 B after Tr=     0.002575   -0.002310   -0.001881
         Rot=    1.000000    0.000325   -0.000051   -0.000097 Ang=   0.04 deg.
 Variable       Old X    -DE/DX   Delta X   Delta X   Delta X     New X
                                 (Linear)    (Quad)   (Total)
    X1        5.18313   0.02151   0.00000   0.05265   0.05545   5.23858
    Y1       -0.77040   0.00045   0.00000  -0.00058  -0.00136  -0.77176
    Z1        0.78493   0.00433   0.00000   0.00643   0.00452   0.78945
    X2        7.15454   0.00079   0.00000   0.04721   0.05008   7.20462
    Y2       -0.83966  -0.00034   0.00000  -0.05624  -0.05638  -0.89604
    Z2        1.18647  -0.00002   0.00000   0.01207   0.01004   1.19652
    X3        2.96585  -0.02430   0.00000   0.02950   0.03224   2.99809
    Y3       -0.55436  -0.01338   0.00000  -0.17904  -0.18055  -0.73491
    Z3        0.27545  -0.00118   0.00000   0.04891   0.04720   0.32265
    X4        0.30144   0.04442   0.00000   0.05848   0.06124   0.36268
    Y4       -1.09180   0.01954   0.00000  -0.00930  -0.01172  -1.10352
    Z4       -0.26608   0.02372   0.00000  -0.00380  -0.00500  -0.27108
    X5       -0.38727  -0.01891   0.00000  -0.00631  -0.00352  -0.39080
    Y5       -2.16580  -0.02387   0.00000  -0.03232  -0.03611  -2.20192
    Z5       -2.13285  -0.04055   0.00000  -0.03071  -0.03112  -2.16397
    X6       -1.17470  -0.00228   0.00000   0.00357   0.00636  -1.16834
    Y6       -0.28497   0.00687   0.00000   0.02922   0.02773  -0.25724
    Z6        1.60388   0.01428   0.00000  -0.00220  -0.00379   1.60008
    X7       -3.85661  -0.01745   0.00000  -0.04254  -0.03973  -3.89634
    Y7       -0.57170  -0.00045   0.00000   0.00005  -0.00222  -0.57393
    Z7        1.20710   0.00379   0.00000   0.00433   0.00321   1.21031
    X8       -4.84568  -0.00045   0.00000  -0.03224  -0.03001  -4.87569
    Y8        1.48266   0.00016   0.00000   0.00886   0.00527   1.48792
    Z8       -0.52646  -0.00021   0.00000   0.00497   0.00261  -0.52385
    X9       -4.66035  -0.00040   0.00000  -0.01683  -0.01385  -4.67421
    Y9       -0.43534  -0.00005   0.00000  -0.01081  -0.01201  -0.44734
    Z9        3.09565   0.00071   0.00000   0.01713   0.01601   3.11166
   X10       -4.21529  -0.00050   0.00000  -0.01511  -0.01201  -4.22730
   Y10       -2.45089  -0.00135   0.00000  -0.00452  -0.00737  -2.45826
   Z10        0.44098  -0.00080   0.00000  -0.00772  -0.00758   0.43339
   X11       -6.89159  -0.00139   0.00000  -0.03537  -0.03313  -6.92471
   Y11        1.30065   0.00022   0.00000   0.02338   0.01925   1.31990
   Z11       -0.72010  -0.00055   0.00000  -0.00974  -0.01178  -0.73188
   X12       -4.42087   0.00028   0.00000  -0.02033  -0.01838  -4.43926
   Y12        3.34459   0.00116   0.00000   0.00610   0.00310   3.34769
   Z12        0.24960   0.00025   0.00000   0.01369   0.01008   0.25968
   X13       -3.99514   0.00027   0.00000  -0.02031  -0.01823  -4.01338
   Y13        1.32572   0.00039   0.00000   0.01176   0.00712   1.33283
   Z13       -2.39630  -0.00165   0.00000   0.00548   0.00313  -2.39316
   X14        2.64578  -0.00307   0.00000  -0.02874  -0.02689   2.61889
   Y14        3.19497   0.00293   0.00000   0.12650   0.12419   3.31916
   Z14       -0.75386  -0.01762   0.00000  -0.03193  -0.03624  -0.79010
   X15        2.82702   0.00150   0.00000  -0.01150  -0.00960   2.81742
   Y15        3.87098   0.00772   0.00000   0.12223   0.12108   3.99206
   Z15        0.94129   0.01550   0.00000   0.00347  -0.00130   0.93999
         Item               Value     Threshold  Converged?
 Maximum Force            0.044422     0.000450     NO 
 RMS     Force            0.013300     0.000300     NO 
 Maximum Displacement     0.180554     0.001800     NO 
 RMS     Displacement     0.044675     0.001200     NO 
 Predicted change in Energy=-8.707575D-03
 GradGradGradGradGradGradGradGradGradGradGradGradGradGradGradGradGradGrad


 ----------------------------------------------------------------------

 Electric dipole moment (input orientation):
 (Debye = 10**-18 statcoulomb cm , SI units = C m)
                  (au)            (Debye)         (10**-30 SI)
   Tot        0.130412D+01      0.331474D+01      0.110568D+02
   x         -0.466231D-01     -0.118504D+00     -0.395287D+00
   y          0.232371D+00      0.590628D+00      0.197012D+01
   z          0.128240D+01      0.325954D+01      0.108727D+02

 Dipole polarizability, Alpha (input orientation).
 (esu units = cm**3 , SI units = C**2 m**2 J**-1)
 Alpha(0;0):
               (au)            (10**-24 esu)      (10**-40 SI)
   iso        0.704298D+02      0.104366D+02      0.116123D+02
   aniso      0.305177D+02      0.452226D+01      0.503169D+01
   xx         0.867446D+02      0.128542D+02      0.143022D+02
   yx        -0.665238D+01     -0.985781D+00     -0.109683D+01
   yy         0.684384D+02      0.101415D+02      0.112840D+02
   zx         0.531595D+01      0.787743D+00      0.876482D+00
   zy        -0.532330D+00     -0.788831D-01     -0.877693D-01
   zz         0.561065D+02      0.831413D+01      0.925072D+01

 ----------------------------------------------------------------------

 Dipole orientation:
     6          5.20537680         -0.88128301          0.44928871
     1          7.18964881         -1.01464841          0.76132273
     6          2.97200157         -0.58503932          0.06605556
     6          0.28822253         -1.02594863         -0.46696324
     8         -0.47023029         -1.75233977         -2.46939651
     8         -1.11751962         -0.56995880          1.56838926
     6         -3.81280600         -0.79002381          1.22301003
     6         -4.85661773          1.53716503         -0.08027453
     1         -4.54807720         -0.99492597          3.13314321
     1         -4.20467946         -2.50376919          0.14762602
     1         -6.90871087          1.38600454         -0.22997235
     1         -4.39835807          3.23237754          0.99944031
     1         -4.07397844          1.71864075         -1.97734382
     8          2.62738667          3.28664722         -0.26660687
     1          2.87128361          3.65037408          1.51428771

 Electric dipole moment (dipole orientation):
 (Debye = 10**-18 statcoulomb cm , SI units = C m)
                  (au)            (Debye)         (10**-30 SI)
   Tot        0.130412D+01      0.331474D+01      0.110568D+02
   x          0.000000D+00      0.000000D+00      0.000000D+00
   y          0.000000D+00      0.000000D+00      0.000000D+00
   z          0.130412D+01      0.331474D+01      0.110568D+02

 Dipole polarizability, Alpha (dipole orientation).
 (esu units = cm**3 , SI units = C**2 m**2 J**-1)
 Alpha(0;0):
               (au)            (10**-24 esu)      (10**-40 SI)
   iso        0.704298D+02      0.104366D+02      0.116123D+02
   aniso      0.305177D+02      0.452226D+01      0.503169D+01
   xx         0.870423D+02      0.128983D+02      0.143513D+02
   yx        -0.736883D+01     -0.109195D+01     -0.121496D+01
   yy         0.681856D+02      0.101041D+02      0.112423D+02
   zx         0.294082D+01      0.435784D+00      0.484875D+00
   zy         0.194130D+01      0.287672D+00      0.320078D+00
   zz         0.560616D+02      0.830748D+01      0.924332D+01

 ----------------------------------------------------------------------
 1\1\GINC-AJ\Freq\UM062X\6-31+G\C5H7O3(2)\AAYUSH\20-Jun-2025\0\\# freq 
 6-31+g m062x\\Title Card Required\\0,2\C,2.742794,-0.407679,0.415368\H
 ,3.786019,-0.444329,0.627854\C,1.569458,-0.293354,0.145762\C,0.159513,
 -0.577758,-0.140802\O,-0.204936,-1.146093,-1.128656\O,-0.621625,-0.150
 797,0.848735\C,-2.04083,-0.302533,0.638771\C,-2.564224,0.784588,-0.278
 591\H,-2.466153,-0.23037,1.638148\H,-2.230635,-1.296955,0.233354\H,-3.
 64687,0.688275,-0.381058\H,-2.339425,1.769881,0.132083\H,-2.114138,0.7
 01539,-1.268065\O,1.400087,1.690705,-0.398925\H,1.495995,2.048435,0.49
 8109\\Version=ES64L-G16RevA.03\State=2-A\HF=-419.954614\S2=0.766708\S2
 -1=0.\S2A=0.750122\RMSD=7.920e-09\RMSF=1.330e-02\ZeroPoint=0.1114553\T
 hermal=0.1195704\Dipole=-0.0466231,0.2323711,1.2824031\DipoleDeriv=-0.
 2081821,-0.4117017,0.0754624,-0.0390633,-0.1224284,-0.0157378,-0.06273
 12,-0.0815851,-0.170059,0.2698585,-0.0185824,-0.0005611,-0.016025,0.23
 11515,0.0011667,0.0180111,0.0047356,0.2583804,-0.5652921,0.3913081,-0.
 142314,0.0707833,-0.7071862,0.1096576,-0.0414845,0.2181568,-0.1455236,
 2.0813411,0.2715284,-0.1356894,-0.0936612,0.8290818,0.5134466,-0.45379
 66,0.573486,1.4081492,-0.7765469,-0.1908936,-0.1652651,-0.006925,-0.58
 5726,-0.3164438,0.0230501,-0.3657206,-0.86595,-1.5311682,0.1230151,0.3
 330282,0.1785341,-0.4426572,-0.1544245,0.493116,-0.1716955,-0.8094005,
 0.8971715,-0.0855362,-0.0820209,0.0001476,0.2940422,-0.0721061,0.01444
 99,-0.0131253,0.3061176,-0.0910296,0.0355635,0.0265069,0.0489138,-0.03
 34596,0.0933174,-0.035081,0.0623705,-0.0530793,-0.0080468,0.0090027,0.
 0276181,0.0237051,0.0840322,-0.0051206,0.0744002,0.021562,-0.0897753,-
 0.0064753,0.0392102,0.012586,-0.0396893,-0.0706226,-0.0045247,-0.05889
 15,-0.0468756,0.0691183,-0.1442677,0.0014909,-0.0242049,-0.0274108,0.0
 848414,0.002728,-0.0168606,0.0166554,0.1092609,0.1040981,-0.0638217,-0
 .0331671,-0.0103991,-0.079521,-0.0314807,-0.0311612,-0.0707804,0.03550
 75,0.0962301,-0.0025587,0.0848819,0.015365,0.060826,-0.0207024,0.05938
 97,0.0119559,-0.0313663,-0.4540145,-0.137082,0.0476142,-0.1078691,0.10
 4597,-0.0223709,0.0627008,-0.1546809,-0.0832304,0.3363238,0.0390574,-0
 .0244753,0.0035939,0.3530288,-0.0774048,-0.0451113,-0.0044586,0.061850
 6\Polar=86.7445834,-6.6523766,68.4383545,5.3159517,-0.5323296,56.10651
 85\Quadrupole=8.6807928,-2.844982,-5.8358108,-0.8793238,2.6508845,0.28
 88384\PG=C01 [X(C5H7O3)]\NImag=4\\1.48192969,-0.09119303,0.05405111,0.
 31423074,-0.01897553,0.12247985,-0.41727412,0.01528283,-0.07965424,0.4
 0638633,0.00856970,-0.02514294,0.00077389,-0.01421566,0.01597200,-0.07
 777898,0.00236384,-0.04463580,0.07950845,-0.00226985,0.03296173,-1.064
 96801,0.07627232,-0.23251339,0.01127717,0.00603920,-0.00057571,1.38689
 158,0.02240155,-0.00835026,-0.00077607,-0.00103573,0.00538944,-0.00052
 872,0.01742471,0.00620286,-0.22047902,0.00938771,-0.08273159,0.0007764
 0,0.00132992,0.00730229,0.26346606,0.04548704,0.16211386,0.01598308,-0
 .00671855,0.00310244,-0.00120100,-0.00069256,-0.00178983,-0.25872961,-
 0.01240621,-0.03902938,0.67673506,0.02131849,-0.00105958,0.00521499,0.
 00027391,0.00485565,0.00010912,-0.04390875,-0.05746639,-0.00662458,0.0
 9789709,0.39603153,-0.00651541,0.00018681,0.00629961,-0.00075851,-0.00
 055605,0.00456983,-0.02032004,-0.00130749,-0.07319505,0.10439010,0.369
 41567,0.85443652,-0.00445729,0.00128839,-0.00022420,0.00021388,0.00041
 742,0.00139620,-0.02442950,-0.03266463,-0.04569662,-0.16807746,-0.1210
 9758,-0.20453699,0.16985171,-0.00255816,0.00085597,-0.00015282,-0.0001
 1182,-0.00052283,0.00068021,-0.01944737,0.00414343,-0.02477966,-0.1149
 9851,-0.23422859,-0.30348425,0.13201709,0.22852138,0.00091030,-0.00025
 839,0.00058325,0.00004225,0.00066957,0.00008485,-0.03091603,-0.0227657
 1,-0.01615662,-0.19600201,-0.30430520,-0.58372364,0.21537773,0.3784969
 3,0.67912111,-0.00743794,0.00014847,-0.00305554,0.00071524,-0.00053129
 ,-0.00088723,-0.05434789,0.00559358,0.03863051,-0.20319078,0.05144999,
 0.12302581,0.02536916,0.00829603,0.01910938,0.54055801,-0.00015182,0.0
 0108408,0.00022809,-0.00003466,-0.00043679,-0.00017216,-0.00101608,0.0
 0942576,-0.00235985,0.03327554,-0.09058085,-0.06768289,0.01504527,0.00
 311810,-0.05432645,-0.03205506,0.14207163,0.00096475,0.00032612,0.0001
 1043,-0.00011818,0.00001248,-0.00054907,0.00739633,-0.00234638,0.00267
 260,0.08721931,-0.06896876,-0.20763287,0.02834340,-0.05360902,-0.08012
 267,-0.11675397,0.13564000,0.36094662,0.00208425,-0.00015106,0.0011808
 9,-0.00029122,0.00004464,-0.00006561,0.00356031,0.00299915,-0.00151613
 ,-0.05933504,0.00833805,0.02704267,-0.00062897,-0.00896496,-0.01547828
 ,-0.20111555,-0.01506909,-0.00465907,0.48345105,-0.00091398,0.00012683
 ,-0.00005120,-0.00005808,-0.00018809,0.00005385,0.00119785,0.00320899,
 -0.00291099,0.01505068,0.00697872,0.00726348,-0.00195465,-0.00514395,-
 0.00027170,-0.02757792,-0.07215326,-0.01430003,0.00841038,0.58604116,0
 .00134168,0.00036000,0.00041981,0.00003854,0.00006612,0.00019754,0.003
 35298,-0.00342262,-0.00229655,0.04081142,0.00471176,0.00202856,0.00215
 546,0.00153964,-0.00237677,-0.03811310,-0.01443138,-0.08106622,-0.0656
 5684,0.04937733,0.61989364,-0.00018569,-0.00003726,-0.00007878,0.00009
 427,0.00004516,-0.00002570,-0.00058041,-0.00124516,0.00115363,0.002185
 64,-0.00122194,-0.00878893,0.00066785,0.00212177,0.00217903,-0.0390072
 9,0.03091676,-0.02551666,-0.08475432,0.02061356,-0.01341279,0.58858865
 ,-0.00019298,-0.00003609,-0.00013395,0.00001539,-0.00000233,0.00001536
 ,0.00019623,-0.00039944,0.00044012,0.00080790,-0.00137648,-0.00323429,
 0.00094001,0.00031081,0.00143407,-0.00236129,0.00711850,0.00022476,0.0
 3141746,-0.16122525,0.05923059,0.02682375,0.55142268,0.00001378,0.0000
 6170,-0.00008360,0.00000223,0.00000756,0.00000457,-0.00043102,-0.00037
 940,0.00022249,0.00151637,-0.00006399,0.00315925,-0.00146870,0.0012929
 1,-0.00096821,-0.00716910,0.00269621,-0.00142211,-0.02089986,0.0580552
 3,-0.13732659,-0.02357126,0.04169801,0.56740369,-0.00066904,-0.0001360
 6,-0.00025926,0.00003081,-0.00002411,-0.00003533,-0.00106278,0.0006352
 0,0.00108898,-0.00439458,-0.00464762,-0.00410383,0.00161430,0.00069804
 ,0.00075026,-0.03462766,0.00541509,0.03513280,-0.08224321,0.00576186,0
 .09045387,0.00703680,-0.00041521,-0.01257170,0.10976928,-0.00001622,-0
 .00001735,-0.00001728,-0.00001334,-0.00000335,-0.00000850,-0.00017742,
 0.00026030,0.00010873,-0.00076543,-0.00126420,-0.00241845,0.00186205,0
 .00076272,0.00035046,-0.00482419,0.00143458,0.00471573,0.00914317,-0.0
 5647860,-0.02289131,-0.00916692,0.00095802,0.02676878,-0.00964379,0.05
 615323,-0.00002978,-0.00016119,0.00003480,-0.00001237,0.00001977,-0.00
 003354,0.00005274,0.00053512,0.00011450,-0.00312840,-0.00043393,0.0002
 8956,0.00101997,0.00039473,0.00056637,-0.00625727,-0.00063245,0.007014
 24,0.10457462,-0.02146236,-0.29222871,0.00630626,-0.00154794,-0.017821
 20,-0.10516915,0.01993305,0.31113354,-0.00020331,-0.00025366,-0.000055
 87,0.00003008,-0.00000854,-0.00001159,-0.00003622,0.00095022,0.0001299
 2,0.00214340,-0.00519218,-0.00757146,0.00067541,0.00180683,0.00327507,
 -0.02916270,-0.03539612,-0.01405622,-0.05557652,-0.03171671,-0.0104135
 7,0.00429271,0.01248983,0.00451093,0.00443104,0.01227087,0.00440310,0.
 07358630,0.00017361,-0.00001603,0.00002932,0.00001304,0.00001722,-0.00
 001853,-0.00012194,-0.00008021,0.00030427,0.00073246,-0.00083728,-0.00
 335773,0.00274549,0.00088224,0.00053770,-0.00511008,0.00065830,-0.0010
 7865,-0.04241934,-0.28045152,-0.09295975,-0.00224185,-0.02187890,-0.00
 888974,0.00036420,-0.00034262,0.00063030,0.04415093,0.30265713,-0.0001
 0663,0.00010605,-0.00007522,0.00001889,-0.00000800,0.00001585,-0.00030
 610,-0.00058888,0.00004832,0.00266616,0.00042453,0.00075301,0.00076435
 ,0.00043229,-0.00115031,-0.00532793,-0.00305083,-0.00131780,-0.0169838
 7,-0.09654401,-0.09258285,0.00315714,0.02286049,0.00799358,-0.00484983
 ,-0.02813272,-0.00971479,0.02175405,0.10231994,0.09691144,-0.00007445,
 0.00000712,-0.00003501,0.00003588,-0.00000670,0.00001326,-0.00017896,-
 0.00018983,0.00008075,0.00167910,-0.00086986,-0.00116941,-0.00009255,0
 .00054890,0.00032248,-0.00052459,0.00290135,-0.00102242,-0.01175461,-0
 .00417335,0.00140601,-0.31873382,-0.02398181,-0.02552002,0.00029573,-0
 .00002623,-0.00039329,0.00018148,0.00049355,0.00014808,0.34850884,0.00
 018467,-0.00001766,0.00007884,-0.00000980,-0.00000646,0.00000455,0.000
 03131,0.00048255,-0.00042661,-0.00071777,0.00033542,0.00210454,-0.0001
 8245,-0.00055241,-0.00057825,0.00501021,-0.00394391,0.00320296,0.02487
 778,0.00308929,0.00077387,-0.02617242,-0.05127005,-0.00171222,-0.00054
 395,0.00096337,-0.00020923,-0.00051189,0.00021243,-0.00106387,0.026428
 13,0.05249366,-0.00010434,-0.00001781,-0.00002438,0.00000663,0.0000015
 8,-0.00000153,-0.00006679,-0.00007667,0.00019260,0.00038599,-0.0005469
 3,-0.00286321,0.00056772,0.00001084,0.00111153,-0.00464220,0.00436582,
 -0.00164107,-0.02061981,-0.00386657,-0.00147415,-0.02359447,-0.0011238
 9,-0.05036921,0.00053660,-0.00087430,-0.00000379,0.00037265,-0.0002462
 1,0.00077692,0.02883535,0.00015872,0.05154045,-0.00009224,0.00003221,-
 0.00002108,-0.00003167,0.00000615,-0.00000424,0.00019666,-0.00022660,0
 .00005096,-0.00050382,0.00100252,0.00138956,-0.00045920,-0.00018546,-0
 .00069190,0.00217046,-0.00081937,0.00063684,0.00110479,0.01404438,0.00
 301332,-0.06137173,-0.05353858,-0.02110559,0.00009843,-0.00081727,0.00
 041785,-0.00033521,0.00193277,-0.00157459,-0.00603899,-0.03139370,-0.0
 1324135,0.06201518,0.00018389,-0.00002248,0.00005539,0.00000655,-0.000
 00085,-0.00000642,-0.00003486,0.00024656,-0.00007854,-0.00024990,-0.00
 076278,-0.00062762,0.00036183,0.00024072,0.00047205,-0.00065551,0.0028
 5374,-0.00083393,-0.00604808,-0.02600181,-0.00964391,-0.05098692,-0.27
 137035,-0.09541317,-0.00011277,0.00100904,0.00001745,0.00171548,-0.001
 65963,0.00368702,0.00066440,-0.00150180,-0.00082855,0.05620628,0.29884
 725,0.00017626,-0.00001723,0.00002604,0.00000204,-0.00000520,0.0000032
 7,-0.00009818,0.00043235,-0.00009322,-0.00060399,-0.00046007,-0.000098
 07,0.00055505,-0.00033801,0.00029197,0.00237980,-0.00166580,0.00055166
 ,0.00354538,0.02516803,0.00773779,-0.02219687,-0.09821985,-0.09195536,
 0.00063545,-0.00052146,0.00106652,-0.00216290,0.00309085,-0.00249980,0
 .00039640,-0.00236383,-0.00177714,0.02564773,0.10286583,0.09701982,0.0
 0008187,0.00000625,0.00002187,-0.00003252,0.00000951,-0.00000189,0.000
 12891,0.00006300,-0.00000804,-0.00130940,0.00035898,-0.00092524,-0.000
 46223,0.00069327,0.00040949,0.00149047,-0.00119657,0.00076262,0.004793
 85,0.00103516,-0.01464926,-0.09820988,0.00792454,0.10674527,-0.0002304
 1,0.00222613,-0.00185819,0.00003124,-0.00070979,0.00066726,-0.01317637
 ,0.00302790,0.03149646,0.00319161,-0.00109463,-0.00818068,0.10343915,-
 0.00024606,0.00001790,-0.00006138,0.00000006,0.00001099,0.00001101,0.0
 0014456,-0.00053316,0.00001835,0.00134367,0.00144835,0.00203533,-0.000
 71831,-0.00085200,-0.00126046,-0.00041589,0.00077974,-0.00270473,-0.01
 214430,0.00085800,0.02805853,0.01056158,-0.05224714,-0.02419018,0.0024
 3407,-0.00346229,0.00285169,-0.00058625,0.00093265,-0.00038109,-0.0017
 6330,-0.00023010,0.00299974,0.01370831,-0.00182021,-0.02787477,-0.0124
 4024,0.05504036,0.00000615,0.00000648,0.00001859,-0.00002364,-0.000011
 69,-0.00001447,0.00011539,0.00020654,0.00005692,-0.00122605,-0.0001523
 1,-0.00185455,0.00116013,-0.00066418,0.00110397,-0.00050661,-0.0009204
 1,0.00185802,0.00985332,-0.00036142,-0.02114650,0.10435761,-0.02143872
 ,-0.27863488,-0.00159749,0.00301370,-0.00040939,-0.00024666,-0.0004525
 5,0.00080879,-0.00308687,-0.00004152,0.00450102,0.00563343,0.00022624,
 -0.01038332,-0.11457688,0.02052044,0.30415626,-0.00454512,0.00517597,-
 0.00285114,0.00010824,-0.00038953,0.00020951,0.00350360,-0.00381372,0.
 00060953,-0.00549487,-0.00091225,0.00218931,0.00091224,-0.00017530,-0.
 00019697,0.00016054,-0.00410513,0.00048380,0.00105467,0.00035230,-0.00
 057851,-0.00011851,0.00018634,0.00007738,-0.00001421,0.00001638,0.0000
 6349,-0.00018526,-0.00010248,-0.00005444,-0.00020179,-0.00018247,0.000
 05013,0.00031515,-0.00018612,-0.00020573,0.00026980,0.00017145,0.00019
 332,0.00161739,0.04268850,-0.02032024,0.01404093,-0.00042418,0.0000407
 9,-0.00023559,-0.03680268,0.04347692,-0.01488548,-0.01007811,-0.018976
 89,0.00380529,0.00083295,0.00190215,0.00031129,0.00159316,-0.00217281,
 -0.00057592,0.00045950,0.00105972,-0.00082420,-0.00012854,-0.00003303,
 0.00004563,0.00014081,0.00005540,0.00007142,0.00006914,-0.00010241,-0.
 00013532,-0.00007594,0.,0.00000231,0.00006713,-0.00005763,-0.00000396,
 0.00013040,-0.00002768,0.00006807,0.02045798,0.06394572,-0.01466048,0.
 00552814,-0.00353177,0.00013052,0.00007213,0.00014351,0.01277217,-0.02
 042114,0.00121244,0.00358165,0.00187626,-0.00180053,-0.00011051,-0.000
 13038,0.00109714,-0.00086079,0.00250216,0.00125788,-0.00027814,-0.0001
 2609,0.00023492,0.00003916,-0.00019214,-0.00013106,-0.00005826,-0.0000
 4089,-0.00000330,0.00009433,0.00009519,0.00004252,0.00001874,0.0000674
 8,0.00000896,-0.00011507,0.00013599,0.00008581,0.00006350,-0.00004211,
 -0.00006439,0.05095206,0.18170118,0.45059258,-0.00017169,0.00027606,0.
 00021255,-0.00006136,0.00073660,0.00004869,-0.00122485,0.00151447,0.00
 074245,0.00351028,-0.00278888,-0.00334764,-0.00069733,0.00025965,0.000
 90921,-0.00104947,0.00228987,0.00118666,-0.00034948,-0.00007149,0.0002
 5080,0.00009574,-0.00031158,-0.00012871,-0.00003449,-0.00006780,0.0000
 1041,0.00012756,0.00009943,0.00002747,0.00007511,0.00015446,0.00001743
 ,-0.00025941,0.00023036,0.00011025,-0.00000609,-0.00004934,-0.00005515
 ,0.00261812,-0.01893013,-0.05156887,-0.00257264,-0.00024818,-0.0011532
 8,-0.00025323,0.00031150,0.00001755,0.00000182,0.00020293,-0.00600732,
 -0.00501044,-0.00248031,-0.00309664,-0.00214236,0.00110712,0.00056226,
 0.00149410,0.00143980,0.00074320,0.00029538,-0.00089330,0.00027977,0.0
 0005533,0.00011843,0.00002905,0.00002269,0.00007424,-0.00002825,-0.000
 00641,0.00021204,0.00000863,0.00007440,0.00004356,-0.00005433,0.000041
 92,-0.00001879,0.00000024,-0.00008688,-0.00003392,0.00008459,0.0000013
 4,-0.01649343,-0.06879000,-0.17102579,0.01665831,0.07740454,0.00203098
 ,0.00110330,0.00110999,0.00004101,-0.00010221,-0.00004902,-0.00192841,
 0.00595203,0.00053702,-0.00189377,-0.00019657,-0.00036842,0.00069703,0
 .00031077,0.00053803,0.00042825,-0.00019007,-0.00065964,-0.00003927,-0
 .00002356,-0.00001392,-0.00000738,-0.00001262,-0.00007136,0.00004689,0
 .00001446,-0.00000481,-0.00002179,-0.00000440,-0.00000964,0.00000595,0
 .00000457,0.00002301,-0.00003587,-0.00002783,0.00002404,0.00003371,0.0
 0001962,0.00000393,-0.05094176,-0.18338564,-0.44914471,0.05158445,0.17
 653813,0.44808553\\-0.02150875,-0.00045251,-0.00433497,-0.00078923,0.0
 0033732,0.00002444,0.02430319,0.01337842,0.00117712,-0.04442190,-0.019
 53731,-0.02372285,0.01890883,0.02387427,0.04055498,0.00228368,-0.00686
 532,-0.01428366,0.01745475,0.00045396,-0.00379154,0.00045105,-0.000157
 18,0.00021149,0.00040318,0.00004612,-0.00071395,0.00049878,0.00134566,
 0.00080040,0.00139464,-0.00021902,0.00054837,-0.00028198,-0.00116238,-
 0.00024793,-0.00027111,-0.00039215,0.00164998,0.00307289,-0.00293450,0
 .01762431,-0.00149800,-0.00771537,-0.01549620\\\@


 IT'S WHAT YOU LEARN AFTER YOU KNOW IT ALL
 THAT COUNTS.
 Job cpu time:       0 days  0 hours 19 minutes 14.5 seconds.
 Elapsed time:       0 days  0 hours  0 minutes 48.2 seconds.
 File lengths (MBytes):  RWF=     59 Int=      0 D2E=      0 Chk=      8 Scr=      1
 Normal termination of Gaussian 16 at Fri Jun 20 13:45:50 2025.
