 Entering Gaussian System, Link 0=g16
 Initial command:
 /opt/g16/l1.exe "/home/aayush/Research/Transition_states/Abstraction/ts8_irc_points/Gau-16140.inp" -scrdir="/home/aayush/Research/Transition_states/Abstraction/ts8_irc_points/"
 Entering Link 1 = /opt/g16/l1.exe PID=     16143.
  
 Copyright (c) 1988,1990,1992,1993,1995,1998,2003,2009,2016,
            Gaussian, Inc.  All Rights Reserved.
  
 This is part of the Gaussian(R) 16 program.  It is based on
 the Gaussian(R) 09 system (copyright 2009, Gaussian, Inc.),
 the Gaussian(R) 03 system (copyright 2003, Gaussian, Inc.),
 the Gaussian(R) 98 system (copyright 1998, Gaussian, Inc.),
 the Gaussian(R) 94 system (copyright 1995, Gaussian, Inc.),
 the Gaussian 92(TM) system (copyright 1992, Gaussian, Inc.),
 the Gaussian 90(TM) system (copyright 1990, Gaussian, Inc.),
 the Gaussian 88(TM) system (copyright 1988, Gaussian, Inc.),
 the Gaussian 86(TM) system (copyright 1986, Carnegie Mellon
 University), and the Gaussian 82(TM) system (copyright 1983,
 Carnegie Mellon University). Gaussian is a federally registered
 trademark of Gaussian, Inc.
  
 This software contains proprietary and confidential information,
 including trade secrets, belonging to Gaussian, Inc.
  
 This software is provided under written license and may be
 used, copied, transmitted, or stored only in accord with that
 written license.
  
 The following legend is applicable only to US Government
 contracts under FAR:
  
                    RESTRICTED RIGHTS LEGEND
  
 Use, reproduction and disclosure by the US Government is
 subject to restrictions as set forth in subparagraphs (a)
 and (c) of the Commercial Computer Software - Restricted
 Rights clause in FAR 52.227-19.
  
 Gaussian, Inc.
 340 Quinnipiac St., Bldg. 40, Wallingford CT 06492
  
  
 ---------------------------------------------------------------
 Warning -- This program may not be used in any manner that
 competes with the business of Gaussian, Inc. or will provide
 assistance to any competitor of Gaussian, Inc.  The licensee
 of this program is prohibited from giving any competitor of
 Gaussian, Inc. access to this program.  By using this program,
 the user acknowledges that Gaussian, Inc. is engaged in the
 business of creating and licensing software in the field of
 computational chemistry and represents and warrants to the
 licensee that it is not a competitor of Gaussian, Inc. and that
 it will not use this program in any manner prohibited above.
 ---------------------------------------------------------------
  

 Cite this work as:
 Gaussian 16, Revision A.03,
 M. J. Frisch, G. W. Trucks, H. B. Schlegel, G. E. Scuseria, 
 M. A. Robb, J. R. Cheeseman, G. Scalmani, V. Barone, 
 G. A. Petersson, H. Nakatsuji, X. Li, M. Caricato, A. V. Marenich, 
 J. Bloino, B. G. Janesko, R. Gomperts, B. Mennucci, H. P. Hratchian, 
 J. V. Ortiz, A. F. Izmaylov, J. L. Sonnenberg, D. Williams-Young, 
 F. Ding, F. Lipparini, F. Egidi, J. Goings, B. Peng, A. Petrone, 
 T. Henderson, D. Ranasinghe, V. G. Zakrzewski, J. Gao, N. Rega, 
 G. Zheng, W. Liang, M. Hada, M. Ehara, K. Toyota, R. Fukuda, 
 J. Hasegawa, M. Ishida, T. Nakajima, Y. Honda, O. Kitao, H. Nakai, 
 T. Vreven, K. Throssell, J. A. Montgomery, Jr., J. E. Peralta, 
 F. Ogliaro, M. J. Bearpark, J. J. Heyd, E. N. Brothers, K. N. Kudin, 
 V. N. Staroverov, T. A. Keith, R. Kobayashi, J. Normand, 
 K. Raghavachari, A. P. Rendell, J. C. Burant, S. S. Iyengar, 
 J. Tomasi, M. Cossi, J. M. Millam, M. Klene, C. Adamo, R. Cammi, 
 J. W. Ochterski, R. L. Martin, K. Morokuma, O. Farkas, 
 J. B. Foresman, and D. J. Fox, Gaussian, Inc., Wallingford CT, 2016.
 
 ******************************************
 Gaussian 16:  ES64L-G16RevA.03 25-Dec-2016
                29-Mar-2025 
 ******************************************
 %chk=ethyl_propiolate.chk
 %nprocshared=24
 Will use up to   24 processors via shared memory.
 %mem=12GB
 --------------------------
 # freq 6-311++g(d,p) m062x
 --------------------------
 1/10=4,30=1,38=1/1,3;
 2/12=2,17=6,18=5,40=1/2;
 3/5=4,6=6,7=1111,11=2,25=1,30=1,71=2,74=-55,140=1/1,2,3;
 4//1;
 5/5=2,38=5,98=1/2;
 8/6=4,10=90,11=11/1;
 11/6=1,8=1,9=11,15=111,16=1/1,2,10;
 10/6=1/2;
 6/7=2,8=2,9=2,10=2,28=1/1;
 7/8=1,10=1,25=1/1,2,3,16;
 1/10=4,30=1/3;
 99//99;
 -------------------
 Title Card Required
 -------------------
 Symbolic Z-matrix:
 Charge =  0 Multiplicity = 2
 C                    -1.65328  -0.31364  -0.04423 
 H                    -2.82806  -0.86275   0.00816 
 C                    -0.62161   0.31842  -0.03505 
 C                     0.65303   1.04903   0.02228 
 O                     0.68743   2.19794   0.34803 
 O                     1.75593   0.38055  -0.31775 
 C                     1.71381  -1.02695  -0.61527 
 C                     1.76749  -1.85147   0.65532 
 H                     0.82604  -1.25179  -1.2091 
 H                     2.59534  -1.19134  -1.2329 
 H                     2.65385  -1.59292   1.23619 
 H                     0.88133  -1.68212   1.26912 
 H                     1.81144  -2.91328   0.40498 
 O                    -3.95608  -0.61962  -0.08062 
 H                    -4.07121   0.13148   0.52401 
 

 GradGradGradGradGradGradGradGradGradGradGradGradGradGradGradGradGradGrad
 Berny optimization.
 Initialization pass.
 Trust Radius=3.00D-01 FncErr=1.00D-07 GrdErr=1.00D-07 EigMax=2.50D+02 EigMin=1.00D-04
 Number of steps in this run=      2 maximum allowed number of steps=      2.
 GradGradGradGradGradGradGradGradGradGradGradGradGradGradGradGradGradGrad

                          Input orientation:                          
 ---------------------------------------------------------------------
 Center     Atomic      Atomic             Coordinates (Angstroms)
 Number     Number       Type             X           Y           Z
 ---------------------------------------------------------------------
      1          6           0       -1.653283   -0.313636   -0.044225
      2          1           0       -2.828063   -0.862750    0.008158
      3          6           0       -0.621609    0.318423   -0.035049
      4          6           0        0.653028    1.049034    0.022275
      5          8           0        0.687433    2.197941    0.348025
      6          8           0        1.755934    0.380545   -0.317754
      7          6           0        1.713814   -1.026953   -0.615272
      8          6           0        1.767486   -1.851467    0.655324
      9          1           0        0.826041   -1.251792   -1.209098
     10          1           0        2.595339   -1.191336   -1.232895
     11          1           0        2.653849   -1.592924    1.236186
     12          1           0        0.881327   -1.682122    1.269115
     13          1           0        1.811444   -2.913275    0.404977
     14          8           0       -3.956077   -0.619624   -0.080616
     15          1           0       -4.071207    0.131478    0.524012
 ---------------------------------------------------------------------
                    Distance matrix (angstroms):
                    1          2          3          4          5
     1  C    0.000000
     2  H    1.297836   0.000000
     3  C    1.209931   2.503093   0.000000
     4  C    2.679620   3.971538   1.470299   0.000000
     5  O    3.455551   4.673548   2.322267   1.194690   0.000000
     6  O    3.489909   4.760780   2.395097   1.333754   2.210856
     7  C    3.488876   4.587404   2.756972   2.416910   3.518713
     8  C    3.815227   4.745045   3.300426   3.171068   4.202220
     9  H    2.895533   3.871116   2.437141   2.615342   3.787414
    10  H    4.498231   5.573282   3.750062   3.219826   4.198406
    11  H    4.671982   5.665030   3.999739   3.529420   4.361912
    12  H    3.165733   4.002619   2.821673   3.010971   3.992604
    13  H    4.354795   5.087941   4.069059   4.145875   5.233658
    14  O    2.323319   1.157327   3.464201   4.902944   5.448357
    15  H    2.523366   1.673321   3.499603   4.838600   5.190944
                    6          7          8          9         10
     6  O    0.000000
     7  C    1.439216   0.000000
     8  C    2.434932   1.515625   0.000000
     9  H    2.079355   1.091477   2.173016   0.000000
    10  H    2.003221   1.088837   2.164829   1.770491   0.000000
    11  H    2.667501   2.152182   1.090818   3.071916   2.502210
    12  H    2.745485   2.161757   1.091190   2.515905   3.072257
    13  H    3.372636   2.146777   1.091807   2.517297   2.502437
    14  O    5.803761   5.709592   5.900696   4.953964   6.676500
    15  H    5.892892   6.008860   6.167629   5.375885   7.019928
                   11         12         13         14         15
    11  H    0.000000
    12  H    1.775070   0.000000
    13  H    1.773099   1.768499   0.000000
    14  O    6.809728   5.133337   6.225828   0.000000
    15  H    6.979050   5.326529   6.624973   0.971074   0.000000
 Stoichiometry    C5H7O3(2)
 Framework group  C1[X(C5H7O3)]
 Deg. of freedom    39
 Full point group                 C1      NOp   1
 Largest Abelian subgroup         C1      NOp   1
 Largest concise Abelian subgroup C1      NOp   1
                         Standard orientation:                         
 ---------------------------------------------------------------------
 Center     Atomic      Atomic             Coordinates (Angstroms)
 Number     Number       Type             X           Y           Z
 ---------------------------------------------------------------------
      1          6           0       -1.668054   -0.240263   -0.051948
      2          1           0       -2.841941   -0.791247    0.000806
      3          6           0       -0.637391    0.393449   -0.043130
      4          6           0        0.636086    1.126113    0.013763
      5          8           0        0.668720    2.275145    0.339256
      6          8           0        1.739989    0.459318   -0.326357
      7          6           0        1.700060   -0.948310   -0.623560
      8          6           0        1.755324   -1.772461    0.647203
      9          1           0        0.812521   -1.174700   -1.217148
     10          1           0        2.581715   -1.111415   -1.241336
     11          1           0        2.641396   -1.512372    1.227819
     12          1           0        0.869026   -1.604402    1.261147
     13          1           0        1.800929   -2.834252    0.397077
     14          8           0       -3.970362   -0.549948   -0.087780
     15          1           0       -4.086566    0.201100    0.516710
 ---------------------------------------------------------------------
 Rotational constants (GHZ):           2.6275622           1.0389634           0.7911167
 Standard basis: 6-311++G(d,p) (5D, 7F)
 There are   233 symmetry adapted cartesian basis functions of A   symmetry.
 There are   225 symmetry adapted basis functions of A   symmetry.
   225 basis functions,   351 primitive gaussians,   233 cartesian basis functions
    31 alpha electrons       30 beta electrons
       nuclear repulsion energy       340.5737917716 Hartrees.
 NAtoms=   15 NActive=   15 NUniq=   15 SFac= 1.00D+00 NAtFMM=   60 NAOKFM=F Big=F
 Integral buffers will be    131072 words long.
 Raffenetti 2 integral format.
 Two-electron integral symmetry is turned on.
 One-electron integrals computed using PRISM.
 NBasis=   225 RedAO= T EigKep=  1.78D-05  NBF=   225
 NBsUse=   224 1.00D-06 EigRej=  8.12D-07 NBFU=   224
 ExpMin= 3.60D-02 ExpMax= 8.59D+03 ExpMxC= 1.30D+03 IAcc=3 IRadAn=         5 AccDes= 0.00D+00
 Harris functional with IExCor= 1009 and IRadAn=       5 diagonalized for initial guess.
 HarFok:  IExCor= 1009 AccDes= 0.00D+00 IRadAn=         5 IDoV= 1 UseB2=F ITyADJ=14
 ICtDFT=  3500011 ScaDFX=  1.000000  1.000000  1.000000  1.000000
 FoFCou: FMM=F IPFlag=           0 FMFlag=      100000 FMFlg1=           0
         NFxFlg=           0 DoJE=T BraDBF=F KetDBF=T FulRan=T
         wScrn=  0.000000 ICntrl=       500 IOpCl=  0 I1Cent=   200000004 NGrid=           0
         NMat0=    1 NMatS0=      1 NMatT0=    0 NMatD0=    1 NMtDS0=    0 NMtDT0=    0
 Petite list used in FoFCou.
 Initial guess <Sx>= 0.0000 <Sy>= 0.0000 <Sz>= 0.5000 <S**2>= 0.7500 S= 0.5000
 Requested convergence on RMS density matrix=1.00D-08 within 128 cycles.
 Requested convergence on MAX density matrix=1.00D-06.
 Requested convergence on             energy=1.00D-06.
 No special actions if energy rises.
 Restarting incremental Fock formation.
 SCF Done:  E(UM062X) =  -420.168781307     A.U. after   22 cycles
            NFock= 22  Conv=0.49D-08     -V/T= 2.0033
 <Sx>= 0.0000 <Sy>= 0.0000 <Sz>= 0.5000 <S**2>= 0.7611 S= 0.5056
 <L.S>=  0.00000000000    
 Annihilation of the first spin contaminant:
 S**2 before annihilation     0.7611,   after     0.7501
 DoSCS=F DFT=T ScalE2(SS,OS)=  1.000000  1.000000
 Range of M.O.s used for correlation:     1   224
 NBasis=   225 NAE=    31 NBE=    30 NFC=     0 NFV=     0
 NROrb=    224 NOA=    31 NOB=    30 NVA=   193 NVB=   194

 **** Warning!!: The largest alpha MO coefficient is  0.66092310D+02


 **** Warning!!: The largest beta MO coefficient is  0.64125188D+02

 Symmetrizing basis deriv contribution to polar:
 IMax=3 JMax=2 DiffMx= 0.00D+00
 G2DrvN: will do    16 centers at a time, making    1 passes.
 Calling FoFCou, ICntrl=  3107 FMM=F I1Cent=   0 AccDes= 0.00D+00.
 End of G2Drv F.D. properties file   721 does not exist.
 End of G2Drv F.D. properties file   722 does not exist.
 End of G2Drv F.D. properties file   788 does not exist.
          IDoAtm=111111111111111
          Differentiating once with respect to electric field.
                with respect to dipole field.
          Differentiating once with respect to nuclear coordinates.
 Keep R1 and R2 ints in memory in canonical form, NReq=671901989.
          There are    48 degrees of freedom in the 1st order CPHF.  IDoFFX=6 NUNeed=     3.
     45 vectors produced by pass  0 Test12= 2.46D-14 2.08D-09 XBig12= 1.31D+02 4.94D+00.
 AX will form    45 AO Fock derivatives at one time.
     45 vectors produced by pass  1 Test12= 2.46D-14 2.08D-09 XBig12= 2.71D+01 1.16D+00.
     45 vectors produced by pass  2 Test12= 2.46D-14 2.08D-09 XBig12= 1.61D+00 1.84D-01.
     45 vectors produced by pass  3 Test12= 2.46D-14 2.08D-09 XBig12= 2.56D-02 1.78D-02.
     45 vectors produced by pass  4 Test12= 2.46D-14 2.08D-09 XBig12= 3.61D-04 3.89D-03.
     45 vectors produced by pass  5 Test12= 2.46D-14 2.08D-09 XBig12= 4.15D-06 1.96D-04.
     39 vectors produced by pass  6 Test12= 2.46D-14 2.08D-09 XBig12= 2.75D-08 1.72D-05.
     22 vectors produced by pass  7 Test12= 2.46D-14 2.08D-09 XBig12= 2.14D-10 1.81D-06.
      5 vectors produced by pass  8 Test12= 2.46D-14 2.08D-09 XBig12= 1.63D-12 1.03D-07.
      2 vectors produced by pass  9 Test12= 2.46D-14 2.08D-09 XBig12= 1.26D-14 8.75D-09.
 InvSVY:  IOpt=1 It=  1 EMax= 7.11D-15
 Solved reduced A of dimension   338 with    48 vectors.
 Isotropic polarizability for W=    0.000000       82.17 Bohr**3.
 End of Minotr F.D. properties file   721 does not exist.
 End of Minotr F.D. properties file   722 does not exist.
 End of Minotr F.D. properties file   788 does not exist.

 **********************************************************************

            Population analysis using the SCF density.

 **********************************************************************

 Orbital symmetries:
 Alpha Orbitals:
       Occupied  (A) (A) (A) (A) (A) (A) (A) (A) (A) (A) (A) (A)
                 (A) (A) (A) (A) (A) (A) (A) (A) (A) (A) (A) (A)
                 (A) (A) (A) (A) (A) (A) (A)
       Virtual   (A) (A) (A) (A) (A) (A) (A) (A) (A) (A) (A) (A)
                 (A) (A) (A) (A) (A) (A) (A) (A) (A) (A) (A) (A)
                 (A) (A) (A) (A) (A) (A) (A) (A) (A) (A) (A) (A)
                 (A) (A) (A) (A) (A) (A) (A) (A) (A) (A) (A) (A)
                 (A) (A) (A) (A) (A) (A) (A) (A) (A) (A) (A) (A)
                 (A) (A) (A) (A) (A) (A) (A) (A) (A) (A) (A) (A)
                 (A) (A) (A) (A) (A) (A) (A) (A) (A) (A) (A) (A)
                 (A) (A) (A) (A) (A) (A) (A) (A) (A) (A) (A) (A)
                 (A) (A) (A) (A) (A) (A) (A) (A) (A) (A) (A) (A)
                 (A) (A) (A) (A) (A) (A) (A) (A) (A) (A) (A) (A)
                 (A) (A) (A) (A) (A) (A) (A) (A) (A) (A) (A) (A)
                 (A) (A) (A) (A) (A) (A) (A) (A) (A) (A) (A) (A)
                 (A) (A) (A) (A) (A) (A) (A) (A) (A) (A) (A) (A)
                 (A) (A) (A) (A) (A) (A) (A) (A) (A) (A) (A) (A)
                 (A) (A) (A) (A) (A) (A) (A) (A) (A) (A) (A) (A)
                 (A) (A) (A) (A) (A) (A) (A) (A) (A) (A) (A) (A)
                 (A)
 Beta  Orbitals:
       Occupied  (A) (A) (A) (A) (A) (A) (A) (A) (A) (A) (A) (A)
                 (A) (A) (A) (A) (A) (A) (A) (A) (A) (A) (A) (A)
                 (A) (A) (A) (A) (A) (A)
       Virtual   (A) (A) (A) (A) (A) (A) (A) (A) (A) (A) (A) (A)
                 (A) (A) (A) (A) (A) (A) (A) (A) (A) (A) (A) (A)
                 (A) (A) (A) (A) (A) (A) (A) (A) (A) (A) (A) (A)
                 (A) (A) (A) (A) (A) (A) (A) (A) (A) (A) (A) (A)
                 (A) (A) (A) (A) (A) (A) (A) (A) (A) (A) (A) (A)
                 (A) (A) (A) (A) (A) (A) (A) (A) (A) (A) (A) (A)
                 (A) (A) (A) (A) (A) (A) (A) (A) (A) (A) (A) (A)
                 (A) (A) (A) (A) (A) (A) (A) (A) (A) (A) (A) (A)
                 (A) (A) (A) (A) (A) (A) (A) (A) (A) (A) (A) (A)
                 (A) (A) (A) (A) (A) (A) (A) (A) (A) (A) (A) (A)
                 (A) (A) (A) (A) (A) (A) (A) (A) (A) (A) (A) (A)
                 (A) (A) (A) (A) (A) (A) (A) (A) (A) (A) (A) (A)
                 (A) (A) (A) (A) (A) (A) (A) (A) (A) (A) (A) (A)
                 (A) (A) (A) (A) (A) (A) (A) (A) (A) (A) (A) (A)
                 (A) (A) (A) (A) (A) (A) (A) (A) (A) (A) (A) (A)
                 (A) (A) (A) (A) (A) (A) (A) (A) (A) (A) (A) (A)
                 (A) (A)
 The electronic state is 2-A.
 Alpha  occ. eigenvalues --  -19.71226 -19.68499 -19.63161 -10.71159 -10.61528
 Alpha  occ. eigenvalues --  -10.59826 -10.58328 -10.54673  -1.25531  -1.19496
 Alpha  occ. eigenvalues --   -1.16988  -0.89960  -0.88788  -0.77648  -0.74042
 Alpha  occ. eigenvalues --   -0.68322  -0.63942  -0.58616  -0.58261  -0.57077
 Alpha  occ. eigenvalues --   -0.53397  -0.49871  -0.47702  -0.47420  -0.46386
 Alpha  occ. eigenvalues --   -0.44124  -0.42618  -0.40191  -0.39021  -0.37711
 Alpha  occ. eigenvalues --   -0.36702
 Alpha virt. eigenvalues --   -0.02473  -0.00988  -0.00129   0.01380   0.01437
 Alpha virt. eigenvalues --    0.03030   0.04246   0.04660   0.05066   0.05842
 Alpha virt. eigenvalues --    0.07139   0.07556   0.08090   0.09400   0.10045
 Alpha virt. eigenvalues --    0.10525   0.11281   0.11363   0.12945   0.13737
 Alpha virt. eigenvalues --    0.14241   0.14305   0.15268   0.15444   0.16198
 Alpha virt. eigenvalues --    0.16662   0.17142   0.17733   0.19292   0.19431
 Alpha virt. eigenvalues --    0.20640   0.21272   0.22680   0.24207   0.25334
 Alpha virt. eigenvalues --    0.25782   0.26693   0.27001   0.28566   0.29697
 Alpha virt. eigenvalues --    0.30652   0.31468   0.32025   0.32789   0.33867
 Alpha virt. eigenvalues --    0.34729   0.35284   0.36959   0.38510   0.39358
 Alpha virt. eigenvalues --    0.40110   0.44952   0.45388   0.47080   0.49964
 Alpha virt. eigenvalues --    0.50912   0.52337   0.55758   0.57191   0.58864
 Alpha virt. eigenvalues --    0.61159   0.63392   0.63826   0.67639   0.68108
 Alpha virt. eigenvalues --    0.68288   0.69571   0.71243   0.71320   0.72190
 Alpha virt. eigenvalues --    0.75158   0.76491   0.77759   0.81267   0.83014
 Alpha virt. eigenvalues --    0.85804   0.90375   0.96228   0.98126   0.99842
 Alpha virt. eigenvalues --    1.03077   1.04256   1.06863   1.07969   1.11612
 Alpha virt. eigenvalues --    1.13552   1.17561   1.18556   1.19599   1.22193
 Alpha virt. eigenvalues --    1.23963   1.27318   1.28366   1.30601   1.31356
 Alpha virt. eigenvalues --    1.33877   1.34871   1.38529   1.41383   1.43340
 Alpha virt. eigenvalues --    1.45862   1.48224   1.50064   1.57528   1.57767
 Alpha virt. eigenvalues --    1.58921   1.60559   1.61519   1.61998   1.64920
 Alpha virt. eigenvalues --    1.67052   1.69475   1.70636   1.72598   1.73710
 Alpha virt. eigenvalues --    1.76656   1.78307   1.80391   1.85158   1.89239
 Alpha virt. eigenvalues --    1.92328   1.95324   1.98630   2.03261   2.05870
 Alpha virt. eigenvalues --    2.10491   2.13213   2.19550   2.29166   2.31042
 Alpha virt. eigenvalues --    2.34261   2.41002   2.47830   2.50495   2.50951
 Alpha virt. eigenvalues --    2.53889   2.54576   2.60181   2.62432   2.64211
 Alpha virt. eigenvalues --    2.65792   2.68066   2.71569   2.73158   2.79446
 Alpha virt. eigenvalues --    2.80395   2.82229   2.88739   2.93322   2.93681
 Alpha virt. eigenvalues --    2.97447   2.99004   3.00663   3.01547   3.09142
 Alpha virt. eigenvalues --    3.11397   3.12980   3.15188   3.21407   3.25041
 Alpha virt. eigenvalues --    3.31250   3.34443   3.41431   3.43282   3.54364
 Alpha virt. eigenvalues --    3.61326   3.66007   3.75535   3.84289   3.85035
 Alpha virt. eigenvalues --    3.85744   3.86794   4.02711   4.10319   4.13276
 Alpha virt. eigenvalues --    4.30556   5.04950   5.15067   5.16127   5.27270
 Alpha virt. eigenvalues --    5.29783   5.42599   5.56385   5.68762   5.98124
 Alpha virt. eigenvalues --   23.48301  23.90790  23.93573  24.04271  24.96682
 Alpha virt. eigenvalues --   49.91760  49.99180  50.12148
  Beta  occ. eigenvalues --  -19.70051 -19.68502 -19.63144 -10.71148 -10.61529
  Beta  occ. eigenvalues --  -10.59102 -10.58237 -10.54674  -1.25519  -1.16956
  Beta  occ. eigenvalues --   -1.14884  -0.89016  -0.88583  -0.77356  -0.73274
  Beta  occ. eigenvalues --   -0.64443  -0.63274  -0.58570  -0.57115  -0.53588
  Beta  occ. eigenvalues --   -0.52775  -0.49866  -0.47537  -0.46302  -0.44171
  Beta  occ. eigenvalues --   -0.42657  -0.39640  -0.38642  -0.37153  -0.36356
  Beta virt. eigenvalues --   -0.17185  -0.01872  -0.00670   0.00053   0.01451
  Beta virt. eigenvalues --    0.01607   0.03093   0.04436   0.04892   0.05579
  Beta virt. eigenvalues --    0.05891   0.07230   0.07672   0.08218   0.09488
  Beta virt. eigenvalues --    0.10184   0.10595   0.11389   0.11723   0.13014
  Beta virt. eigenvalues --    0.13831   0.14364   0.14441   0.15380   0.15541
  Beta virt. eigenvalues --    0.16349   0.16813   0.17134   0.17891   0.19247
  Beta virt. eigenvalues --    0.19526   0.20773   0.21131   0.22817   0.24255
  Beta virt. eigenvalues --    0.25419   0.25899   0.26877   0.27042   0.28745
  Beta virt. eigenvalues --    0.29694   0.30681   0.31594   0.32601   0.32825
  Beta virt. eigenvalues --    0.34051   0.34860   0.35337   0.36985   0.38940
  Beta virt. eigenvalues --    0.39505   0.40174   0.45095   0.45439   0.47837
  Beta virt. eigenvalues --    0.50005   0.50921   0.52508   0.56320   0.57327
  Beta virt. eigenvalues --    0.59149   0.61273   0.63559   0.64270   0.67690
  Beta virt. eigenvalues --    0.68111   0.68296   0.69606   0.71282   0.71324
  Beta virt. eigenvalues --    0.72477   0.75471   0.76873   0.77804   0.81682
  Beta virt. eigenvalues --    0.84034   0.86215   0.90424   0.96434   0.98844
  Beta virt. eigenvalues --    1.00125   1.03725   1.04829   1.07323   1.09183
  Beta virt. eigenvalues --    1.12325   1.14957   1.17738   1.19001   1.20074
  Beta virt. eigenvalues --    1.22280   1.24004   1.27504   1.28842   1.30834
  Beta virt. eigenvalues --    1.31540   1.34199   1.35252   1.38953   1.41463
  Beta virt. eigenvalues --    1.43689   1.46266   1.48693   1.50080   1.57828
  Beta virt. eigenvalues --    1.58055   1.59716   1.60617   1.61821   1.62286
  Beta virt. eigenvalues --    1.65021   1.67310   1.69529   1.70741   1.72611
  Beta virt. eigenvalues --    1.73853   1.76656   1.78311   1.80616   1.85196
  Beta virt. eigenvalues --    1.89841   1.92425   1.95821   1.98710   2.03340
  Beta virt. eigenvalues --    2.06135   2.11163   2.13348   2.19552   2.29256
  Beta virt. eigenvalues --    2.31492   2.34294   2.41731   2.48353   2.50204
  Beta virt. eigenvalues --    2.50681   2.53838   2.54782   2.60303   2.62495
  Beta virt. eigenvalues --    2.63849   2.65197   2.66994   2.71941   2.73231
  Beta virt. eigenvalues --    2.79553   2.80841   2.83076   2.88479   2.92706
  Beta virt. eigenvalues --    2.94132   2.97716   3.00266   3.01486   3.02538
  Beta virt. eigenvalues --    3.09277   3.12470   3.13814   3.16012   3.23895
  Beta virt. eigenvalues --    3.25208   3.31343   3.34791   3.41647   3.43259
  Beta virt. eigenvalues --    3.55629   3.61899   3.67617   3.76136   3.84292
  Beta virt. eigenvalues --    3.85231   3.86599   3.88561   4.02774   4.10630
  Beta virt. eigenvalues --    4.13277   4.30554   5.07497   5.15060   5.16092
  Beta virt. eigenvalues --    5.27351   5.35080   5.42597   5.58915   5.68773
  Beta virt. eigenvalues --    5.98124  23.48668  23.90799  23.93578  24.04271
  Beta virt. eigenvalues --   24.97327  49.91042  49.99182  50.12145
          Condensed to atoms (all electrons):
               1          2          3          4          5          6
     1  C    5.527397   0.135533   0.939910  -0.086299  -0.031125  -0.012647
     2  H    0.135533   0.314656  -0.039114   0.017162  -0.000546  -0.002648
     3  C    0.939910  -0.039114   5.918354  -1.157064  -0.008334  -0.168424
     4  C   -0.086299   0.017162  -1.157064   7.140888   0.359189   0.123485
     5  O   -0.031125  -0.000546  -0.008334   0.359189   8.008916  -0.092425
     6  O   -0.012647  -0.002648  -0.168424   0.123485  -0.092425   8.200421
     7  C   -0.018622  -0.000365  -0.117967   0.015098  -0.004539   0.195085
     8  C   -0.002568  -0.000440   0.089032  -0.077751   0.015884  -0.117796
     9  H    0.020263  -0.000235   0.008802  -0.017005  -0.001111  -0.005755
    10  H   -0.002310  -0.000507  -0.002068   0.001243   0.001250  -0.084929
    11  H   -0.001783   0.000314   0.017612  -0.018776   0.000819  -0.005632
    12  H    0.004704  -0.002255   0.023530  -0.012330  -0.000902  -0.013809
    13  H   -0.001188   0.000243  -0.005999  -0.000078   0.000315   0.015227
    14  O   -0.001085   0.184170  -0.024491   0.005126   0.000062   0.000421
    15  H    0.028630  -0.043119   0.003339   0.004479  -0.000094   0.000216
               7          8          9         10         11         12
     1  C   -0.018622  -0.002568   0.020263  -0.002310  -0.001783   0.004704
     2  H   -0.000365  -0.000440  -0.000235  -0.000507   0.000314  -0.002255
     3  C   -0.117967   0.089032   0.008802  -0.002068   0.017612   0.023530
     4  C    0.015098  -0.077751  -0.017005   0.001243  -0.018776  -0.012330
     5  O   -0.004539   0.015884  -0.001111   0.001250   0.000819  -0.000902
     6  O    0.195085  -0.117796  -0.005755  -0.084929  -0.005632  -0.013809
     7  C    5.643923  -0.114263   0.359819   0.469019  -0.064194   0.031930
     8  C   -0.114263   5.522425  -0.018875  -0.077059   0.451831   0.333818
     9  H    0.359819  -0.018875   0.553077  -0.043111   0.006361  -0.022122
    10  H    0.469019  -0.077059  -0.043111   0.527993  -0.012216   0.015622
    11  H   -0.064194   0.451831   0.006361  -0.012216   0.523650  -0.049204
    12  H    0.031930   0.333818  -0.022122   0.015622  -0.049204   0.585186
    13  H   -0.042466   0.403457  -0.003866   0.002201  -0.036384  -0.032509
    14  O    0.001066  -0.000861   0.000531   0.000012  -0.000087  -0.000594
    15  H    0.000296  -0.000142   0.000115   0.000027  -0.000037  -0.000060
              13         14         15
     1  C   -0.001188  -0.001085   0.028630
     2  H    0.000243   0.184170  -0.043119
     3  C   -0.005999  -0.024491   0.003339
     4  C   -0.000078   0.005126   0.004479
     5  O    0.000315   0.000062  -0.000094
     6  O    0.015227   0.000421   0.000216
     7  C   -0.042466   0.001066   0.000296
     8  C    0.403457  -0.000861  -0.000142
     9  H   -0.003866   0.000531   0.000115
    10  H    0.002201   0.000012   0.000027
    11  H   -0.036384  -0.000087  -0.000037
    12  H   -0.032509  -0.000594  -0.000060
    13  H    0.545094   0.000078   0.000001
    14  O    0.000078   7.800639   0.284411
    15  H    0.000001   0.284411   0.448267
          Atomic-Atomic Spin Densities.
               1          2          3          4          5          6
     1  C    0.615804   0.011015  -0.017799  -0.022271  -0.001263   0.000304
     2  H    0.011015  -0.031882  -0.003622   0.000639  -0.000203   0.000070
     3  C   -0.017799  -0.003622   0.074526  -0.058506  -0.005110   0.006476
     4  C   -0.022271   0.000639  -0.058506   0.054037   0.002773  -0.005312
     5  O   -0.001263  -0.000203  -0.005110   0.002773   0.005226   0.002636
     6  O    0.000304   0.000070   0.006476  -0.005312   0.002636  -0.005114
     7  C   -0.002403  -0.001352  -0.011363   0.008204   0.000429   0.002821
     8  C    0.000258   0.001206   0.008306  -0.005500  -0.000253  -0.001264
     9  H    0.001163  -0.000469   0.001266  -0.001266   0.000043  -0.000798
    10  H   -0.000272  -0.000068  -0.001607   0.000872   0.000026   0.000100
    11  H    0.000065   0.000048   0.000579  -0.000229  -0.000042   0.000019
    12  H   -0.000355  -0.000416  -0.000645   0.000807   0.000045   0.000064
    13  H   -0.000131  -0.000034  -0.000410   0.000222   0.000005  -0.000002
    14  O   -0.119401  -0.009514   0.002764   0.006191   0.000275   0.000092
    15  H    0.002461   0.000621   0.000091  -0.001664  -0.000047  -0.000041
               7          8          9         10         11         12
     1  C   -0.002403   0.000258   0.001163  -0.000272   0.000065  -0.000355
     2  H   -0.001352   0.001206  -0.000469  -0.000068   0.000048  -0.000416
     3  C   -0.011363   0.008306   0.001266  -0.001607   0.000579  -0.000645
     4  C    0.008204  -0.005500  -0.001266   0.000872  -0.000229   0.000807
     5  O    0.000429  -0.000253   0.000043   0.000026  -0.000042   0.000045
     6  O    0.002821  -0.001264  -0.000798   0.000100   0.000019   0.000064
     7  C   -0.006752   0.002440   0.002026   0.000228  -0.000266  -0.000668
     8  C    0.002440  -0.000974  -0.001161  -0.000199   0.000142   0.000451
     9  H    0.002026  -0.001161  -0.000310   0.000251   0.000011   0.000169
    10  H    0.000228  -0.000199   0.000251   0.000606  -0.000124   0.000128
    11  H   -0.000266   0.000142   0.000011  -0.000124   0.000085  -0.000113
    12  H   -0.000668   0.000451   0.000169   0.000128  -0.000113   0.000252
    13  H    0.000487  -0.000348  -0.000037   0.000061  -0.000020  -0.000005
    14  O    0.000993  -0.000537   0.000065   0.000043  -0.000027   0.000170
    15  H   -0.000145   0.000054   0.000060  -0.000011   0.000010   0.000019
              13         14         15
     1  C   -0.000131  -0.119401   0.002461
     2  H   -0.000034  -0.009514   0.000621
     3  C   -0.000410   0.002764   0.000091
     4  C    0.000222   0.006191  -0.001664
     5  O    0.000005   0.000275  -0.000047
     6  O   -0.000002   0.000092  -0.000041
     7  C    0.000487   0.000993  -0.000145
     8  C   -0.000348  -0.000537   0.000054
     9  H   -0.000037   0.000065   0.000060
    10  H    0.000061   0.000043  -0.000011
    11  H   -0.000020  -0.000027   0.000010
    12  H   -0.000005   0.000170   0.000019
    13  H   -0.000056   0.000027  -0.000006
    14  O    0.000027   0.715462   0.007943
    15  H   -0.000006   0.007943  -0.023775
 Mulliken charges and spin densities:
               1          2
     1  C   -0.498809   0.467174
     2  H    0.437151  -0.033961
     3  C    0.522883  -0.005053
     4  C   -0.297367  -0.021004
     5  O   -0.247362   0.004541
     6  O   -0.030791   0.000050
     7  C   -0.353821  -0.005322
     8  C   -0.406694   0.002620
     9  H    0.163110   0.001015
    10  H    0.204833   0.000032
    11  H    0.187728   0.000138
    12  H    0.138995  -0.000099
    13  H    0.155875  -0.000245
    14  O   -0.249399   0.604546
    15  H    0.273669  -0.014431
 Sum of Mulliken charges =  -0.00000   1.00000
 Mulliken charges and spin densities with hydrogens summed into heavy atoms:
               1          2
     1  C   -0.498809   0.467174
     3  C    0.522883  -0.005053
     4  C   -0.297367  -0.021004
     5  O   -0.247362   0.004541
     6  O   -0.030791   0.000050
     7  C    0.014122  -0.004275
     8  C    0.075903   0.002414
    14  O    0.461421   0.556154
 APT charges:
               1
     1  C   -0.116810
     2  H   -0.111363
     3  C   -0.224407
     4  C    1.672886
     5  O   -0.913704
     6  O   -0.974178
     7  C    0.506269
     8  C   -0.028172
     9  H   -0.015517
    10  H   -0.011776
    11  H    0.013200
    12  H    0.010147
    13  H    0.011121
    14  O   -0.155133
    15  H    0.337438
 Sum of APT charges =   0.00000
 APT charges with hydrogens summed into heavy atoms:
               1
     1  C   -0.116810
     3  C   -0.224407
     4  C    1.672886
     5  O   -0.913704
     6  O   -0.974178
     7  C    0.478976
     8  C    0.006297
    14  O    0.070942
 Electronic spatial extent (au):  <R**2>=           1401.8910
 Charge=             -0.0000 electrons
 Dipole moment (field-independent basis, Debye):
    X=             -0.9558    Y=             -3.3945    Z=              0.3433  Tot=              3.5432
 Quadrupole moment (field-independent basis, Debye-Ang):
   XX=            -43.1592   YY=            -54.2655   ZZ=            -47.2409
   XY=             -9.0805   XZ=             -5.7347   YZ=             -0.3942
 Traceless Quadrupole moment (field-independent basis, Debye-Ang):
   XX=              5.0626   YY=             -6.0436   ZZ=              0.9810
   XY=             -9.0805   XZ=             -5.7347   YZ=             -0.3942
 Octapole moment (field-independent basis, Debye-Ang**2):
  XXX=            -21.1396  YYY=            -18.4095  ZZZ=             -0.2971  XYY=             -2.7121
  XXY=              9.3688  XXZ=             19.7183  XZZ=              0.9493  YZZ=              1.3325
  YYZ=             -4.8652  XYZ=             -0.9555
 Hexadecapole moment (field-independent basis, Debye-Ang**3):
 XXXX=          -1065.9264 YYYY=           -522.5440 ZZZZ=           -109.9385 XXXY=            -87.6337
 XXXZ=            -93.1501 YYYX=             -9.5982 YYYZ=             -4.6019 ZZZX=             -7.2518
 ZZZY=              3.9271 XXYY=           -279.1906 XXZZ=           -203.9853 YYZZ=            -99.3205
 XXYZ=             10.3289 YYXZ=             -4.1013 ZZXY=              1.0013
 N-N= 3.405737917716D+02 E-N=-1.665113029964D+03  KE= 4.187675786307D+02
  Exact polarizability: 119.331  13.564  76.219  -1.826   3.315  50.971
 Approx polarizability: 113.593  19.975  92.835  -0.869   7.174  60.123
                          Isotropic Fermi Contact Couplings
        Atom                 a.u.       MegaHertz       Gauss      10(-4) cm-1
     1  C(13)              0.49036     551.26304     196.70436     183.88156
     2  H(1)              -0.03462    -154.75852     -55.22169     -51.62188
     3  C(13)              0.06798      76.42383      27.26992      25.49224
     4  C(13)              0.00599       6.73717       2.40399       2.24728
     5  O(17)              0.00075      -0.45205      -0.16130      -0.15079
     6  O(17)             -0.00084       0.51099       0.18234       0.17045
     7  C(13)             -0.00052      -0.58688      -0.20941      -0.19576
     8  C(13)             -0.00011      -0.12343      -0.04404      -0.04117
     9  H(1)               0.00019       0.86259       0.30779       0.28773
    10  H(1)               0.00011       0.48199       0.17198       0.16077
    11  H(1)              -0.00002      -0.06796      -0.02425      -0.02267
    12  H(1)              -0.00002      -0.07519      -0.02683      -0.02508
    13  H(1)               0.00000       0.01751       0.00625       0.00584
    14  O(17)              0.07286     -44.16690     -15.75985     -14.73249
    15  H(1)              -0.01031     -46.09438     -16.44762     -15.37543
 --------------------------------------------------------
       Center         ----  Spin Dipole Couplings  ----
                      3XX-RR        3YY-RR        3ZZ-RR
 --------------------------------------------------------
     1   Atom        0.327431     -0.149274     -0.178157
     2   Atom        0.226336     -0.094439     -0.131897
     3   Atom        0.008555      0.098938     -0.107493
     4   Atom        0.007296     -0.002143     -0.005154
     5   Atom        0.069053     -0.012831     -0.056222
     6   Atom        0.002006      0.002709     -0.004714
     7   Atom        0.003317     -0.001629     -0.001688
     8   Atom        0.002017     -0.000760     -0.001257
     9   Atom        0.004018     -0.002410     -0.001608
    10   Atom        0.001547     -0.000839     -0.000708
    11   Atom        0.001345     -0.000678     -0.000667
    12   Atom        0.002799     -0.001487     -0.001311
    13   Atom        0.001273     -0.000276     -0.000997
    14   Atom        2.432468     -1.124141     -1.308327
    15   Atom       -0.026971      0.034360     -0.007389
 --------------------------------------------------------
                        XY            XZ            YZ
 --------------------------------------------------------
     1   Atom        0.169150      0.002283      0.000855
     2   Atom       -0.017351      0.017623     -0.007816
     3   Atom        0.110544     -0.001409     -0.008627
     4   Atom        0.010071      0.001963      0.000818
     5   Atom        0.023644      0.026813      0.019795
     6   Atom       -0.002878      0.003599      0.000113
     7   Atom       -0.000765     -0.000947      0.000055
     8   Atom       -0.001234      0.000932     -0.000268
     9   Atom       -0.001766     -0.002741      0.000825
    10   Atom       -0.000328     -0.000591      0.000053
    11   Atom       -0.000474      0.000541     -0.000128
    12   Atom       -0.001947      0.002249     -0.000960
    13   Atom       -0.001292      0.000255     -0.000163
    14   Atom        0.869985     -0.153441     -0.036489
    15   Atom       -0.017142     -0.026227      0.102103
 --------------------------------------------------------


 ---------------------------------------------------------------------------------
              Anisotropic Spin Dipole Couplings in Principal Axis System
 ---------------------------------------------------------------------------------

       Atom             a.u.   MegaHertz   Gauss  10(-4) cm-1        Axes

              Baa    -0.2032   -27.267    -9.730    -9.095 -0.3037  0.9528 -0.0049
     1 C(13)  Bbb    -0.1782   -23.908    -8.531    -7.975 -0.0056  0.0033  1.0000
              Bcc     0.3814    51.175    18.261    17.070  0.9528  0.3037  0.0044
 
              Baa    -0.1340   -71.502   -25.514   -23.851 -0.0396  0.1769  0.9834
     2 H(1)   Bbb    -0.0942   -50.240   -17.927   -16.758  0.0628  0.9827 -0.1742
              Bcc     0.2282   121.743    43.441    40.609  0.9972 -0.0548  0.0500
 
              Baa    -0.1080   -14.497    -5.173    -4.836 -0.0554  0.0711  0.9959
     3 C(13)  Bbb    -0.0654    -8.771    -3.130    -2.926  0.8287 -0.5531  0.0855
              Bcc     0.1734    23.268     8.303     7.761  0.5569  0.8301 -0.0283
 
              Baa    -0.0086    -1.152    -0.411    -0.384 -0.5420  0.8330  0.1115
     4 C(13)  Bbb    -0.0053    -0.717    -0.256    -0.239 -0.0317 -0.1528  0.9878
              Bcc     0.0139     1.869     0.667     0.624  0.8398  0.5318  0.1092
 
              Baa    -0.0662     4.788     1.709     1.597 -0.1369 -0.2907  0.9470
     5 O(17)  Bbb    -0.0162     1.174     0.419     0.392 -0.3273  0.9156  0.2337
              Bcc     0.0824    -5.963    -2.128    -1.989  0.9349  0.2779  0.2205
 
              Baa    -0.0065     0.468     0.167     0.156 -0.4284 -0.1454  0.8918
     6 O(17)  Bbb     0.0006    -0.046    -0.016    -0.015  0.5490  0.7420  0.3848
              Bcc     0.0058    -0.421    -0.150    -0.141  0.7177 -0.6544  0.2381
 
              Baa    -0.0019    -0.255    -0.091    -0.085  0.2228  0.4482  0.8657
     7 C(13)  Bbb    -0.0017    -0.228    -0.081    -0.076  0.0460  0.8822 -0.4686
              Bcc     0.0036     0.483     0.172     0.161  0.9738 -0.1442 -0.1759
 
              Baa    -0.0015    -0.203    -0.072    -0.068 -0.3067 -0.1698  0.9365
     8 C(13)  Bbb    -0.0012    -0.162    -0.058    -0.054  0.2791  0.9247  0.2590
              Bcc     0.0027     0.365     0.130     0.122  0.9100 -0.3408  0.2362
 
              Baa    -0.0029    -1.562    -0.558    -0.521  0.0366  0.8798 -0.4740
     9 H(1)   Bbb    -0.0027    -1.428    -0.510    -0.476  0.4362  0.4127  0.7996
              Bcc     0.0056     2.991     1.067     0.998  0.8991 -0.2361 -0.3686
 
              Baa    -0.0009    -0.479    -0.171    -0.160  0.2287  0.8499  0.4748
    10 H(1)   Bbb    -0.0008    -0.447    -0.159    -0.149  0.1397 -0.5113  0.8480
              Bcc     0.0017     0.926     0.330     0.309  0.9634 -0.1276 -0.2356
 
              Baa    -0.0008    -0.430    -0.154    -0.144 -0.1562  0.3462  0.9251
    11 H(1)   Bbb    -0.0008    -0.417    -0.149    -0.139  0.2788  0.9139 -0.2950
              Bcc     0.0016     0.847     0.302     0.283  0.9476 -0.2119  0.2393
 
              Baa    -0.0024    -1.266    -0.452    -0.422 -0.1241  0.5911  0.7970
    12 H(1)   Bbb    -0.0022    -1.170    -0.418    -0.390  0.4957  0.7327 -0.4662
              Bcc     0.0046     2.437     0.869     0.813  0.8596 -0.3373  0.3839
 
              Baa    -0.0010    -0.553    -0.197    -0.184  0.1641  0.4651  0.8699
    13 H(1)   Bbb    -0.0010    -0.533    -0.190    -0.178  0.4732  0.7367 -0.4831
              Bcc     0.0020     1.086     0.387     0.362  0.8655 -0.4910  0.0992
 
              Baa    -1.3256    95.921    34.227    31.996 -0.2214  0.9714  0.0853
    14 O(17)  Bbb    -1.3145    95.120    33.941    31.728  0.0580 -0.0742  0.9956
              Bcc     2.6402  -191.041   -68.168   -63.724  0.9735  0.2254 -0.0399
 
              Baa    -0.0922   -49.195   -17.554   -16.410  0.1535 -0.6078  0.7791
    15 H(1)   Bbb    -0.0314   -16.773    -5.985    -5.595  0.9687  0.2482  0.0027
              Bcc     0.1236    65.968    23.539    22.005 -0.1950  0.7543  0.6269
 

 ---------------------------------------------------------------------------------

 Calling FoFJK, ICntrl=    100127 FMM=F ISym2X=0 I1Cent= 0 IOpClX= 1 NMat=1 NMatS=1 NMatT=0.
 Full mass-weighted force constant matrix:
 Low frequencies ----1580.0936  -78.8924   -9.7701   -0.0011   -0.0006    0.0004
 Low frequencies ---   10.1921   30.6252   38.5237
 ******    2 imaginary frequencies (negative Signs) ****** 
 Diagonal vibrational polarizability:
      130.7246733      99.7410451      93.6437101
 Harmonic frequencies (cm**-1), IR intensities (KM/Mole), Raman scattering
 activities (A**4/AMU), depolarization ratios for plane and unpolarized
 incident light, reduced masses (AMU), force constants (mDyne/A),
 and normal coordinates:
                      1                      2                      3
                      A                      A                      A
 Frequencies --  -1580.0935               -73.1648                35.2233
 Red. masses --      1.0374                 2.6341                 6.4712
 Frc consts  --      1.5260                 0.0083                 0.0047
 IR Inten    --    672.1873                18.6381                 3.5285
  Atom  AN      X      Y      Z        X      Y      Z        X      Y      Z
     1   6    -0.01  -0.01   0.01    -0.00  -0.00   0.29    -0.01  -0.25   0.00
     2   1     0.98   0.15  -0.06    -0.01   0.01   0.39    -0.08  -0.08   0.01
     3   6    -0.01  -0.01  -0.00    -0.00  -0.01   0.13    -0.03  -0.20   0.01
     4   6    -0.01   0.00  -0.00     0.00   0.00   0.01    -0.10  -0.09  -0.00
     5   8     0.00   0.00   0.00     0.02   0.02  -0.04    -0.21  -0.09   0.01
     6   8    -0.00  -0.00  -0.00    -0.02  -0.01  -0.05    -0.04   0.03  -0.03
     7   6     0.00   0.00  -0.00    -0.05  -0.01  -0.04     0.11   0.02   0.00
     8   6     0.00  -0.00  -0.00     0.04   0.00  -0.03     0.26   0.06   0.02
     9   1     0.00  -0.00   0.00    -0.09  -0.01   0.03     0.10  -0.09   0.05
    10   1     0.00  -0.00   0.00    -0.09  -0.02  -0.09     0.10   0.10  -0.04
    11   1    -0.00   0.00   0.00     0.07   0.01  -0.09     0.26   0.17  -0.03
    12   1    -0.00   0.00  -0.00     0.08   0.01   0.02     0.27  -0.02   0.06
    13   1     0.00  -0.00   0.00     0.02  -0.00  -0.03     0.36   0.05   0.05
    14   8    -0.04   0.00  -0.00     0.02  -0.03  -0.15    -0.00   0.39  -0.02
    15   1    -0.04   0.03  -0.00    -0.16   0.39  -0.70     0.27   0.38   0.05
                      4                      5                      6
                      A                      A                      A
 Frequencies --     76.9784               108.7722               150.4679
 Red. masses --      3.9855                 3.7234                 2.0275
 Frc consts  --      0.0139                 0.0260                 0.0270
 IR Inten    --      1.0851                 0.1197                54.5707
  Atom  AN      X      Y      Z        X      Y      Z        X      Y      Z
     1   6     0.06  -0.10   0.07    -0.10   0.16  -0.04     0.06  -0.09   0.02
     2   1     0.06  -0.07   0.13    -0.10   0.13  -0.06     0.10  -0.15  -0.18
     3   6     0.03  -0.04   0.01    -0.04   0.06  -0.02    -0.02   0.04   0.11
     4   6    -0.02   0.03  -0.01    -0.01   0.02   0.01    -0.02   0.04   0.02
     5   8    -0.11   0.09  -0.20    -0.00   0.05  -0.11     0.03   0.06  -0.05
     6   8     0.05   0.03   0.22    -0.00  -0.05   0.19    -0.06  -0.02   0.00
     7   6     0.08   0.07   0.00    -0.01  -0.02   0.04    -0.13  -0.02   0.00
     8   6    -0.17  -0.15  -0.13     0.29  -0.15  -0.06     0.01  -0.02  -0.00
     9   1     0.18   0.19  -0.20    -0.13   0.00   0.21    -0.20   0.00   0.11
    10   1     0.19   0.15   0.14    -0.13   0.07  -0.17    -0.21  -0.04  -0.10
    11   1    -0.28  -0.27   0.08     0.40  -0.17  -0.21     0.11  -0.08  -0.13
    12   1    -0.28  -0.26  -0.27     0.41  -0.23   0.14     0.11   0.04   0.13
    13   1    -0.13  -0.11  -0.32     0.27  -0.12  -0.17    -0.10  -0.02  -0.01
    14   8     0.08   0.04   0.05    -0.13  -0.03  -0.01     0.11   0.04  -0.10
    15   1     0.13   0.16  -0.08    -0.21  -0.06   0.02     0.13  -0.52   0.62
                      7                      8                      9
                      A                      A                      A
 Frequencies --    183.5572               228.6136               266.3434
 Red. masses --      2.0098                 1.1976                 5.5937
 Frc consts  --      0.0399                 0.0369                 0.2338
 IR Inten    --     40.8580                 0.3142                13.4386
  Atom  AN      X      Y      Z        X      Y      Z        X      Y      Z
     1   6    -0.07   0.10   0.11     0.01  -0.02  -0.02     0.03  -0.04  -0.32
     2   1    -0.09   0.08  -0.08     0.03  -0.03   0.00    -0.10   0.10  -0.41
     3   6     0.03  -0.07   0.10    -0.03   0.06   0.00     0.07  -0.11   0.46
     4   6     0.03  -0.04   0.00    -0.02   0.02   0.00     0.04  -0.01   0.14
     5   8    -0.01  -0.03  -0.05     0.04   0.02   0.01     0.04   0.06  -0.12
     6   8     0.05   0.02  -0.04    -0.05  -0.02  -0.01     0.00   0.02  -0.06
     7   6     0.12   0.01  -0.02    -0.03  -0.03   0.00    -0.02   0.02  -0.02
     8   6    -0.02   0.02  -0.01     0.02  -0.02   0.00    -0.02   0.03  -0.01
     9   1     0.20  -0.02  -0.13    -0.02  -0.06   0.00    -0.02   0.02  -0.02
    10   1     0.20   0.03   0.09    -0.02   0.01   0.01    -0.02   0.00  -0.02
    11   1    -0.17   0.15   0.16    -0.25   0.40   0.23    -0.02   0.04  -0.02
    12   1    -0.16  -0.11  -0.18    -0.22  -0.47  -0.22    -0.02   0.03  -0.01
    13   1     0.19   0.03  -0.00     0.62   0.00  -0.01    -0.01   0.03   0.00
    14   8    -0.10   0.02  -0.07     0.03   0.00   0.01    -0.12  -0.03   0.05
    15   1    -0.25  -0.50   0.54     0.07   0.05  -0.05     0.10   0.41  -0.47
                     10                     11                     12
                      A                      A                      A
 Frequencies --    359.8329               386.8532               423.2504
 Red. masses --      3.0042                 6.4579                 3.6478
 Frc consts  --      0.2292                 0.5694                 0.3850
 IR Inten    --      0.7731                 6.5490                 1.9729
  Atom  AN      X      Y      Z        X      Y      Z        X      Y      Z
     1   6    -0.01  -0.09  -0.00    -0.14   0.37  -0.08    -0.13   0.10  -0.03
     2   1    -0.02  -0.08  -0.02     0.25  -0.07   0.07     0.10  -0.15   0.07
     3   6    -0.16   0.15   0.05     0.05  -0.02   0.11    -0.11   0.03   0.05
     4   6    -0.08   0.05  -0.00    -0.05  -0.03   0.00    -0.06  -0.10   0.05
     5   8     0.11   0.04   0.01    -0.25  -0.03   0.02     0.05  -0.07  -0.06
     6   8    -0.13  -0.00  -0.08    -0.06   0.03  -0.17    -0.05  -0.13   0.18
     7   6     0.22  -0.03   0.03     0.04  -0.07   0.08     0.07  -0.03  -0.16
     8   6     0.03  -0.09   0.01     0.02  -0.17   0.05    -0.00   0.19  -0.06
     9   1     0.42  -0.23  -0.21     0.09  -0.17   0.04     0.13  -0.02  -0.26
    10   1     0.42   0.14   0.28     0.08  -0.06   0.15     0.15   0.11  -0.07
    11   1     0.10  -0.40   0.05     0.04  -0.36   0.09    -0.02   0.38  -0.12
    12   1     0.07   0.09   0.02     0.02  -0.26   0.08     0.00   0.50  -0.14
    13   1    -0.27  -0.08  -0.09    -0.05  -0.13  -0.17    -0.07   0.10   0.34
    14   8    -0.03   0.00  -0.00     0.31  -0.01   0.01     0.14  -0.00   0.01
    15   1     0.03   0.02  -0.01     0.40   0.08  -0.08     0.25   0.04  -0.03
                     13                     14                     15
                      A                      A                      A
 Frequencies --    568.6506               625.5936               674.0706
 Red. masses --      5.0339                 6.5842                 1.1882
 Frc consts  --      0.9591                 1.5182                 0.3181
 IR Inten    --     18.7964                 9.2928               168.2229
  Atom  AN      X      Y      Z        X      Y      Z        X      Y      Z
     1   6    -0.26  -0.00  -0.02    -0.04  -0.09  -0.00     0.01  -0.02  -0.10
     2   1     0.01  -0.34   0.14     0.05  -0.13  -0.15     0.04   0.12   0.74
     3   6    -0.10  -0.25  -0.04    -0.29   0.37   0.14    -0.01   0.01   0.03
     4   6    -0.06  -0.05  -0.02     0.08  -0.16  -0.09    -0.01  -0.02   0.00
     5   8     0.28  -0.07  -0.05    -0.10  -0.20  -0.04     0.00  -0.02  -0.01
     6   8     0.01   0.13  -0.01     0.30   0.06  -0.04    -0.00   0.00   0.00
     7   6    -0.05   0.23   0.15     0.02   0.08   0.05    -0.00   0.02   0.01
     8   6    -0.01   0.01   0.00    -0.01   0.00   0.00    -0.00   0.00  -0.00
     9   1    -0.10   0.23   0.21    -0.22   0.30   0.33    -0.00   0.01   0.02
    10   1    -0.14   0.11   0.05    -0.23  -0.22  -0.21    -0.01   0.01   0.01
    11   1     0.01  -0.20   0.07    -0.05  -0.09   0.12    -0.00  -0.01   0.01
    12   1    -0.00  -0.26   0.09    -0.07  -0.11  -0.05    -0.00  -0.01   0.00
    13   1     0.01   0.10  -0.39     0.02   0.04  -0.16    -0.00   0.01  -0.03
    14   8     0.07  -0.00  -0.00    -0.00  -0.01  -0.00     0.04   0.02   0.00
    15   1     0.33   0.03   0.01     0.19   0.04  -0.03    -0.64  -0.13   0.05
                     16                     17                     18
                      A                      A                      A
 Frequencies --    752.9869               763.9489               813.9562
 Red. masses --      5.4934                 6.0183                 1.1646
 Frc consts  --      1.8351                 2.0694                 0.4546
 IR Inten    --      5.5939                26.2142                 6.2125
  Atom  AN      X      Y      Z        X      Y      Z        X      Y      Z
     1   6     0.18   0.05   0.05    -0.17  -0.07  -0.01     0.03   0.01   0.00
     2   1    -0.00   0.30  -0.33     0.03  -0.27   0.35    -0.01   0.05  -0.06
     3   6     0.08   0.14  -0.14    -0.13  -0.03  -0.18     0.03  -0.01  -0.00
     4   6    -0.01  -0.25   0.34     0.11   0.01   0.47    -0.03  -0.01  -0.01
     5   8    -0.01  -0.14  -0.16    -0.03   0.19  -0.08     0.01  -0.01  -0.00
     6   8    -0.16  -0.02  -0.06     0.14   0.05  -0.11    -0.05  -0.01   0.01
     7   6    -0.05   0.16   0.10     0.05  -0.14  -0.08     0.07   0.01   0.01
     8   6    -0.01   0.08  -0.03     0.01  -0.06   0.02     0.04   0.01  -0.01
     9   1     0.10   0.01  -0.07    -0.12  -0.04   0.14    -0.20  -0.09   0.45
    10   1     0.07   0.19   0.27    -0.11  -0.18  -0.30    -0.22   0.08  -0.42
    11   1     0.08  -0.09  -0.08    -0.09   0.02   0.13    -0.17  -0.21   0.40
    12   1     0.05  -0.19   0.14    -0.08   0.15  -0.18    -0.21   0.18  -0.40
    13   1     0.03   0.17  -0.40    -0.06  -0.13   0.30    -0.20   0.01  -0.03
    14   8    -0.00  -0.00   0.01     0.00   0.00  -0.01     0.00  -0.00   0.00
    15   1    -0.15   0.01  -0.04     0.11  -0.02   0.05    -0.03   0.00  -0.01
                     19                     20                     21
                      A                      A                      A
 Frequencies --    948.0211              1027.1411              1108.1459
 Red. masses --      2.1423                 1.3504                 3.1843
 Frc consts  --      1.1344                 0.8394                 2.3039
 IR Inten    --     16.4947                57.5034                53.1719
  Atom  AN      X      Y      Z        X      Y      Z        X      Y      Z
     1   6     0.04   0.01   0.01     0.05   0.03  -0.03    -0.06  -0.03   0.00
     2   1    -0.02   0.13  -0.19     0.07  -0.26   0.63    -0.00  -0.00  -0.14
     3   6     0.01   0.01  -0.00     0.05   0.04   0.01    -0.04  -0.01  -0.00
     4   6    -0.08  -0.04   0.00     0.03  -0.02  -0.00     0.14   0.03  -0.01
     5   8     0.04  -0.06  -0.03    -0.01  -0.02  -0.01    -0.04   0.05   0.02
     6   8    -0.01   0.14   0.01    -0.03  -0.01  -0.00    -0.01  -0.17  -0.02
     7   6    -0.01   0.06  -0.11    -0.01   0.05  -0.02    -0.03   0.20  -0.20
     8   6     0.00  -0.18   0.09     0.01  -0.03   0.02     0.03  -0.00   0.21
     9   1    -0.03   0.25  -0.15     0.01   0.05  -0.04     0.03   0.16  -0.31
    10   1    -0.04   0.21  -0.20    -0.00   0.13  -0.03     0.02   0.28  -0.17
    11   1    -0.06   0.17   0.04    -0.02  -0.00   0.05     0.03  -0.41   0.40
    12   1     0.05   0.16   0.08     0.00   0.02   0.00    -0.03  -0.34   0.22
    13   1     0.03  -0.32   0.69    -0.01  -0.05   0.10    -0.05   0.07  -0.17
    14   8     0.02   0.00   0.01    -0.10  -0.01  -0.04     0.03   0.00   0.01
    15   1    -0.17   0.01  -0.04     0.67  -0.02   0.15    -0.17   0.01  -0.04
                     22                     23                     24
                      A                      A                      A
 Frequencies --   1133.4292              1179.4763              1260.4260
 Red. masses --      2.6497                 1.9203                 3.0178
 Frc consts  --      2.0055                 1.5739                 2.8247
 IR Inten    --     56.0124                69.6272               447.8172
  Atom  AN      X      Y      Z        X      Y      Z        X      Y      Z
     1   6    -0.05  -0.02   0.00     0.03   0.01  -0.00    -0.06  -0.03  -0.00
     2   1     0.00  -0.02  -0.09    -0.01   0.01   0.03     0.03  -0.04  -0.03
     3   6    -0.03  -0.01   0.00     0.02  -0.01  -0.00    -0.02   0.00   0.00
     4   6     0.13   0.03  -0.02    -0.11   0.02   0.02     0.29  -0.03  -0.04
     5   8    -0.04   0.03   0.02     0.00   0.03   0.01    -0.02  -0.03  -0.01
     6   8    -0.02  -0.15  -0.07    -0.00  -0.10  -0.03    -0.15   0.11   0.04
     7   6    -0.01   0.16   0.19     0.18   0.08  -0.01     0.10  -0.10  -0.00
     8   6     0.02  -0.09  -0.13    -0.12  -0.01   0.01    -0.12   0.00   0.02
     9   1     0.06   0.21   0.07    -0.10   0.33   0.32    -0.12  -0.08   0.34
    10   1    -0.01   0.29   0.17    -0.14  -0.40  -0.35    -0.02   0.52  -0.33
    11   1    -0.12   0.38  -0.12     0.08   0.13  -0.34     0.12   0.09  -0.38
    12   1     0.04   0.43  -0.23     0.14  -0.13   0.40     0.05  -0.09   0.27
    13   1    -0.02  -0.21   0.47     0.26   0.00   0.01     0.22   0.04  -0.08
    14   8     0.02   0.00   0.01    -0.01  -0.00  -0.00     0.01   0.00   0.00
    15   1    -0.12   0.01  -0.03     0.04  -0.00   0.01    -0.06  -0.00  -0.01
                     25                     26                     27
                      A                      A                      A
 Frequencies --   1348.1768              1405.4209              1432.4425
 Red. masses --      1.2441                 1.2680                 1.3617
 Frc consts  --      1.3323                 1.4756                 1.6462
 IR Inten    --    122.4044                25.1157                12.7024
  Atom  AN      X      Y      Z        X      Y      Z        X      Y      Z
     1   6    -0.01  -0.00  -0.00    -0.01  -0.00   0.00     0.01   0.00   0.00
     2   1     0.01  -0.00  -0.00     0.01  -0.03  -0.01    -0.01   0.10   0.02
     3   6    -0.00  -0.00  -0.00    -0.00   0.00   0.00    -0.00  -0.00  -0.00
     4   6     0.07  -0.01  -0.01     0.05  -0.00  -0.01    -0.04  -0.00   0.00
     5   8    -0.00  -0.00  -0.00    -0.00  -0.01  -0.00     0.00   0.01   0.00
     6   8    -0.08   0.03   0.01    -0.03   0.02   0.02     0.03  -0.02  -0.02
     7   6     0.02  -0.04   0.01     0.00   0.05  -0.03     0.00  -0.10   0.08
     8   6     0.05   0.01   0.01    -0.00   0.04  -0.11    -0.01   0.09  -0.06
     9   1    -0.05   0.77  -0.19    -0.06  -0.25   0.19     0.06   0.44  -0.22
    10   1    -0.00  -0.53   0.11     0.08  -0.41   0.22    -0.10   0.50  -0.23
    11   1     0.02  -0.04   0.09    -0.16  -0.31   0.30    -0.00  -0.36   0.13
    12   1    -0.07   0.06  -0.18     0.20  -0.24   0.27     0.05  -0.33   0.13
    13   1    -0.06   0.02  -0.06     0.05  -0.11   0.50     0.03  -0.01   0.35
    14   8     0.00   0.00   0.00     0.00   0.00   0.00     0.00  -0.00  -0.00
    15   1    -0.01  -0.00  -0.00    -0.02   0.00  -0.00     0.04  -0.00   0.01
                     28                     29                     30
                      A                      A                      A
 Frequencies --   1462.7634              1493.0619              1502.0238
 Red. masses --      1.0809                 1.0401                 1.0470
 Frc consts  --      1.3627                 1.3660                 1.3917
 IR Inten    --    225.2939                 4.6636                 3.7481
  Atom  AN      X      Y      Z        X      Y      Z        X      Y      Z
     1   6    -0.01  -0.03   0.00     0.00  -0.00  -0.00    -0.00  -0.00  -0.00
     2   1    -0.12   0.91   0.13    -0.01   0.03   0.00     0.00   0.00   0.00
     3   6    -0.05  -0.03  -0.00    -0.00  -0.00   0.00    -0.00   0.00   0.00
     4   6     0.02   0.00  -0.00    -0.00   0.00   0.00     0.01  -0.00  -0.00
     5   8     0.00   0.01   0.00     0.00  -0.00  -0.00    -0.00  -0.00  -0.00
     6   8    -0.00  -0.00   0.00     0.01  -0.00  -0.00    -0.00   0.01   0.00
     7   6     0.00   0.01  -0.01    -0.02   0.01  -0.00    -0.00  -0.02   0.02
     8   6     0.00  -0.01   0.00    -0.04   0.00   0.01    -0.01  -0.03  -0.04
     9   1    -0.01  -0.04   0.03    -0.00  -0.02  -0.03     0.14  -0.00  -0.21
    10   1     0.02  -0.04   0.03     0.01  -0.02   0.06    -0.14  -0.01  -0.19
    11   1    -0.01   0.04   0.00     0.16  -0.51  -0.05    -0.35   0.13   0.44
    12   1     0.01   0.01   0.00    -0.07   0.45  -0.18     0.36   0.37   0.39
    13   1    -0.02  -0.00  -0.01     0.68   0.02   0.03     0.14   0.06  -0.31
    14   8     0.02  -0.03  -0.01     0.00  -0.00  -0.00     0.00   0.00   0.00
    15   1     0.34  -0.04   0.07     0.01  -0.00   0.00    -0.00  -0.00  -0.00
                     31                     32                     33
                      A                      A                      A
 Frequencies --   1525.4118              1860.7517              2266.4266
 Red. masses --      1.0999                13.0244                10.6553
 Frc consts  --      1.5079                26.5696                32.2476
 IR Inten    --     20.3691               499.9561                22.5167
  Atom  AN      X      Y      Z        X      Y      Z        X      Y      Z
     1   6     0.01   0.00   0.00    -0.03  -0.02  -0.00    -0.54  -0.31  -0.00
     2   1    -0.00  -0.01  -0.00     0.00   0.03   0.01    -0.03   0.34  -0.03
     3   6     0.00  -0.00  -0.00     0.01  -0.01  -0.00     0.60   0.34   0.01
     4   6    -0.03  -0.00   0.00     0.02   0.79   0.22    -0.09  -0.03  -0.00
     5   8     0.00   0.01   0.00    -0.03  -0.53  -0.15     0.00  -0.01  -0.00
     6   8     0.02  -0.02  -0.01     0.01  -0.04  -0.01    -0.00  -0.00  -0.00
     7   6    -0.00  -0.04  -0.06     0.02  -0.03  -0.01    -0.00  -0.00   0.00
     8   6    -0.00  -0.01  -0.01    -0.00   0.01   0.00    -0.00   0.00  -0.00
     9   1    -0.41   0.31   0.43    -0.03   0.10   0.01    -0.01   0.01  -0.00
    10   1     0.39   0.31   0.43     0.05   0.02  -0.01     0.00   0.00   0.00
    11   1    -0.12   0.04   0.15    -0.00   0.00   0.01    -0.00  -0.00   0.00
    12   1     0.12   0.12   0.13     0.01  -0.01   0.02     0.00   0.00  -0.00
    13   1     0.04   0.02  -0.13    -0.00   0.01  -0.03     0.00   0.00  -0.00
    14   8    -0.00   0.00   0.00     0.00   0.00   0.00     0.03  -0.01  -0.00
    15   1    -0.00   0.00  -0.00    -0.01  -0.00  -0.00     0.07  -0.00   0.01
                     34                     35                     36
                      A                      A                      A
 Frequencies --   3073.3976              3101.6672              3145.8979
 Red. masses --      1.0353                 1.0623                 1.1041
 Frc consts  --      5.7620                 6.0214                 6.4382
 IR Inten    --      7.2307                15.1745                 0.8693
  Atom  AN      X      Y      Z        X      Y      Z        X      Y      Z
     1   6    -0.00   0.00  -0.00    -0.00   0.00   0.00     0.00   0.00  -0.00
     2   1     0.00  -0.00   0.00    -0.00   0.00  -0.00     0.00  -0.00   0.00
     3   6    -0.00   0.00  -0.00     0.00   0.00   0.00    -0.00  -0.00  -0.00
     4   6    -0.00   0.00   0.00    -0.00   0.00   0.00    -0.00   0.00   0.00
     5   8     0.00  -0.00  -0.00     0.00  -0.00  -0.00    -0.00  -0.00  -0.00
     6   8     0.00  -0.00  -0.00     0.00  -0.00  -0.00     0.00  -0.00   0.00
     7   6    -0.00   0.00  -0.00    -0.02  -0.02  -0.06     0.06  -0.00  -0.01
     8   6     0.00  -0.03   0.04     0.00   0.01   0.01    -0.06   0.03   0.02
     9   1     0.02   0.00   0.02     0.71   0.17   0.45    -0.26  -0.07  -0.18
    10   1    -0.01   0.00   0.01    -0.41   0.07   0.27    -0.42   0.08   0.29
    11   1    -0.46  -0.14  -0.29    -0.05  -0.01  -0.03     0.25   0.08   0.17
    12   1     0.47  -0.09  -0.31     0.01   0.00  -0.00     0.53  -0.10  -0.36
    13   1    -0.03   0.58   0.14     0.01  -0.11  -0.03     0.00  -0.31  -0.07
    14   8    -0.00   0.00   0.00     0.00   0.00   0.00    -0.00   0.00  -0.00
    15   1    -0.00  -0.00  -0.00    -0.00   0.00   0.00     0.00  -0.00  -0.00
                     37                     38                     39
                      A                      A                      A
 Frequencies --   3152.2380              3167.8015              3807.3252
 Red. masses --      1.1012                 1.1062                 1.0667
 Frc consts  --      6.4469                 6.5402                 9.1102
 IR Inten    --     13.2051                24.3314               135.2286
  Atom  AN      X      Y      Z        X      Y      Z        X      Y      Z
     1   6     0.00   0.00   0.00    -0.00   0.00   0.00     0.00   0.00   0.00
     2   1     0.00  -0.00  -0.00    -0.00   0.00  -0.00    -0.02  -0.00  -0.01
     3   6     0.00  -0.00   0.00     0.00   0.00  -0.00    -0.00  -0.00  -0.00
     4   6    -0.00   0.00   0.00    -0.00  -0.00  -0.00     0.00   0.00   0.00
     5   8     0.00  -0.00  -0.00     0.00   0.00   0.00    -0.00  -0.00  -0.00
     6   8     0.00   0.00   0.00     0.00   0.00  -0.00    -0.00   0.00   0.00
     7   6     0.02  -0.00  -0.01    -0.07   0.00   0.01     0.00  -0.00   0.00
     8   6    -0.03  -0.07  -0.05    -0.06  -0.00   0.00     0.00  -0.00  -0.00
     9   1    -0.02  -0.01  -0.01     0.31   0.07   0.21    -0.00  -0.00  -0.00
    10   1    -0.24   0.04   0.17     0.51  -0.09  -0.36    -0.00   0.00   0.00
    11   1     0.49   0.13   0.31     0.38   0.11   0.26    -0.00  -0.00  -0.00
    12   1    -0.15   0.01   0.09     0.38  -0.08  -0.27    -0.00  -0.00   0.00
    13   1    -0.04   0.70   0.16    -0.01  -0.01  -0.00    -0.00   0.00   0.00
    14   8    -0.00   0.00   0.00     0.00  -0.00  -0.00     0.01  -0.05  -0.04
    15   1    -0.00  -0.00  -0.00     0.00   0.00   0.00    -0.13   0.77   0.62

 -------------------
 - Thermochemistry -
 -------------------
 Temperature   298.150 Kelvin.  Pressure   1.00000 Atm.
 Atom     1 has atomic number  6 and mass  12.00000
 Atom     2 has atomic number  1 and mass   1.00783
 Atom     3 has atomic number  6 and mass  12.00000
 Atom     4 has atomic number  6 and mass  12.00000
 Atom     5 has atomic number  8 and mass  15.99491
 Atom     6 has atomic number  8 and mass  15.99491
 Atom     7 has atomic number  6 and mass  12.00000
 Atom     8 has atomic number  6 and mass  12.00000
 Atom     9 has atomic number  1 and mass   1.00783
 Atom    10 has atomic number  1 and mass   1.00783
 Atom    11 has atomic number  1 and mass   1.00783
 Atom    12 has atomic number  1 and mass   1.00783
 Atom    13 has atomic number  1 and mass   1.00783
 Atom    14 has atomic number  8 and mass  15.99491
 Atom    15 has atomic number  1 and mass   1.00783
 Molecular mass:   115.03952 amu.
 Principal axes and moments of inertia in atomic units:
                           1         2         3
     Eigenvalues --   686.850041737.059402281.25799
           X            0.99903  -0.04396  -0.00236
           Y            0.04392   0.99894  -0.01382
           Z            0.00296   0.01371   0.99990
 This molecule is an asymmetric top.
 Rotational symmetry number  1.
 Warning -- assumption of classical behavior for rotation
           may cause significant error
 Rotational temperatures (Kelvin)      0.12610     0.04986     0.03797
 Rotational constants (GHZ):           2.62756     1.03896     0.79112
    2 imaginary frequencies ignored.
 Zero-point vibrational energy     280049.1 (Joules/Mol)
                                   66.93333 (Kcal/Mol)
 Warning -- explicit consideration of  11 degrees of freedom as
           vibrations may cause significant error
 Vibrational temperatures:     50.68   110.75   156.50   216.49   264.10
          (Kelvin)            328.92   383.21   517.72   556.60   608.96
                              818.16   900.09   969.84  1083.38  1099.15
                             1171.10  1363.99  1477.83  1594.37  1630.75
                             1697.00  1813.47  1939.73  2022.09  2060.97
                             2104.59  2148.18  2161.08  2194.73  2677.21
                             3260.88  4421.93  4462.61  4526.25  4535.37
                             4557.76  5477.89
 
 Zero-point correction=                           0.106665 (Hartree/Particle)
 Thermal correction to Energy=                    0.115937
 Thermal correction to Enthalpy=                  0.116881
 Thermal correction to Gibbs Free Energy=         0.070514
 Sum of electronic and zero-point Energies=           -419.3178815
 Sum of electronic and thermal Energies=              -420.052844
 Sum of electronic and thermal Enthalpies=            -420.051900
 Sum of electronic and thermal Free Energies=         -420.098267
 
                     E (Thermal)             CV                S
                      KCal/Mol        Cal/Mol-Kelvin    Cal/Mol-Kelvin
 Total                   72.752             31.002             97.588
 Electronic               0.000              0.000              1.377
 Translational            0.889              2.981             40.136
 Rotational               0.889              2.981             29.388
 Vibrational             70.974             25.040             26.687
 Vibration     1          0.594              1.982              5.511
 Vibration     2          0.599              1.965              3.966
 Vibration     3          0.606              1.942              3.291
 Vibration     4          0.618              1.902              2.666
 Vibration     5          0.631              1.862              2.292
 Vibration     6          0.651              1.797              1.890
 Vibration     7          0.672              1.735              1.620
 Vibration     8          0.734              1.555              1.123
 Vibration     9          0.755              1.498              1.012
 Vibration    10          0.785              1.420              0.881
 Vibration    11          0.925              1.099              0.507
                       Q            Log10(Q)             Ln(Q)
 Total Bot       0.367967D-32        -32.434192        -74.682486
 Total V=0       0.424896D+17         16.628283         38.288037
 Vib (Bot)       0.642366D-46        -46.192217       -106.361511
 Vib (Bot)    1  0.587609D+01          0.769088          1.770891
 Vib (Bot)    2  0.267657D+01          0.427578          0.984535
 Vib (Bot)    3  0.188343D+01          0.274949          0.633094
 Vib (Bot)    4  0.134741D+01          0.129498          0.298181
 Vib (Bot)    5  0.109286D+01          0.038563          0.088796
 Vib (Bot)    6  0.862054D+00         -0.064466         -0.148437
 Vib (Bot)    7  0.726954D+00         -0.138493         -0.318892
 Vib (Bot)    8  0.509433D+00         -0.292913         -0.674457
 Vib (Bot)    9  0.465122D+00         -0.332433         -0.765455
 Vib (Bot)   10  0.413826D+00         -0.383182         -0.882310
 Vib (Bot)   11  0.271010D+00         -0.567014         -1.305598
 Vib (V=0)       0.741750D+03          2.870258          6.609012
 Vib (V=0)    1  0.639732D+01          0.805998          1.855879
 Vib (V=0)    2  0.322287D+01          0.508242          1.170271
 Vib (V=0)    3  0.244867D+01          0.388930          0.895544
 Vib (V=0)    4  0.193719D+01          0.287171          0.661236
 Vib (V=0)    5  0.170181D+01          0.230910          0.531690
 Vib (V=0)    6  0.149656D+01          0.175095          0.403171
 Vib (V=0)    7  0.138231D+01          0.140604          0.323753
 Vib (V=0)    8  0.121381D+01          0.084150          0.193763
 Vib (V=0)    9  0.118289D+01          0.072944          0.167961
 Vib (V=0)   10  0.114904D+01          0.060335          0.138926
 Vib (V=0)   11  0.106872D+01          0.028865          0.066465
 Electronic      0.200000D+01          0.301030          0.693147
 Translational   0.484981D+08          7.685724         17.697035
 Rotational      0.590570D+06          5.771271         13.288843
 ***** Axes restored to original set *****
 -------------------------------------------------------------------
 Center     Atomic                   Forces (Hartrees/Bohr)
 Number     Number              X              Y              Z
 -------------------------------------------------------------------
      1        6          -0.003756207   -0.001123324    0.001429344
      2        1           0.015049271    0.003471495   -0.001727391
      3        6          -0.002098417   -0.003189485    0.000048075
      4        6          -0.002142329   -0.000262437   -0.000276740
      5        8           0.000184743    0.000002054    0.000050081
      6        8          -0.000269038   -0.000116071   -0.000038380
      7        6           0.000097080   -0.000071610   -0.000087275
      8        6          -0.000016418    0.000021270    0.000051459
      9        1           0.000059326    0.000107796    0.000044031
     10        1          -0.000109732    0.000063880    0.000062826
     11        1          -0.000043730   -0.000031430   -0.000056086
     12        1          -0.000011315   -0.000035278    0.000014990
     13        1           0.000036787    0.000051035    0.000018755
     14        8          -0.006250156    0.000467209    0.000666131
     15        1          -0.000729864    0.000644897   -0.000199819
 -------------------------------------------------------------------
 Cartesian Forces:  Max     0.015049271 RMS     0.002663151

 GradGradGradGradGradGradGradGradGradGradGradGradGradGradGradGradGradGrad
 Berny optimization.
 Search for a local minimum.
 Step number   1 out of a maximum of    2
 All quantities printed in internal units (Hartrees-Bohrs-Radians)
 Second derivative matrix not updated -- analytic derivatives used.
 ITU=  0
     Eigenvalues ---   -0.11929  -0.00065   0.00031   0.00091   0.00221
     Eigenvalues ---    0.00242   0.00391   0.00495   0.01874   0.02206
     Eigenvalues ---    0.02864   0.03332   0.04552   0.05701   0.06141
     Eigenvalues ---    0.07059   0.07660   0.08584   0.09483   0.10326
     Eigenvalues ---    0.11399   0.13530   0.14797   0.16894   0.21553
     Eigenvalues ---    0.23025   0.27241   0.30610   0.38428   0.52979
     Eigenvalues ---    0.67961   0.77949   0.78686   0.85286   0.86466
     Eigenvalues ---    0.92537   0.95162   1.76891   2.31750
 Eigenvalue     1 is  -1.19D-01 should be greater than     0.000000 Eigenvector:
                          X2        X14       Y2        Y3        X1
   1                    0.91117  -0.29559   0.16788  -0.10003  -0.09536
                          Z2        Y15       X15       Y1        X3
   1                   -0.07876   0.07073  -0.06910  -0.05067  -0.04884
 Eigenvalue     2 is  -6.52D-04 should be greater than     0.000000 Eigenvector:
                          Z15       Z2        Z1        Y15       Z14
   1                    0.63767  -0.42021  -0.37513  -0.24054   0.20819
                          Z3        X15       Z10       Z11       X10
   1                   -0.20213   0.19418   0.11396   0.11356   0.10877
 Angle between quadratic step and forces=  37.14 degrees.
 Linear search not attempted -- first point.
 B after Tr=    -0.006700   -0.003348    0.002343
         Rot=    0.999999    0.000523   -0.000851   -0.000421 Ang=   0.12 deg.
 Variable       Old X    -DE/DX   Delta X   Delta X   Delta X     New X
                                 (Linear)    (Quad)   (Total)
    X1       -3.12425  -0.00376   0.00000  -0.02329  -0.02968  -3.15393
    Y1       -0.59269  -0.00112   0.00000   0.01760   0.01149  -0.58119
    Z1       -0.08357   0.00143   0.00000  -0.02586  -0.01756  -0.10113
    X2       -5.34426   0.01505   0.00000   0.12691   0.12148  -5.22278
    Y2       -1.63036   0.00347   0.00000   0.04246   0.03468  -1.59568
    Z2        0.01542  -0.00173   0.00000  -0.05798  -0.04510  -0.02968
    X3       -1.17467  -0.00210   0.00000  -0.00282  -0.01015  -1.18482
    Y3        0.60173  -0.00319   0.00000  -0.01334  -0.01776   0.58397
    Z3       -0.06623   0.00005   0.00000  -0.01505  -0.01131  -0.07755
    X4        1.23404  -0.00214   0.00000   0.00285  -0.00546   1.22859
    Y4        1.98239  -0.00026   0.00000   0.00116  -0.00111   1.98127
    Z4        0.04209  -0.00028   0.00000  -0.00277  -0.00461   0.03749
    X5        1.29906   0.00018   0.00000   0.01493   0.00585   1.30491
    Y5        4.15351   0.00000   0.00000   0.00033  -0.00123   4.15227
    Z5        0.65767   0.00005   0.00000   0.00040  -0.00384   0.65383
    X6        3.31823  -0.00027   0.00000   0.01285   0.00453   3.32277
    Y6        0.71913  -0.00012   0.00000   0.00282   0.00165   0.72077
    Z6       -0.60047  -0.00004   0.00000   0.00928   0.00520  -0.59527
    X7        3.23864   0.00010   0.00000   0.01334   0.00630   3.24494
    Y7       -1.94066  -0.00007   0.00000   0.00542   0.00360  -1.93706
    Z7       -1.16270  -0.00009   0.00000   0.00341   0.00224  -1.16046
    X8        3.34006  -0.00002   0.00000  -0.00784  -0.00949   3.33057
    Y8       -3.49877   0.00002   0.00000  -0.00121  -0.00046  -3.49922
    Z8        1.23838   0.00005   0.00000   0.00027   0.00060   1.23898
    X9        1.56099   0.00006   0.00000   0.01799   0.00936   1.57035
    Y9       -2.36554   0.00011   0.00000   0.01341   0.00899  -2.35655
    Z9       -2.28486   0.00004   0.00000  -0.00796  -0.00584  -2.29071
   X10        4.90448  -0.00011   0.00000   0.01782   0.00906   4.91354
   Y10       -2.25130   0.00006   0.00000   0.00195   0.00032  -2.25098
   Z10       -2.32983   0.00006   0.00000   0.01268   0.00900  -2.32083
   X11        5.01505  -0.00004   0.00000  -0.01736  -0.01753   4.99752
   Y11       -3.01019  -0.00003   0.00000  -0.00705  -0.00374  -3.01393
   Z11        2.33605  -0.00006   0.00000   0.01531   0.01230   2.34835
   X12        1.66547  -0.00001   0.00000  -0.01817  -0.01813   1.64733
   Y12       -3.17875  -0.00004   0.00000  -0.00401  -0.00347  -3.18222
   Z12        2.39828   0.00001   0.00000  -0.01222  -0.00936   2.38892
   X13        3.42313   0.00004   0.00000  -0.00853  -0.00931   3.41383
   Y13       -5.50529   0.00005   0.00000  -0.00021   0.00012  -5.50518
   Z13        0.76530   0.00002   0.00000  -0.00444  -0.00215   0.76314
   X14       -7.47590  -0.00625   0.00000  -0.05908  -0.06493  -7.54083
   Y14       -1.17092   0.00047   0.00000  -0.03530  -0.04508  -1.21600
   Z14       -0.15234   0.00067   0.00000   0.04722   0.06365  -0.08869
   X15       -7.69347  -0.00073   0.00000   0.01333   0.00809  -7.68538
   Y15        0.24846   0.00064   0.00000   0.02079   0.01201   0.26047
   Z15        0.99024  -0.00020   0.00000  -0.00834   0.00679   0.99703
         Item               Value     Threshold  Converged?
 Maximum Force            0.015049     0.000450     NO 
 RMS     Force            0.002663     0.000300     NO 
 Maximum Displacement     0.121483     0.001800     NO 
 RMS     Displacement     0.026699     0.001200     NO 
 Predicted change in Energy=-3.833852D-03
 GradGradGradGradGradGradGradGradGradGradGradGradGradGradGradGradGradGrad


 ----------------------------------------------------------------------

 Electric dipole moment (input orientation):
 (Debye = 10**-18 statcoulomb cm , SI units = C m)
                  (au)            (Debye)         (10**-30 SI)
   Tot        0.139400D+01      0.354321D+01      0.118189D+02
   x         -0.378222D+00     -0.961344D+00     -0.320670D+01
   y         -0.133494D+01     -0.339307D+01     -0.113181D+02
   z          0.134689D+00      0.342346D+00      0.114194D+01

 Dipole polarizability, Alpha (input orientation).
 (esu units = cm**3 , SI units = C**2 m**2 J**-1)
 Alpha(0;0):
               (au)            (10**-24 esu)      (10**-40 SI)
   iso        0.821737D+02      0.121769D+02      0.135486D+02
   aniso      0.646485D+02      0.957992D+01      0.106591D+02
   xx         0.119375D+03      0.176895D+02      0.196822D+02
   yx         0.134944D+02      0.199966D+01      0.222493D+01
   yy         0.761744D+02      0.112879D+02      0.125595D+02
   zx        -0.180320D+01     -0.267206D+00     -0.297307D+00
   zy         0.332624D+01      0.492898D+00      0.548423D+00
   zz         0.509720D+02      0.755328D+01      0.840415D+01

 ----------------------------------------------------------------------

 Dipole orientation:
     6         -2.79677379          0.56314986          1.40717127
     1         -4.59504361          1.01401720          3.01277648
     6         -1.25635619          0.31342321         -0.26392224
     6          0.69293511          0.07254060         -2.22914187
     8          0.40619914          1.00215001         -4.26642750
     8          2.76218228         -1.24346232         -1.64697710
     6          3.16557326         -2.19854607          0.86737891
     6          4.28081633         -0.17837788          2.56393762
     1          1.39674500         -2.94525190          1.62101537
     1          4.47651963         -3.76178638          0.60010875
     1          6.02542154          0.55592833          1.74766450
     1          2.95751441          1.38153809          2.82390455
     1          4.70535959         -0.97966791          4.41719343
     8         -6.73795931          1.43365237          3.13495100
     1         -6.96720797          2.81178900          1.94514345

 Electric dipole moment (dipole orientation):
 (Debye = 10**-18 statcoulomb cm , SI units = C m)
                  (au)            (Debye)         (10**-30 SI)
   Tot        0.139400D+01      0.354321D+01      0.118189D+02
   x          0.000000D+00      0.000000D+00      0.000000D+00
   y          0.000000D+00      0.000000D+00      0.000000D+00
   z          0.139400D+01      0.354321D+01      0.118189D+02

 Dipole polarizability, Alpha (dipole orientation).
 (esu units = cm**3 , SI units = C**2 m**2 J**-1)
 Alpha(0;0):
               (au)            (10**-24 esu)      (10**-40 SI)
   iso        0.821737D+02      0.121769D+02      0.135486D+02
   aniso      0.646485D+02      0.957992D+01      0.106591D+02
   xx         0.104609D+03      0.155014D+02      0.172476D+02
   yx        -0.153796D+02     -0.227902D+01     -0.253575D+01
   yy         0.563020D+02      0.834310D+01      0.928295D+01
   zx        -0.237528D+02     -0.351980D+01     -0.391631D+01
   zy         0.419550D+00      0.621710D-01      0.691745D-01
   zz         0.856107D+02      0.126862D+02      0.141153D+02

 ----------------------------------------------------------------------
 1\1\GINC-AJ\Freq\UM062X\6-311++G(d,p)\C5H7O3(2)\AAYUSH\29-Mar-2025\0\\
 # freq 6-311++g(d,p) m062x\\Title Card Required\\0,2\C,-1.653283,-0.31
 3636,-0.044225\H,-2.828063,-0.86275,0.008158\C,-0.621609,0.318423,-0.0
 35049\C,0.653028,1.049034,0.022275\O,0.687433,2.197941,0.348025\O,1.75
 5934,0.380545,-0.317754\C,1.713814,-1.026953,-0.615272\C,1.767486,-1.8
 51467,0.655324\H,0.826041,-1.251792,-1.209098\H,2.595339,-1.191336,-1.
 232895\H,2.653849,-1.592924,1.236186\H,0.881327,-1.682122,1.269115\H,1
 .811444,-2.913275,0.404977\O,-3.956077,-0.619624,-0.080616\H,-4.071207
 ,0.131478,0.524012\\Version=ES64L-G16RevA.03\State=2-A\HF=-420.1687813
 \S2=0.761149\S2-1=0.\S2A=0.750085\RMSD=4.854e-09\RMSF=2.663e-03\ZeroPo
 int=0.1066651\Thermal=0.1159372\Dipole=-0.378222,-1.3349362,0.1346893\
 DipoleDeriv=0.1157364,-0.0325307,0.0027207,-0.0685662,-0.2920772,-0.01
 03289,0.0313123,-0.0053503,-0.1740898,-0.8176644,-0.2044635,-0.0273593
 ,0.1358936,0.2640684,-0.0181145,-0.107731,-0.0256983,0.2195064,-0.5980
 293,-0.0612757,0.0382791,0.0942928,-0.015365,0.0085836,0.0147636,-0.00
 20228,-0.059828,2.5205819,-0.3278731,-0.2119072,-0.100747,1.9598899,0.
 3581312,-0.2114161,0.4952971,0.5381858,-0.8793621,-0.1299665,-0.003881
 2,-0.166674,-1.4405467,-0.2221166,-0.0088956,-0.2960236,-0.4212037,-1.
 2602326,0.6889502,0.2024531,0.541042,-1.2279158,-0.138141,0.2520017,-0
 .2828639,-0.4343861,0.2951414,-0.0597135,0.0103804,-0.3282846,0.867227
 6,0.008438,-0.0405567,0.0334047,0.3564389,0.0441442,0.0027561,0.002488
 9,0.0689109,-0.0498544,0.0296845,0.0178574,0.0871098,-0.0788055,-0.016
 0128,-0.0400179,-0.0977881,0.0301577,-0.0327417,0.0163897,-0.0827377,0
 .0003112,0.0022029,-0.0542418,0.0402529,0.0974173,0.025733,0.0118904,0
 .0151139,0.0555758,-0.0106786,0.0070227,-0.0378981,-0.0195324,-0.07975
 06,-0.0575073,0.0644438,-0.0189723,-0.0543097,0.0139796,0.0130538,-0.0
 349606,0.0154742,0.0805791,0.0177307,0.0588962,-0.0193,0.068029,0.0039
 375,0.006506,0.0808958,0.0032684,-0.0031655,0.0377538,-0.1003219,-0.02
 4622,-0.008771,-0.0420826,0.0527902,0.16779,0.1416096,0.0217111,-0.015
 8235,-0.3011251,0.0758264,0.2575878,0.1370057,-0.3320651,0.474112,-0.0
 16938,-0.0321776,-0.2139121,0.2335315,-0.0605721,-0.1827098,-0.1063254
 ,0.3046716\Polar=119.3747767,13.4944075,76.1744329,-1.8031951,3.326238
 4,50.9720348\Quadrupole=3.7441266,-4.471527,0.7274005,-6.7633461,-4.26
 4872,-0.2888452\PG=C01 [X(C5H7O3)]\NImag=2\\0.88292956,0.47250677,0.30
 849004,0.00398482,0.00230676,0.03375138,0.01782698,0.01428879,-0.00844
 295,-0.08817137,-0.04105034,-0.04420009,0.00100823,-0.02258736,0.06783
 218,0.00871749,0.00212802,-0.01920831,0.00597146,0.00517954,0.02344156
 ,-0.78498294,-0.44359429,-0.00231625,0.01143659,0.00362159,-0.00153114
 ,1.04674833,-0.44275187,-0.27859450,-0.00013188,0.01677398,0.00451467,
 -0.00101606,0.53292697,0.40479753,-0.00682583,-0.00251589,-0.02103822,
 0.00138263,-0.00058686,0.00293026,0.00418791,0.01895745,0.05615814,0.0
 1197309,0.00637382,-0.00123003,0.01272125,-0.00420259,0.00075776,-0.20
 919193,-0.07553035,-0.00437001,0.54006778,-0.00787559,-0.00237185,-0.0
 0146644,-0.00111598,0.00136062,0.00027744,-0.04295172,-0.08083003,0.00
 377241,0.02302743,0.97480026,-0.00024096,-0.00121974,0.00393920,0.0012
 9898,0.00024175,0.00231779,0.00020330,0.00434985,-0.07020541,-0.036371
 59,0.21769010,0.26736433,-0.00550287,-0.00429510,0.00004117,-0.0043631
 1,0.00141201,-0.00026491,0.00170167,-0.03800032,-0.00852516,-0.0945116
 8,-0.05095697,-0.01223514,0.10097226,-0.00080042,0.00135308,0.00085019
 ,-0.00395979,0.00111731,-0.00028516,-0.03844245,-0.05397875,-0.0176734
 5,-0.03639543,-0.73359473,-0.18366217,0.02369975,0.85496634,-0.0003505
 1,0.00037619,0.00017898,-0.00144703,0.00024627,-0.00031798,-0.00707142
 ,-0.01656574,0.01866713,-0.00831406,-0.18169021,-0.12766329,-0.0019384
 3,0.23350099,0.09928732,-0.00071410,-0.00395852,-0.00035373,-0.0028110
 6,0.00057899,-0.00060759,-0.05387684,0.00926877,0.01184903,-0.25930064
 ,0.04778377,0.04103209,0.00332391,0.05086447,0.01639571,0.38951447,0.0
 0083579,0.00111615,-0.00013462,0.00195974,-0.00086677,0.00020301,-0.00
 584414,0.00818167,-0.00355753,0.07387484,-0.13400004,-0.03011043,0.068
 86982,-0.07348438,-0.03555442,-0.10705041,0.48452988,-0.00002514,0.000
 66069,-0.00010484,0.00051635,-0.00019397,-0.00031062,0.00731935,-0.003
 47411,0.01512830,0.04951598,-0.02830947,-0.06331246,0.02050531,-0.0323
 4675,0.00435788,-0.07256642,0.11356422,0.10326477,-0.00001324,0.001000
 75,0.00010173,0.00016778,-0.00009438,0.00012514,-0.00486536,0.00291600
 ,0.00224799,0.00400250,0.03200862,0.00730201,-0.00390392,0.00339181,0.
 00177552,-0.08941682,-0.02949774,-0.00447471,0.65398336,-0.00071327,-0
 .00321507,-0.00050939,-0.00116439,0.00051834,-0.00016024,-0.00446106,0
 .00103038,0.00149104,0.03281515,-0.03150364,-0.01244210,-0.00572177,0.
 01245019,0.00337677,-0.01296628,-0.19166442,-0.03186924,-0.00144596,0.
 42999456,0.00087446,-0.00110905,-0.00098280,0.00011467,0.00001443,0.00
 019096,0.00004119,-0.00016756,0.00073911,0.00723221,-0.01306081,-0.015
 54991,0.00108422,0.00097551,0.00665528,-0.00152516,-0.02873632,-0.0650
 4833,-0.01000380,0.01598180,0.55557691,0.00011046,0.00002679,0.0001811
 7,0.00003244,-0.00001398,-0.00008557,-0.00019560,0.00034222,0.00023219
 ,0.00029558,0.00067144,-0.00170843,-0.00003706,0.00005187,0.00028964,0
 .00291996,0.00104806,-0.00019278,-0.08683146,0.00221290,-0.00376348,0.
 58624126,0.00010332,0.00034542,0.00020892,0.00024612,-0.00009794,0.000
 01240,0.00112215,-0.00038349,-0.00008763,-0.00744769,0.00198021,0.0053
 4665,0.00154398,-0.00219439,-0.00239617,0.00610098,-0.04468811,0.02721
 348,0.00231348,-0.10080296,0.05065820,0.00377298,0.55715490,0.00028987
 ,0.00070030,-0.00024445,0.00008399,-0.00000763,0.00005505,-0.00066464,
 0.00028925,-0.00061600,-0.00452713,0.00059854,0.00296663,0.00086360,-0
 .00159923,-0.00134918,0.00411344,-0.00680098,0.01151089,-0.00412614,0.
 06261306,-0.19006183,-0.00366678,0.04570536,0.52492682,-0.00158112,0.0
 0057024,0.00072724,-0.00015183,-0.00003027,-0.00001187,-0.00124053,0.0
 0210533,0.00084888,0.00093160,0.00136514,0.00077050,-0.00032451,-0.000
 10113,0.00008824,0.00319197,-0.00324283,0.00173550,-0.23420693,-0.0433
 0204,-0.11971088,0.00178500,0.00087345,0.00094079,0.24902978,0.0003058
 0,0.00014396,0.00004480,0.00004206,0.00005112,0.00000159,0.00189405,-0
 .00055321,-0.00047954,-0.00909449,0.00384986,0.00074590,0.00190710,-0.
 00179606,-0.00015757,-0.02576028,-0.02656548,-0.02346865,-0.03278181,-
 0.05828263,-0.02431996,0.01632719,0.00594906,0.01056728,0.04505229,0.0
 7568212,-0.00018399,0.00031767,0.00017318,-0.00022025,0.00004676,-0.00
 006276,0.00101343,-0.00049852,-0.00038895,-0.00408372,0.00049174,0.000
 93255,0.00091642,-0.00038413,-0.00015292,-0.00251952,-0.00729786,-0.00
 334250,-0.11495431,-0.02670715,-0.12854175,-0.02366870,-0.00405848,-0.
 01435872,0.12833593,0.03110001,0.13610804,-0.00011232,0.00028768,0.000
 17646,-0.00022108,0.00007803,-0.00004390,-0.00009807,0.00004054,0.0001
 7849,0.00056644,-0.00069655,-0.00028495,0.00018011,-0.00022661,0.00009
 535,0.00317468,0.00034424,-0.00228779,-0.23934186,0.03355055,0.1266916
 0,0.00384990,-0.00122883,-0.00281447,-0.01916695,0.00335722,0.01465855
 ,0.24910322,0.00024008,0.00043425,0.00003264,0.00018202,-0.00005266,0.
 00001800,0.00027992,0.00007335,0.00020355,-0.00529523,-0.00222784,-0.0
 0269178,0.00196405,-0.00291472,-0.00029992,0.03523644,-0.02456610,-0.0
 2285176,0.02140292,-0.04743603,-0.01604396,-0.01607246,0.00402639,0.01
 081317,-0.00414853,0.00267542,0.00445146,-0.03512852,0.07061835,-0.000
 21123,0.00019636,0.00018659,-0.00010152,0.00002653,-0.00004785,-0.0001
 1873,0.00000426,0.00003884,-0.00268351,0.00095706,-0.00000538,0.000495
 28,-0.00085749,-0.00013125,0.00720226,-0.00722221,-0.00286355,0.123144
 65,-0.02116033,-0.13676506,0.02352597,-0.00226956,-0.01627463,-0.01409
 559,0.00362335,0.01177755,-0.13604518,0.02399333,0.14611068,0.00012306
 ,0.00029485,-0.00008624,-0.00003034,-0.00001129,0.00000478,-0.00012542
 ,0.00006339,-0.00016508,-0.00084194,-0.00030497,-0.00019373,0.00022929
 ,0.00021483,0.00014156,0.00032272,0.00052241,0.00068101,0.00032162,0.0
 0015077,0.00007369,-0.23143223,-0.05403932,-0.11714603,0.00122145,-0.0
 0047299,0.00024701,0.00070366,0.00055513,-0.00012939,0.24647327,-0.000
 02169,-0.00012617,-0.00001680,-0.00002155,-0.00001754,-0.00000422,-0.0
 0008902,0.00001515,0.00003705,0.00123212,-0.00039641,-0.00023872,-0.00
 022942,0.00018965,0.00008687,-0.00060332,0.00259639,-0.00106616,0.0170
 5508,0.00299399,0.01195370,-0.05508826,-0.06305869,-0.03654577,0.00001
 348,-0.00185864,0.00345748,-0.00027548,0.00044566,-0.00098655,0.059280
 12,0.06453751,-0.00004300,-0.00011417,0.00014542,-0.00002483,0.0000217
 7,-0.00003783,0.00029225,-0.00004217,0.00004235,-0.00005158,0.00015819
 ,0.00003600,-0.00008061,0.00007021,-0.00002817,0.00136429,-0.00122457,
 0.00240392,-0.02570967,-0.00818428,-0.01810367,-0.11544169,-0.03414521
 ,-0.12230817,0.00092786,0.00382086,-0.00384126,0.00020249,-0.00060435,
 0.00085633,0.12825398,0.03567535,0.13417679,-0.00037227,0.00031994,-0.
 00028290,0.00000511,-0.00000041,0.00003887,-0.00085301,0.00069467,-0.0
 0067576,0.00027062,-0.00020428,0.00068852,-0.00014232,-0.00024126,-0.0
 0021349,0.00030561,-0.00078356,-0.00000359,0.00255443,-0.00081133,-0.0
 0156577,-0.23037363,0.03560961,0.12412998,0.00049651,-0.00060218,0.000
 22441,0.00119997,0.00079746,-0.00094614,-0.01923901,0.00506653,0.01483
 988,0.24631798,0.00003892,-0.00033986,0.00000196,-0.00022479,0.0001362
 5,-0.00004142,0.00076882,-0.00035490,0.00055239,0.00009900,-0.00046489
 ,0.00032530,0.00002173,-0.00000530,-0.00007865,-0.00033893,0.00234247,
 -0.00142777,-0.01688127,0.00154023,0.01203853,0.03583978,-0.05452739,-
 0.02586674,0.00032621,0.00032197,-0.00110872,0.00041328,-0.00152193,0.
 00358155,-0.00685536,0.00037673,0.00556427,-0.03979359,0.05593391,-0.0
 0014093,-0.00037347,0.00016368,0.00013716,-0.00002018,0.00001324,-0.00
 014638,0.00002034,-0.00001992,0.00185986,0.00083462,-0.00019932,-0.000
 58664,0.00009622,0.00001713,-0.00222816,-0.00062026,0.00240829,0.02549
 777,-0.00670175,-0.01831677,0.12175581,-0.02353290,-0.13088144,-0.0000
 0268,-0.00056127,0.00097517,-0.00127213,0.00376079,-0.00381189,-0.0142
 8619,0.00381045,0.01083088,-0.13515634,0.02389228,0.14315013,-0.000089
 11,-0.00006814,-0.00007535,-0.00008715,0.00007238,-0.00000252,0.000033
 49,0.00016479,-0.00013197,-0.00012699,-0.00042533,0.00040847,0.0000005
 8,-0.00003427,-0.00004190,0.00135764,0.00004911,-0.00037693,-0.0023051
 0,0.00107117,0.00050208,-0.04632751,0.01116345,0.00252200,-0.00004547,
 -0.00017634,0.00004769,-0.00000505,0.00006979,-0.00009155,0.00223106,-
 0.02633132,-0.00453836,-0.00017543,0.02645536,0.00469467,0.04548531,0.
 00008614,0.00013446,0.00002653,0.00016194,-0.00007715,0.00001002,0.000
 18435,-0.00008618,-0.00003790,-0.00255463,0.00140754,0.00105899,0.0004
 2563,-0.00075934,-0.00046873,0.00196307,-0.00316798,0.00346407,0.00047
 242,-0.01512272,-0.00811228,0.01085916,-0.30377335,-0.06042432,0.00039
 664,0.00038438,0.00025001,-0.00046139,0.00040507,0.00011553,0.00063010
 ,-0.00569685,-0.00099619,-0.00007344,-0.00337200,-0.00066962,-0.011987
 20,0.32967307,-0.00008459,-0.00015109,0.00004790,-0.00001907,-0.000006
 82,0.00000036,-0.00012316,-0.00007239,0.00005881,0.00272786,-0.0005128
 0,-0.00181313,-0.00062300,0.00096873,0.00082731,-0.00216349,0.00762598
 ,-0.00398063,-0.00094540,0.02433069,0.01039331,0.00252527,-0.06266734,
 -0.06334138,-0.00065009,-0.00092109,0.00067480,0.00071701,-0.00077506,
 0.00088958,0.00261488,-0.01616664,-0.00419071,-0.00105456,-0.01744568,
 -0.00434596,-0.00292310,0.06578853,0.06477945,-0.11409180,-0.04220292,
 0.00427588,0.05073951,0.04453278,-0.02424571,-0.00872660,-0.01224843,-
 0.00044746,-0.00448908,0.00136315,-0.00007076,0.00186004,0.00118756,0.
 00036342,0.00085115,-0.00083604,-0.00022660,0.00001852,0.00031261,-0.0
 0014553,-0.00000824,-0.00006780,-0.00005095,0.00016773,-0.00000520,0.0
 0011187,0.00009983,-0.00005822,0.00005939,0.00000327,0.00000350,0.0000
 1156,0.00001218,0.00008162,-0.00004113,0.00004126,-0.00005880,0.000007
 95,0.11300403,0.01708279,0.01483483,-0.00351014,0.00606522,-0.02600570
 ,-0.00096185,-0.00511384,-0.00494858,-0.00022937,0.00067738,0.00120808
 ,0.00062021,0.00025599,-0.00009732,-0.00014451,-0.00051116,0.00004358,
 -0.00001055,0.00007759,-0.00031754,-0.00010518,-0.00000724,0.00004920,
 -0.00002215,0.00012237,0.00002059,0.00003997,0.00002150,0.00002416,0.0
 0002252,0.00000489,0.00000156,-0.00000077,0.00000197,-0.00003544,0.000
 00006,-0.00001686,0.00002311,0.00000379,-0.05149064,0.32597951,-0.0083
 2788,-0.00085412,0.00342404,0.00748186,-0.00911566,-0.01094663,0.00020
 931,-0.00174980,-0.00131734,-0.00255159,-0.00038566,0.00093973,0.00108
 910,0.00103761,-0.00002719,0.00083625,-0.00044221,-0.00024555,-0.00011
 511,0.00029411,-0.00022678,0.00004377,-0.00003960,-0.00000569,0.000095
 54,0.00001215,0.00012752,0.00008860,-0.00004082,0.00006496,0.00001955,
 0.00000629,0.00002486,-0.00002928,0.00005799,-0.00006040,0.00002054,-0
 .00004000,0.00000014,-0.02113058,0.25595245,0.21119249,-0.00550339,-0.
 00155066,0.00329900,0.00290629,0.01769482,0.01117770,0.00423623,0.0032
 3430,0.00021413,-0.00236660,-0.00168816,-0.00059832,0.00051760,0.00079
 106,0.00022738,0.00115735,-0.00024927,-0.00011953,-0.00016355,0.000472
 96,0.00010050,-0.00002886,-0.00006588,0.00005246,-0.00010671,0.0000075
 8,0.00007516,0.00006752,-0.00002485,-0.00000471,0.00003956,0.00000924,
 -0.00000257,-0.00000675,0.00004923,-0.00008468,0.00001247,-0.00004399,
 -0.00000650,-0.03948179,0.03283004,0.02226990,0.03872063,0.00201357,0.
 00199537,0.00128924,-0.01064601,-0.00421268,-0.00536107,-0.00030132,0.
 00111690,0.00015427,0.00242065,0.00078287,-0.00001383,-0.00089648,-0.0
 0125159,-0.00023119,-0.00060759,0.00019313,0.00011598,0.00006251,-0.00
 018268,0.00003294,0.00002955,0.00002113,-0.00002015,-0.00000034,-0.000
 02247,-0.00010024,-0.00007567,0.00001663,-0.00002435,-0.00003257,-0.00
 000235,0.00000107,0.00001987,-0.00002985,0.00006471,-0.00000658,0.0000
 2793,0.00000119,0.05948683,-0.31078004,-0.24469273,-0.05146643,0.31232
 771,0.00256742,-0.00034847,-0.00043177,-0.00673146,0.00314584,0.001982
 76,-0.00129502,0.00009708,-0.00017712,0.00208954,0.00064527,0.00025268
 ,-0.00074122,-0.00069108,-0.00032105,-0.00082900,0.00030819,0.00013445
 ,0.00013433,-0.00035300,0.00004133,-0.00002638,0.00005189,-0.00001790,
 0.00000062,-0.00000788,-0.00007995,-0.00006013,0.00003470,-0.00002491,
 -0.00002980,-0.00000233,-0.00000674,0.00000616,-0.00004527,0.00007719,
 -0.00001378,0.00003536,0.00000016,0.04152865,-0.25165448,-0.20294415,-
 0.03659993,0.24878416,0.20151502\\0.00375621,0.00112332,-0.00142934,-0
 .01504927,-0.00347149,0.00172739,0.00209842,0.00318949,-0.00004808,0.0
 0214233,0.00026244,0.00027674,-0.00018474,-0.00000205,-0.00005008,0.00
 026904,0.00011607,0.00003838,-0.00009708,0.00007161,0.00008728,0.00001
 642,-0.00002127,-0.00005146,-0.00005933,-0.00010780,-0.00004403,0.0001
 0973,-0.00006388,-0.00006283,0.00004373,0.00003143,0.00005609,0.000011
 32,0.00003528,-0.00001499,-0.00003679,-0.00005103,-0.00001875,0.006250
 16,-0.00046721,-0.00066613,0.00072986,-0.00064490,0.00019982\\\@


 IT IS THE BEHAVIOR AND DISTRIBUTION OF THE ELECTRONS 
 AROUND THE NUCLEUS THAT GIVES THE FUNDAMENTAL 
 CHARACTER OF AN ATOM:  IT MUST BE THE SAME FOR MOLECULES.

                               -- C. A. COULSON, 1951
 Job cpu time:       0 days  0 hours 53 minutes  5.8 seconds.
 Elapsed time:       0 days  0 hours  2 minutes 12.9 seconds.
 File lengths (MBytes):  RWF=    153 Int=      0 D2E=      0 Chk=      5 Scr=      1
 Normal termination of Gaussian 16 at Sat Mar 29 01:14:08 2025.
