 Entering Gaussian System, Link 0=g16
 Initial command:
 /opt/g16/l1.exe "/home/aayush/scratches/g16/Gau-17946.inp" -scrdir="/home/aayush/scratches/g16/"
 Entering Link 1 = /opt/g16/l1.exe PID=     17949.
  
 Copyright (c) 1988,1990,1992,1993,1995,1998,2003,2009,2016,
            Gaussian, Inc.  All Rights Reserved.
  
 This is part of the Gaussian(R) 16 program.  It is based on
 the Gaussian(R) 09 system (copyright 2009, Gaussian, Inc.),
 the Gaussian(R) 03 system (copyright 2003, Gaussian, Inc.),
 the Gaussian(R) 98 system (copyright 1998, Gaussian, Inc.),
 the Gaussian(R) 94 system (copyright 1995, Gaussian, Inc.),
 the Gaussian 92(TM) system (copyright 1992, Gaussian, Inc.),
 the Gaussian 90(TM) system (copyright 1990, Gaussian, Inc.),
 the Gaussian 88(TM) system (copyright 1988, Gaussian, Inc.),
 the Gaussian 86(TM) system (copyright 1986, Carnegie Mellon
 University), and the Gaussian 82(TM) system (copyright 1983,
 Carnegie Mellon University). Gaussian is a federally registered
 trademark of Gaussian, Inc.
  
 This software contains proprietary and confidential information,
 including trade secrets, belonging to Gaussian, Inc.
  
 This software is provided under written license and may be
 used, copied, transmitted, or stored only in accord with that
 written license.
  
 The following legend is applicable only to US Government
 contracts under FAR:
  
                    RESTRICTED RIGHTS LEGEND
  
 Use, reproduction and disclosure by the US Government is
 subject to restrictions as set forth in subparagraphs (a)
 and (c) of the Commercial Computer Software - Restricted
 Rights clause in FAR 52.227-19.
  
 Gaussian, Inc.
 340 Quinnipiac St., Bldg. 40, Wallingford CT 06492
  
  
 ---------------------------------------------------------------
 Warning -- This program may not be used in any manner that
 competes with the business of Gaussian, Inc. or will provide
 assistance to any competitor of Gaussian, Inc.  The licensee
 of this program is prohibited from giving any competitor of
 Gaussian, Inc. access to this program.  By using this program,
 the user acknowledges that Gaussian, Inc. is engaged in the
 business of creating and licensing software in the field of
 computational chemistry and represents and warrants to the
 licensee that it is not a competitor of Gaussian, Inc. and that
 it will not use this program in any manner prohibited above.
 ---------------------------------------------------------------
  

 Cite this work as:
 Gaussian 16, Revision A.03,
 M. J. Frisch, G. W. Trucks, H. B. Schlegel, G. E. Scuseria, 
 M. A. Robb, J. R. Cheeseman, G. Scalmani, V. Barone, 
 G. A. Petersson, H. Nakatsuji, X. Li, M. Caricato, A. V. Marenich, 
 J. Bloino, B. G. Janesko, R. Gomperts, B. Mennucci, H. P. Hratchian, 
 J. V. Ortiz, A. F. Izmaylov, J. L. Sonnenberg, D. Williams-Young, 
 F. Ding, F. Lipparini, F. Egidi, J. Goings, B. Peng, A. Petrone, 
 T. Henderson, D. Ranasinghe, V. G. Zakrzewski, J. Gao, N. Rega, 
 G. Zheng, W. Liang, M. Hada, M. Ehara, K. Toyota, R. Fukuda, 
 J. Hasegawa, M. Ishida, T. Nakajima, Y. Honda, O. Kitao, H. Nakai, 
 T. Vreven, K. Throssell, J. A. Montgomery, Jr., J. E. Peralta, 
 F. Ogliaro, M. J. Bearpark, J. J. Heyd, E. N. Brothers, K. N. Kudin, 
 V. N. Staroverov, T. A. Keith, R. Kobayashi, J. Normand, 
 K. Raghavachari, A. P. Rendell, J. C. Burant, S. S. Iyengar, 
 J. Tomasi, M. Cossi, J. M. Millam, M. Klene, C. Adamo, R. Cammi, 
 J. W. Ochterski, R. L. Martin, K. Morokuma, O. Farkas, 
 J. B. Foresman, and D. J. Fox, Gaussian, Inc., Wallingford CT, 2016.
 
 ******************************************
 Gaussian 16:  ES64L-G16RevA.03 25-Dec-2016
                 4-May-2025 
 ******************************************
 %chk=ethyl_propiolate.chk
 %nprocshared=24
 Will use up to   24 processors via shared memory.
 %mem=12GB
 --------------------------
 # ccsd(t)/6-311++g(d,p) sp
 --------------------------
 1/38=1,172=1/1;
 2/12=2,17=6,18=5,40=1/2;
 3/5=4,6=6,7=1111,11=9,25=1,30=1/1,2,3;
 4//1;
 5/5=2,38=5/2;
 8/6=4,9=120000,10=2/1,4;
 9/5=7,14=2/13;
 6/7=2,8=2,9=2,10=2/1;
 99/5=1,9=1/99;
 -------------------
 Title Card Required
 -------------------
 Symbolic Z-matrix:
 Charge =  0 Multiplicity = 2
 C                    -1.6527   -0.31347  -0.04443 
 H                    -2.85374  -0.86937   0.01129 
 C                    -0.62124   0.31891  -0.03505 
 C                     0.65331   1.04905   0.02231 
 O                     0.68741   2.19795   0.34802 
 O                     1.75597   0.38056  -0.31775 
 C                     1.71381  -1.02697  -0.61527 
 C                     1.76749  -1.85146   0.65532 
 H                     0.82603  -1.25176  -1.20911 
 H                     2.59532  -1.19132  -1.23292 
 H                     2.65385  -1.59293   1.23618 
 H                     0.88133  -1.68216   1.26913 
 H                     1.81144  -2.91326   0.40496 
 O                    -3.95548  -0.61966  -0.0807 
 H                    -4.06995   0.13037   0.52449 
 
                          Input orientation:                          
 ---------------------------------------------------------------------
 Center     Atomic      Atomic             Coordinates (Angstroms)
 Number     Number       Type             X           Y           Z
 ---------------------------------------------------------------------
      1          6           0       -1.652701   -0.313469   -0.044433
      2          1           0       -2.853736   -0.869372    0.011285
      3          6           0       -0.621244    0.318911   -0.035048
      4          6           0        0.653311    1.049053    0.022314
      5          8           0        0.687411    2.197946    0.348018
      6          8           0        1.755968    0.380559   -0.317754
      7          6           0        1.713814   -1.026968   -0.615274
      8          6           0        1.767487   -1.851464    0.655322
      9          1           0        0.826027   -1.251755   -1.209113
     10          1           0        2.595319   -1.191315   -1.232916
     11          1           0        2.653851   -1.592934    1.236182
     12          1           0        0.881332   -1.682157    1.269133
     13          1           0        1.811439   -2.913261    0.404956
     14          8           0       -3.955483   -0.619662   -0.080702
     15          1           0       -4.069949    0.130366    0.524486
 ---------------------------------------------------------------------
                    Distance matrix (angstroms):
                    1          2          3          4          5
     1  C    0.000000
     2  H    1.324620   0.000000
     3  C    1.209916   2.529463   0.000000
     4  C    2.679293   3.997481   1.469996   0.000000
     5  O    3.455047   4.696973   2.321657   1.194655   0.000000
     6  O    3.489327   4.787480   2.394757   1.333560   2.210874
     7  C    3.488318   4.613017   2.756909   2.416826   3.518736
     8  C    3.814810   4.768122   3.300481   3.170976   4.202228
     9  H    2.894987   3.895670   2.437214   2.615332   3.787388
    10  H    4.497642   5.598561   3.749926   3.219666   4.198399
    11  H    4.671552   5.688359   3.999678   3.529268   4.361937
    12  H    3.165452   4.024119   2.821860   3.010990   3.992650
    13  H    4.354439   5.108455   4.069212   4.145794   5.233652
    14  O    2.323333   1.133430   3.464124   4.902673   5.447860
    15  H    2.522647   1.655906   3.498885   4.837907   5.190231
                    6          7          8          9         10
     6  O    0.000000
     7  C    1.439245   0.000000
     8  C    2.434941   1.515615   0.000000
     9  H    2.079365   1.091485   2.173043   0.000000
    10  H    2.003202   1.088826   2.164843   1.770484   0.000000
    11  H    2.667506   2.152179   1.090815   3.071939   2.502233
    12  H    2.745541   2.161779   1.091192   2.515951   3.072284
    13  H    3.372631   2.146742   1.091800   2.517312   2.502437
    14  O    5.803215   5.708992   5.900123   4.953351   6.675881
    15  H    5.891797   6.007528   6.166071   5.374589   7.018625
                   11         12         13         14         15
    11  H    0.000000
    12  H    1.775069   0.000000
    13  H    1.773093   1.768479   0.000000
    14  O    6.809166   5.132809   6.225259   0.000000
    15  H    6.977518   5.324934   6.623343   0.970514   0.000000
 Stoichiometry    C5H7O3(2)
 Framework group  C1[X(C5H7O3)]
 Deg. of freedom    39
 Full point group                 C1      NOp   1
 Largest Abelian subgroup         C1      NOp   1
 Largest concise Abelian subgroup C1      NOp   1
                         Standard orientation:                         
 ---------------------------------------------------------------------
 Center     Atomic      Atomic             Coordinates (Angstroms)
 Number     Number       Type             X           Y           Z
 ---------------------------------------------------------------------
      1          6           0       -1.667332   -0.239600   -0.052235
      2          1           0       -2.867608   -0.797107    0.003813
      3          6           0       -0.636724    0.394167   -0.043164
      4          6           0        0.636859    1.126032    0.013821
      5          8           0        0.669476    2.275032    0.339301
      6          8           0        1.740350    0.458957   -0.326328
      7          6           0        1.700032   -0.948682   -0.623574
      8          6           0        1.755051   -1.772864    0.647168
      9          1           0        0.812436   -1.174774   -1.217204
     10          1           0        2.581641   -1.111961   -1.241351
     11          1           0        2.641176   -1.513033    1.227812
     12          1           0        0.868785   -1.604633    1.261113
     13          1           0        1.800384   -2.834649    0.396994
     14          8           0       -3.969707   -0.548895   -0.088014
     15          1           0       -4.085068    0.201093    0.517054
 ---------------------------------------------------------------------
 Rotational constants (GHZ):           2.6273775           1.0388715           0.7910493
 Standard basis: 6-311++G(d,p) (5D, 7F)
 There are   233 symmetry adapted cartesian basis functions of A   symmetry.
 There are   225 symmetry adapted basis functions of A   symmetry.
   225 basis functions,   351 primitive gaussians,   233 cartesian basis functions
    31 alpha electrons       30 beta electrons
       nuclear repulsion energy       340.5892138097 Hartrees.
 NAtoms=   15 NActive=   15 NUniq=   15 SFac= 1.00D+00 NAtFMM=   60 NAOKFM=F Big=F
 Integral buffers will be    131072 words long.
 Raffenetti 2 integral format.
 Two-electron integral symmetry is turned on.
 One-electron integrals computed using PRISM.
 NBasis=   225 RedAO= T EigKep=  1.78D-05  NBF=   225
 NBsUse=   224 1.00D-06 EigRej=  8.02D-07 NBFU=   224
 ExpMin= 3.60D-02 ExpMax= 8.59D+03 ExpMxC= 1.30D+03 IAcc=3 IRadAn=         5 AccDes= 0.00D+00
 Harris functional with IExCor=  205 and IRadAn=       5 diagonalized for initial guess.
 HarFok:  IExCor=  205 AccDes= 0.00D+00 IRadAn=         5 IDoV= 1 UseB2=F ITyADJ=14
 ICtDFT=  3500011 ScaDFX=  1.000000  1.000000  1.000000  1.000000
 FoFCou: FMM=F IPFlag=           0 FMFlag=      100000 FMFlg1=           0
         NFxFlg=           0 DoJE=T BraDBF=F KetDBF=T FulRan=T
         wScrn=  0.000000 ICntrl=       500 IOpCl=  0 I1Cent=   200000004 NGrid=           0
         NMat0=    1 NMatS0=      1 NMatT0=    0 NMatD0=    1 NMtDS0=    0 NMtDT0=    0
 Petite list used in FoFCou.
 Initial guess <Sx>= 0.0000 <Sy>= 0.0000 <Sz>= 0.5000 <S**2>= 0.7500 S= 0.5000
 Requested convergence on RMS density matrix=1.00D-08 within 128 cycles.
 Requested convergence on MAX density matrix=1.00D-06.
 Requested convergence on             energy=1.00D-06.
 No special actions if energy rises.
 Initial convergence to 1.0D-05 achieved.  Increase integral accuracy.
 SCF Done:  E(UHF) =  -417.926168082     A.U. after   40 cycles
            NFock= 40  Conv=0.45D-08     -V/T= 2.0007
 <Sx>= 0.0000 <Sy>= 0.0000 <Sz>= 0.5000 <S**2>= 1.0338 S= 0.6330
 <L.S>=  0.00000000000    
 Annihilation of the first spin contaminant:
 S**2 before annihilation     1.0338,   after     0.8167
 ExpMin= 3.60D-02 ExpMax= 8.59D+03 ExpMxC= 1.30D+03 IAcc=3 IRadAn=         5 AccDes= 0.00D+00
 HarFok:  IExCor=  205 AccDes= 0.00D+00 IRadAn=         5 IDoV=-2 UseB2=F ITyADJ=14
 ICtDFT= 12500011 ScaDFX=  1.000000  1.000000  1.000000  1.000000
 Range of M.O.s used for correlation:     9   224
 NBasis=   225 NAE=    31 NBE=    30 NFC=     8 NFV=     0
 NROrb=    216 NOA=    23 NOB=    22 NVA=   193 NVB=   194

 **** Warning!!: The largest alpha MO coefficient is  0.73888215D+02


 **** Warning!!: The largest beta MO coefficient is  0.67983523D+02

 Semi-Direct transformation.
 ModeAB=           4 MOrb=            23 LenV=    1609188193
 LASXX=    107793295 LTotXX=   107793295 LenRXX=   218294035
 LTotAB=   110500740 MaxLAS=   124726608 LenRXY=           0
 NonZer=   326087330 LenScr=   491049984 LnRSAI=   124726608
 LnScr1=   187838464 LExtra=           0 Total=   1021909091
 MaxDsk=          -1 SrtSym=           T ITran=            4
 JobTyp=1 Pass  1:  I=   1 to  23.
 (rs|ai) integrals will be sorted in core.
 ModeAB=           4 MOrb=            22 LenV=    1609188193
 LASXX=    103454307 LTotXX=   103454307 LenRXX=   188091948
 LTotAB=    84637641 MaxLAS=   119303712 LenRXY=           0
 NonZer=   291546255 LenScr=   439034880 LnRSAI=   119303712
 LnScr1=   179720192 LExtra=           0 Total=    926150732
 MaxDsk=          -1 SrtSym=           T ITran=            4
 JobTyp=2 Pass  1:  I=   1 to  22.
 (rs|ai) integrals will be sorted in core.
 SymMOI:  orbitals are not symmetric.
 Spin components of T(2) and E(2):
     alpha-alpha T2 =       0.5337348395D-01 E2=     -0.1719801149D+00
     alpha-beta  T2 =       0.2886132290D+00 E2=     -0.9394836145D+00
     beta-beta   T2 =       0.5231625421D-01 E2=     -0.1620747122D+00
 ANorm=    0.1180806067D+01
 E2 =    -0.1273538442D+01 EUMP2 =    -0.41919970652401D+03
 (S**2,0)=  0.10338D+01           (S**2,1)=  0.95464D+00
 E(PUHF)=      -0.41795066227D+03        E(PMP2)=      -0.41922119075D+03
 Keep R2 and R3 ints in memory in canonical form, NReq=652883968.
 CIDS: In Core Option IDoMem=           1.
 Iterations=  50 Convergence= 0.100D-06
 Produce multiple copies of IABC intergrals
 Iteration Nr.   1
 **********************
 DD1Dir will call FoFMem   1 times, MxPair=      1496
 NAB=   506 NAA=   253 NBB=   231.
 E(PMP3)=      -0.41924121009D+03
 MP4(R+Q)=  0.25191814D-01
 E3=       -0.25056529D-01        EUMP3=      -0.41922476305D+03
 E4(DQ)=   -0.60215574D-02        UMP4(DQ)=   -0.41923078461D+03
 E4(SDQ)=  -0.28744669D-01        UMP4(SDQ)=  -0.41925350772D+03
 DE(Corr)=  -1.2731468     E(Corr)=     -419.19931490    
 NORM(A)=   0.11893713D+01
 Iteration Nr.   2
 **********************
 DD1Dir will call FoFMem   1 times, MxPair=      1496
 NAB=   506 NAA=   253 NBB=   231.
 DE(Corr)=  -1.3185146     E(CORR)=     -419.24468264     Delta=-4.54D-02
 NORM(A)=   0.12127859D+01
 Iteration Nr.   3
 **********************
 DD1Dir will call FoFMem   1 times, MxPair=      1496
 NAB=   506 NAA=   253 NBB=   231.
 DE(Corr)=  -1.3222114     E(CORR)=     -419.24837944     Delta=-3.70D-03
 NORM(A)=   0.12275775D+01
 Iteration Nr.   4
 **********************
 DD1Dir will call FoFMem   1 times, MxPair=      1496
 NAB=   506 NAA=   253 NBB=   231.
 DE(Corr)=  -1.3306001     E(CORR)=     -419.25676814     Delta=-8.39D-03
 NORM(A)=   0.12377516D+01
 Iteration Nr.   5
 **********************
 DD1Dir will call FoFMem   1 times, MxPair=      1496
 NAB=   506 NAA=   253 NBB=   231.
 DE(Corr)=  -1.3332682     E(CORR)=     -419.25943630     Delta=-2.67D-03
 NORM(A)=   0.12440208D+01
 Iteration Nr.   6
 **********************
 DD1Dir will call FoFMem   1 times, MxPair=      1496
 NAB=   506 NAA=   253 NBB=   231.
 DE(Corr)=  -1.3342355     E(CORR)=     -419.26040355     Delta=-9.67D-04
 NORM(A)=   0.12457457D+01
 Iteration Nr.   7
 **********************
 DD1Dir will call FoFMem   1 times, MxPair=      1496
 NAB=   506 NAA=   253 NBB=   231.
 DE(Corr)=  -1.3344500     E(CORR)=     -419.26061805     Delta=-2.14D-04
 NORM(A)=   0.12464977D+01
 Iteration Nr.   8
 **********************
 DD1Dir will call FoFMem   1 times, MxPair=      1496
 NAB=   506 NAA=   253 NBB=   231.
 DE(Corr)=  -1.3344645     E(CORR)=     -419.26063259     Delta=-1.45D-05
 NORM(A)=   0.12468666D+01
 Iteration Nr.   9
 **********************
 DD1Dir will call FoFMem   1 times, MxPair=      1496
 NAB=   506 NAA=   253 NBB=   231.
 DE(Corr)=  -1.3344418     E(CORR)=     -419.26060992     Delta= 2.27D-05
 NORM(A)=   0.12470717D+01
 Iteration Nr.  10
 **********************
 DD1Dir will call FoFMem   1 times, MxPair=      1496
 NAB=   506 NAA=   253 NBB=   231.
 DE(Corr)=  -1.3344321     E(CORR)=     -419.26060023     Delta= 9.69D-06
 NORM(A)=   0.12472365D+01
 Iteration Nr.  11
 **********************
 DD1Dir will call FoFMem   1 times, MxPair=      1496
 NAB=   506 NAA=   253 NBB=   231.
 DE(Corr)=  -1.3344405     E(CORR)=     -419.26060860     Delta=-8.37D-06
 NORM(A)=   0.12474160D+01
 Iteration Nr.  12
 **********************
 DD1Dir will call FoFMem   1 times, MxPair=      1496
 NAB=   506 NAA=   253 NBB=   231.
 DE(Corr)=  -1.3344693     E(CORR)=     -419.26063743     Delta=-2.88D-05
 NORM(A)=   0.12476050D+01
 Iteration Nr.  13
 **********************
 DD1Dir will call FoFMem   1 times, MxPair=      1496
 NAB=   506 NAA=   253 NBB=   231.
 DE(Corr)=  -1.3345022     E(CORR)=     -419.26067024     Delta=-3.28D-05
 NORM(A)=   0.12477604D+01
 Iteration Nr.  14
 **********************
 DD1Dir will call FoFMem   1 times, MxPair=      1496
 NAB=   506 NAA=   253 NBB=   231.
 DE(Corr)=  -1.3345339     E(CORR)=     -419.26070201     Delta=-3.18D-05
 NORM(A)=   0.12479083D+01
 Iteration Nr.  15
 **********************
 DD1Dir will call FoFMem   1 times, MxPair=      1496
 NAB=   506 NAA=   253 NBB=   231.
 DE(Corr)=  -1.3345599     E(CORR)=     -419.26072799     Delta=-2.60D-05
 NORM(A)=   0.12479898D+01
 Iteration Nr.  16
 **********************
 DD1Dir will call FoFMem   1 times, MxPair=      1496
 NAB=   506 NAA=   253 NBB=   231.
 DE(Corr)=  -1.3345736     E(CORR)=     -419.26074166     Delta=-1.37D-05
 NORM(A)=   0.12480240D+01
 Iteration Nr.  17
 **********************
 DD1Dir will call FoFMem   1 times, MxPair=      1496
 NAB=   506 NAA=   253 NBB=   231.
 DE(Corr)=  -1.3345763     E(CORR)=     -419.26074440     Delta=-2.74D-06
 NORM(A)=   0.12480179D+01
 Iteration Nr.  18
 **********************
 DD1Dir will call FoFMem   1 times, MxPair=      1496
 NAB=   506 NAA=   253 NBB=   231.
 DE(Corr)=  -1.3345723     E(CORR)=     -419.26074034     Delta= 4.06D-06
 NORM(A)=   0.12480033D+01
 Iteration Nr.  19
 **********************
 DD1Dir will call FoFMem   1 times, MxPair=      1496
 NAB=   506 NAA=   253 NBB=   231.
 DE(Corr)=  -1.3345669     E(CORR)=     -419.26073502     Delta= 5.32D-06
 NORM(A)=   0.12479889D+01
 Iteration Nr.  20
 **********************
 DD1Dir will call FoFMem   1 times, MxPair=      1496
 NAB=   506 NAA=   253 NBB=   231.
 DE(Corr)=  -1.3345622     E(CORR)=     -419.26073027     Delta= 4.76D-06
 NORM(A)=   0.12479837D+01
 Iteration Nr.  21
 **********************
 DD1Dir will call FoFMem   1 times, MxPair=      1496
 NAB=   506 NAA=   253 NBB=   231.
 DE(Corr)=  -1.3345600     E(CORR)=     -419.26072810     Delta= 2.16D-06
 NORM(A)=   0.12479879D+01
 Iteration Nr.  22
 **********************
 DD1Dir will call FoFMem   1 times, MxPair=      1496
 NAB=   506 NAA=   253 NBB=   231.
 DE(Corr)=  -1.3345598     E(CORR)=     -419.26072783     Delta= 2.66D-07
 NORM(A)=   0.12479976D+01
 Iteration Nr.  23
 **********************
 DD1Dir will call FoFMem   1 times, MxPair=      1496
 NAB=   506 NAA=   253 NBB=   231.
 DE(Corr)=  -1.3345608     E(CORR)=     -419.26072886     Delta=-1.02D-06
 NORM(A)=   0.12480103D+01
 Iteration Nr.  24
 **********************
 DD1Dir will call FoFMem   1 times, MxPair=      1496
 NAB=   506 NAA=   253 NBB=   231.
 DE(Corr)=  -1.3345624     E(CORR)=     -419.26073052     Delta=-1.66D-06
 NORM(A)=   0.12480204D+01
 Iteration Nr.  25
 **********************
 DD1Dir will call FoFMem   1 times, MxPair=      1496
 NAB=   506 NAA=   253 NBB=   231.
 DE(Corr)=  -1.3345638     E(CORR)=     -419.26073187     Delta=-1.35D-06
 NORM(A)=   0.12480274D+01
 Iteration Nr.  26
 **********************
 DD1Dir will call FoFMem   1 times, MxPair=      1496
 NAB=   506 NAA=   253 NBB=   231.
 DE(Corr)=  -1.3345648     E(CORR)=     -419.26073286     Delta=-9.90D-07
 NORM(A)=   0.12480313D+01
 Iteration Nr.  27
 **********************
 DD1Dir will call FoFMem   1 times, MxPair=      1496
 NAB=   506 NAA=   253 NBB=   231.
 DE(Corr)=  -1.3345653     E(CORR)=     -419.26073338     Delta=-5.23D-07
 NORM(A)=   0.12480328D+01
 Iteration Nr.  28
 **********************
 DD1Dir will call FoFMem   1 times, MxPair=      1496
 NAB=   506 NAA=   253 NBB=   231.
 DE(Corr)=  -1.3345654     E(CORR)=     -419.26073352     Delta=-1.39D-07
 NORM(A)=   0.12480321D+01
 Iteration Nr.  29
 **********************
 DD1Dir will call FoFMem   1 times, MxPair=      1496
 NAB=   506 NAA=   253 NBB=   231.
 DE(Corr)=  -1.3345653     E(CORR)=     -419.26073340     Delta= 1.19D-07
 NORM(A)=   0.12480306D+01
 Iteration Nr.  30
 **********************
 DD1Dir will call FoFMem   1 times, MxPair=      1496
 NAB=   506 NAA=   253 NBB=   231.
 DE(Corr)=  -1.3345650     E(CORR)=     -419.26073307     Delta= 3.30D-07
 NORM(A)=   0.12480288D+01
 Iteration Nr.  31
 **********************
 DD1Dir will call FoFMem   1 times, MxPair=      1496
 NAB=   506 NAA=   253 NBB=   231.
 DE(Corr)=  -1.3345647     E(CORR)=     -419.26073275     Delta= 3.16D-07
 NORM(A)=   0.12480282D+01
 Iteration Nr.  32
 **********************
 DD1Dir will call FoFMem   1 times, MxPair=      1496
 NAB=   506 NAA=   253 NBB=   231.
 DE(Corr)=  -1.3345645     E(CORR)=     -419.26073256     Delta= 1.90D-07
 NORM(A)=   0.12480282D+01
 Iteration Nr.  33
 **********************
 DD1Dir will call FoFMem   1 times, MxPair=      1496
 NAB=   506 NAA=   253 NBB=   231.
 DE(Corr)=  -1.3345644     E(CORR)=     -419.26073250     Delta= 6.37D-08
 NORM(A)=   0.12480289D+01
 Wavefunction amplitudes converged. E(Corr)=     -419.26073250    
 Largest amplitude= 9.66D-02
 Time for triples=    34420.21 seconds.
 T4(CCSD)= -0.60579678D-01
 T5(CCSD)=  0.45084450D-02
 CCSD(T)= -0.41931680373D+03

 S**2, projected HF & approx projected MPn energies after annihilation of
 unwanted spin states (see manual for definitions):

 spins       (S**2,0) (S**2,1)    PUHF        PMP2        PMP3        PMP4
 annihilated
 s+1         0.71175  0.73642 -417.950662 -419.221191 -419.241210
 s+1,s+2     0.75143  0.74986 -417.947922 -419.218615 -419.238855
 s+1 to s+3  0.74998  0.75001 -417.948022 -419.218686 -419.238879
 s+1 to s+4  0.75000  0.75000 -417.948020 -419.218685 -419.238878
 s+1 to s+5  0.75000  0.75000 -417.948020
 s+1 to s+6  0.75000  0.75000 -417.948020

 Discarding MO integrals.

 **********************************************************************

            Population analysis using the SCF density.

 **********************************************************************

 Orbital symmetries:
 Alpha Orbitals:
       Occupied  (A) (A) (A) (A) (A) (A) (A) (A) (A) (A) (A) (A)
                 (A) (A) (A) (A) (A) (A) (A) (A) (A) (A) (A) (A)
                 (A) (A) (A) (A) (A) (A) (A)
       Virtual   (A) (A) (A) (A) (A) (A) (A) (A) (A) (A) (A) (A)
                 (A) (A) (A) (A) (A) (A) (A) (A) (A) (A) (A) (A)
                 (A) (A) (A) (A) (A) (A) (A) (A) (A) (A) (A) (A)
                 (A) (A) (A) (A) (A) (A) (A) (A) (A) (A) (A) (A)
                 (A) (A) (A) (A) (A) (A) (A) (A) (A) (A) (A) (A)
                 (A) (A) (A) (A) (A) (A) (A) (A) (A) (A) (A) (A)
                 (A) (A) (A) (A) (A) (A) (A) (A) (A) (A) (A) (A)
                 (A) (A) (A) (A) (A) (A) (A) (A) (A) (A) (A) (A)
                 (A) (A) (A) (A) (A) (A) (A) (A) (A) (A) (A) (A)
                 (A) (A) (A) (A) (A) (A) (A) (A) (A) (A) (A) (A)
                 (A) (A) (A) (A) (A) (A) (A) (A) (A) (A) (A) (A)
                 (A) (A) (A) (A) (A) (A) (A) (A) (A) (A) (A) (A)
                 (A) (A) (A) (A) (A) (A) (A) (A) (A) (A) (A) (A)
                 (A) (A) (A) (A) (A) (A) (A) (A) (A) (A) (A) (A)
                 (A) (A) (A) (A) (A) (A) (A) (A) (A) (A) (A) (A)
                 (A) (A) (A) (A) (A) (A) (A) (A) (A) (A) (A) (A)
                 (A)
 Beta  Orbitals:
       Occupied  (A) (A) (A) (A) (A) (A) (A) (A) (A) (A) (A) (A)
                 (A) (A) (A) (A) (A) (A) (A) (A) (A) (A) (A) (A)
                 (A) (A) (A) (A) (A) (A)
       Virtual   (A) (A) (A) (A) (A) (A) (A) (A) (A) (A) (A) (A)
                 (A) (A) (A) (A) (A) (A) (A) (A) (A) (A) (A) (A)
                 (A) (A) (A) (A) (A) (A) (A) (A) (A) (A) (A) (A)
                 (A) (A) (A) (A) (A) (A) (A) (A) (A) (A) (A) (A)
                 (A) (A) (A) (A) (A) (A) (A) (A) (A) (A) (A) (A)
                 (A) (A) (A) (A) (A) (A) (A) (A) (A) (A) (A) (A)
                 (A) (A) (A) (A) (A) (A) (A) (A) (A) (A) (A) (A)
                 (A) (A) (A) (A) (A) (A) (A) (A) (A) (A) (A) (A)
                 (A) (A) (A) (A) (A) (A) (A) (A) (A) (A) (A) (A)
                 (A) (A) (A) (A) (A) (A) (A) (A) (A) (A) (A) (A)
                 (A) (A) (A) (A) (A) (A) (A) (A) (A) (A) (A) (A)
                 (A) (A) (A) (A) (A) (A) (A) (A) (A) (A) (A) (A)
                 (A) (A) (A) (A) (A) (A) (A) (A) (A) (A) (A) (A)
                 (A) (A) (A) (A) (A) (A) (A) (A) (A) (A) (A) (A)
                 (A) (A) (A) (A) (A) (A) (A) (A) (A) (A) (A) (A)
                 (A) (A) (A) (A) (A) (A) (A) (A) (A) (A) (A) (A)
                 (A) (A)
 The electronic state is 2-A.
 Alpha  occ. eigenvalues --  -20.67619 -20.61133 -20.55292 -11.41596 -11.30591
 Alpha  occ. eigenvalues --  -11.29532 -11.25682 -11.23487  -1.47558  -1.45408
 Alpha  occ. eigenvalues --   -1.37745  -1.07635  -1.05176  -0.91858  -0.87767
 Alpha  occ. eigenvalues --   -0.82716  -0.74691  -0.71963  -0.69227  -0.66749
 Alpha  occ. eigenvalues --   -0.63270  -0.61128  -0.58592  -0.57490  -0.55235
 Alpha  occ. eigenvalues --   -0.54803  -0.51136  -0.47620  -0.46291  -0.43931
 Alpha  occ. eigenvalues --   -0.43463
 Alpha virt. eigenvalues --    0.03477   0.04254   0.05622   0.06071   0.07451
 Alpha virt. eigenvalues --    0.08579   0.09004   0.09292   0.11054   0.12471
 Alpha virt. eigenvalues --    0.13173   0.13807   0.14784   0.15678   0.16030
 Alpha virt. eigenvalues --    0.17031   0.17344   0.17686   0.18697   0.19671
 Alpha virt. eigenvalues --    0.20169   0.20737   0.21585   0.22084   0.23138
 Alpha virt. eigenvalues --    0.23730   0.25111   0.26779   0.27311   0.29006
 Alpha virt. eigenvalues --    0.30229   0.30529   0.31729   0.32614   0.33686
 Alpha virt. eigenvalues --    0.35816   0.35942   0.36918   0.38815   0.38949
 Alpha virt. eigenvalues --    0.39466   0.41071   0.41512   0.42125   0.43595
 Alpha virt. eigenvalues --    0.45353   0.45870   0.47017   0.47914   0.49595
 Alpha virt. eigenvalues --    0.51358   0.56688   0.58317   0.61725   0.62294
 Alpha virt. eigenvalues --    0.63613   0.67157   0.69070   0.70845   0.73358
 Alpha virt. eigenvalues --    0.76661   0.78427   0.79391   0.83618   0.84666
 Alpha virt. eigenvalues --    0.85631   0.86600   0.87341   0.87570   0.88513
 Alpha virt. eigenvalues --    0.91341   0.93585   0.94446   0.96810   0.99169
 Alpha virt. eigenvalues --    1.03966   1.07672   1.13834   1.16705   1.17646
 Alpha virt. eigenvalues --    1.20921   1.21846   1.25414   1.25471   1.29498
 Alpha virt. eigenvalues --    1.32640   1.38298   1.39338   1.40061   1.41469
 Alpha virt. eigenvalues --    1.43811   1.46777   1.48361   1.50844   1.51665
 Alpha virt. eigenvalues --    1.53573   1.54889   1.58760   1.61676   1.64035
 Alpha virt. eigenvalues --    1.67123   1.69539   1.71785   1.78883   1.80478
 Alpha virt. eigenvalues --    1.81134   1.83146   1.84712   1.85913   1.88488
 Alpha virt. eigenvalues --    1.90847   1.93818   1.94565   1.96540   1.97417
 Alpha virt. eigenvalues --    2.00710   2.02403   2.05133   2.10439   2.14805
 Alpha virt. eigenvalues --    2.18256   2.22208   2.24609   2.30006   2.31997
 Alpha virt. eigenvalues --    2.36830   2.41520   2.47383   2.57920   2.59666
 Alpha virt. eigenvalues --    2.62990   2.70489   2.76785   2.80151   2.81932
 Alpha virt. eigenvalues --    2.83445   2.85055   2.90657   2.93409   2.95021
 Alpha virt. eigenvalues --    2.97518   3.00600   3.03066   3.04422   3.09707
 Alpha virt. eigenvalues --    3.13318   3.15668   3.21702   3.26124   3.27188
 Alpha virt. eigenvalues --    3.29965   3.33120   3.33751   3.35535   3.41502
 Alpha virt. eigenvalues --    3.43969   3.45493   3.49191   3.53622   3.59587
 Alpha virt. eigenvalues --    3.66182   3.69314   3.76318   3.78787   3.91349
 Alpha virt. eigenvalues --    3.96687   4.00818   4.12620   4.20648   4.20962
 Alpha virt. eigenvalues --    4.21893   4.23223   4.40883   4.48392   4.51535
 Alpha virt. eigenvalues --    4.69834   5.47403   5.60042   5.63251   5.72633
 Alpha virt. eigenvalues --    5.73645   5.88652   6.02242   6.17386   6.47123
 Alpha virt. eigenvalues --   24.54566  24.98486  25.01214  25.13002  26.07905
 Alpha virt. eigenvalues --   51.47787  51.59629  51.73096
  Beta  occ. eigenvalues --  -20.64428 -20.61078 -20.55939 -11.41163 -11.30607
  Beta  occ. eigenvalues --  -11.27171 -11.25841 -11.23488  -1.47775  -1.38724
  Beta  occ. eigenvalues --   -1.34029  -1.06652  -1.05149  -0.90940  -0.86062
  Beta  occ. eigenvalues --   -0.75272  -0.74261  -0.69826  -0.66911  -0.63609
  Beta  occ. eigenvalues --   -0.61278  -0.58839  -0.56254  -0.55393  -0.54639
  Beta  occ. eigenvalues --   -0.51259  -0.48483  -0.47027  -0.43181  -0.42672
  Beta virt. eigenvalues --   -0.01078   0.03981   0.04902   0.05621   0.06150
  Beta virt. eigenvalues --    0.07526   0.08670   0.09036   0.10527   0.11144
  Beta virt. eigenvalues --    0.12614   0.13179   0.13884   0.15259   0.15665
  Beta virt. eigenvalues --    0.16570   0.17168   0.17328   0.18280   0.18742
  Beta virt. eigenvalues --    0.19605   0.20286   0.20790   0.21747   0.23120
  Beta virt. eigenvalues --    0.23539   0.24672   0.25659   0.26912   0.27413
  Beta virt. eigenvalues --    0.29130   0.30648   0.30744   0.31932   0.32859
  Beta virt. eigenvalues --    0.34034   0.35894   0.36116   0.36878   0.38887
  Beta virt. eigenvalues --    0.38963   0.39758   0.41067   0.41319   0.42923
  Beta virt. eigenvalues --    0.44122   0.45339   0.46342   0.47144   0.48926
  Beta virt. eigenvalues --    0.49891   0.51351   0.56703   0.59375   0.61854
  Beta virt. eigenvalues --    0.62514   0.63907   0.67361   0.69771   0.71280
  Beta virt. eigenvalues --    0.74610   0.77576   0.80221   0.80481   0.83526
  Beta virt. eigenvalues --    0.84064   0.84559   0.86715   0.87299   0.87542
  Beta virt. eigenvalues --    0.89223   0.91501   0.93996   0.94573   0.98564
  Beta virt. eigenvalues --    1.01357   1.04159   1.07734   1.14092   1.17602
  Beta virt. eigenvalues --    1.18643   1.21886   1.23663   1.25920   1.27676
  Beta virt. eigenvalues --    1.31816   1.35192   1.38136   1.39694   1.40747
  Beta virt. eigenvalues --    1.41460   1.43509   1.46700   1.49733   1.51346
  Beta virt. eigenvalues --    1.52032   1.54483   1.56149   1.60179   1.62000
  Beta virt. eigenvalues --    1.64783   1.68092   1.70426   1.71826   1.80083
  Beta virt. eigenvalues --    1.81235   1.82119   1.83187   1.84897   1.85890
  Beta virt. eigenvalues --    1.88634   1.90896   1.93809   1.94640   1.96209
  Beta virt. eigenvalues --    1.98467   2.00505   2.02333   2.05678   2.10542
  Beta virt. eigenvalues --    2.15940   2.18964   2.24036   2.24828   2.30322
  Beta virt. eigenvalues --    2.32470   2.37674   2.41668   2.47439   2.58248
  Beta virt. eigenvalues --    2.60956   2.63053   2.71550   2.77373   2.80762
  Beta virt. eigenvalues --    2.81923   2.83502   2.85411   2.90848   2.93398
  Beta virt. eigenvalues --    2.95071   2.97490   3.00878   3.03487   3.04991
  Beta virt. eigenvalues --    3.09715   3.13255   3.16696   3.21898   3.25286
  Beta virt. eigenvalues --    3.28175   3.30592   3.34717   3.35211   3.36533
  Beta virt. eigenvalues --    3.42858   3.44996   3.46022   3.50653   3.58469
  Beta virt. eigenvalues --    3.59768   3.66360   3.70029   3.76827   3.77889
  Beta virt. eigenvalues --    3.93446   3.97660   4.02917   4.12906   4.20697
  Beta virt. eigenvalues --    4.21703   4.23008   4.26114   4.40942   4.48873
  Beta virt. eigenvalues --    4.51527   4.69854   5.50104   5.60180   5.61444
  Beta virt. eigenvalues --    5.72242   5.81392   5.88611   6.04945   6.17209
  Beta virt. eigenvalues --    6.47042  24.55675  24.98663  25.01372  25.13002
  Beta virt. eigenvalues --   26.08630  51.49578  51.59612  51.72772
          Condensed to atoms (all electrons):
               1          2          3          4          5          6
     1  C    5.662433   0.127221   0.863496  -0.140048  -0.023588  -0.014024
     2  H    0.127221   0.340458  -0.053222   0.027466  -0.000118  -0.002394
     3  C    0.863496  -0.053222   6.155522  -1.460287   0.004034  -0.087397
     4  C   -0.140048   0.027466  -1.460287   7.507752   0.333285   0.089249
     5  O   -0.023588  -0.000118   0.004034   0.333285   8.071641  -0.067598
     6  O   -0.014024  -0.002394  -0.087397   0.089249  -0.067598   8.238382
     7  C   -0.033818   0.000578  -0.148281   0.004085  -0.000655   0.232027
     8  C    0.008758   0.000137   0.115033  -0.078328   0.011930  -0.138312
     9  H    0.016114  -0.002090   0.007914  -0.008921  -0.001159  -0.019079
    10  H   -0.003547  -0.000359   0.000891  -0.003044   0.001426  -0.079903
    11  H   -0.001860   0.000261   0.016611  -0.019463   0.000708  -0.007709
    12  H    0.003895  -0.003021   0.023567  -0.011719  -0.000876  -0.009321
    13  H   -0.001456   0.000394  -0.003644  -0.001779   0.000248   0.014834
    14  O   -0.006001   0.167728  -0.022355  -0.000360   0.000181   0.000382
    15  H    0.032890  -0.037279   0.002778   0.002132  -0.000100   0.000176
               7          8          9         10         11         12
     1  C   -0.033818   0.008758   0.016114  -0.003547  -0.001860   0.003895
     2  H    0.000578   0.000137  -0.002090  -0.000359   0.000261  -0.003021
     3  C   -0.148281   0.115033   0.007914   0.000891   0.016611   0.023567
     4  C    0.004085  -0.078328  -0.008921  -0.003044  -0.019463  -0.011719
     5  O   -0.000655   0.011930  -0.001159   0.001426   0.000708  -0.000876
     6  O    0.232027  -0.138312  -0.019079  -0.079903  -0.007709  -0.009321
     7  C    5.539398  -0.133067   0.407564   0.459985  -0.054348  -0.020993
     8  C   -0.133067   5.497816  -0.035026  -0.068325   0.444250   0.376940
     9  H    0.407564  -0.035026   0.550005  -0.041221   0.000879  -0.007738
    10  H    0.459985  -0.068325  -0.041221   0.548742  -0.005369   0.010375
    11  H   -0.054348   0.444250   0.000879  -0.005369   0.540415  -0.048246
    12  H   -0.020993   0.376940  -0.007738   0.010375  -0.048246   0.597789
    13  H   -0.041122   0.410023  -0.004566   0.002581  -0.036544  -0.034559
    14  O   -0.000255  -0.000161   0.000350  -0.000065  -0.000058  -0.000645
    15  H    0.000136  -0.000148   0.000207   0.000008  -0.000031   0.000022
              13         14         15
     1  C   -0.001456  -0.006001   0.032890
     2  H    0.000394   0.167728  -0.037279
     3  C   -0.003644  -0.022355   0.002778
     4  C   -0.001779  -0.000360   0.002132
     5  O    0.000248   0.000181  -0.000100
     6  O    0.014834   0.000382   0.000176
     7  C   -0.041122  -0.000255   0.000136
     8  C    0.410023  -0.000161  -0.000148
     9  H   -0.004566   0.000350   0.000207
    10  H    0.002581  -0.000065   0.000008
    11  H   -0.036544  -0.000058  -0.000031
    12  H   -0.034559  -0.000645   0.000022
    13  H    0.569773   0.000083  -0.000010
    14  O    0.000083   7.772168   0.294833
    15  H   -0.000010   0.294833   0.421603
          Atomic-Atomic Spin Densities.
               1          2          3          4          5          6
     1  C    1.593011  -0.074150  -0.042452  -0.032751  -0.000958   0.003601
     2  H   -0.074150  -0.125258  -0.001470   0.010479  -0.000109   0.000568
     3  C   -0.042452  -0.001470  -0.691309  -0.182635   0.024554   0.018253
     4  C   -0.032751   0.010479  -0.182635   0.385119   0.021032  -0.049816
     5  O   -0.000958  -0.000109   0.024554   0.021032  -0.180473  -0.001442
     6  O    0.003601   0.000568   0.018253  -0.049816  -0.001442   0.033215
     7  C   -0.007340   0.000208   0.013296  -0.006047   0.002290  -0.001538
     8  C   -0.000520   0.000829  -0.011515   0.012379  -0.002407  -0.001892
     9  H    0.007028  -0.001060   0.004279  -0.004859   0.000207  -0.000240
    10  H   -0.000592   0.000032  -0.000651   0.001090   0.000106  -0.001387
    11  H    0.000154  -0.000062   0.002670  -0.001889  -0.000020   0.000245
    12  H    0.003760  -0.000537   0.000795  -0.001834   0.000100  -0.000177
    13  H   -0.000766   0.000078  -0.001796   0.001407  -0.000033   0.000039
    14  O   -0.092356   0.024308   0.000334   0.006290   0.000128   0.000046
    15  H    0.000473  -0.000369  -0.001118  -0.001225  -0.000014  -0.000032
               7          8          9         10         11         12
     1  C   -0.007340  -0.000520   0.007028  -0.000592   0.000154   0.003760
     2  H    0.000208   0.000829  -0.001060   0.000032  -0.000062  -0.000537
     3  C    0.013296  -0.011515   0.004279  -0.000651   0.002670   0.000795
     4  C   -0.006047   0.012379  -0.004859   0.001090  -0.001889  -0.001834
     5  O    0.002290  -0.002407   0.000207   0.000106  -0.000020   0.000100
     6  O   -0.001538  -0.001892  -0.000240  -0.001387   0.000245  -0.000177
     7  C   -0.017490   0.015243  -0.002438  -0.000070  -0.000737  -0.002399
     8  C    0.015243  -0.012640  -0.000133   0.000259   0.000046   0.000495
     9  H   -0.002438  -0.000133   0.001061   0.000502   0.000012   0.000382
    10  H   -0.000070   0.000259   0.000502   0.000159   0.000223   0.000225
    11  H   -0.000737   0.000046   0.000012   0.000223   0.000103   0.000051
    12  H   -0.002399   0.000495   0.000382   0.000225   0.000051   0.001351
    13  H    0.001213  -0.000751  -0.000153  -0.000125  -0.000043   0.000119
    14  O    0.000259  -0.000370   0.000081  -0.000016  -0.000021  -0.000020
    15  H   -0.000173   0.000025   0.000093  -0.000016   0.000010   0.000035
              13         14         15
     1  C   -0.000766  -0.092356   0.000473
     2  H    0.000078   0.024308  -0.000369
     3  C   -0.001796   0.000334  -0.001118
     4  C    0.001407   0.006290  -0.001225
     5  O   -0.000033   0.000128  -0.000014
     6  O    0.000039   0.000046  -0.000032
     7  C    0.001213   0.000259  -0.000173
     8  C   -0.000751  -0.000370   0.000025
     9  H   -0.000153   0.000081   0.000093
    10  H   -0.000125  -0.000016  -0.000016
    11  H   -0.000043  -0.000021   0.000010
    12  H    0.000119  -0.000020   0.000035
    13  H   -0.000033   0.000040  -0.000008
    14  O    0.000040   0.745564   0.005247
    15  H   -0.000008   0.005247  -0.032558
 Mulliken charges and spin densities:
               1          2
     1  C   -0.490465   1.356143
     2  H    0.434241  -0.166513
     3  C    0.585342  -0.868764
     4  C   -0.240021   0.156740
     5  O   -0.329358  -0.137038
     6  O   -0.149313  -0.000556
     7  C   -0.211234  -0.005721
     8  C   -0.411520  -0.000954
     9  H    0.136767   0.004763
    10  H    0.177827  -0.000260
    11  H    0.170505   0.000743
    12  H    0.124530   0.002347
    13  H    0.125745  -0.000814
    14  O   -0.205826   0.689513
    15  H    0.282783  -0.029630
 Sum of Mulliken charges =  -0.00000   1.00000
 Mulliken charges and spin densities with hydrogens summed into heavy atoms:
               1          2
     1  C   -0.490465   1.356143
     3  C    0.585342  -0.868764
     4  C   -0.240021   0.156740
     5  O   -0.329358  -0.137038
     6  O   -0.149313  -0.000556
     7  C    0.103359  -0.001218
     8  C    0.009260   0.001323
    14  O    0.511197   0.493370
 Electronic spatial extent (au):  <R**2>=           1401.2016
 Charge=             -0.0000 electrons
 Dipole moment (field-independent basis, Debye):
    X=             -1.8188    Y=             -3.9193    Z=              0.2987  Tot=              4.3311
 Quadrupole moment (field-independent basis, Debye-Ang):
   XX=            -40.6510   YY=            -55.4296   ZZ=            -47.1748
   XY=             -9.0872   XZ=             -5.8909   YZ=             -0.4795
 Traceless Quadrupole moment (field-independent basis, Debye-Ang):
   XX=              7.1008   YY=             -7.6778   ZZ=              0.5770
   XY=             -9.0872   XZ=             -5.8909   YZ=             -0.4795
 Octapole moment (field-independent basis, Debye-Ang**2):
  XXX=            -37.1973  YYY=            -21.5563  ZZZ=             -0.4251  XYY=             -4.6714
  XXY=              7.9559  XXZ=             20.1044  XZZ=              0.1216  YZZ=              1.1126
  YYZ=             -5.5552  XYZ=             -0.9252
 Hexadecapole moment (field-independent basis, Debye-Ang**3):
 XXXX=           -991.3404 YYYY=           -531.0239 ZZZZ=           -108.5211 XXXY=            -84.8294
 XXXZ=            -94.2251 YYYX=             -9.5583 YYYZ=             -5.1860 ZZZX=             -7.4684
 ZZZY=              3.7763 XXYY=           -277.0722 XXZZ=           -200.7492 YYZZ=            -99.2547
 XXYZ=             10.9291 YYXZ=             -4.9740 ZZXY=              1.3389
 N-N= 3.405892138097D+02 E-N=-1.663509095624D+03  KE= 4.176216770431D+02
 1\1\GINC-AJ\SP\UCCSD(T)-FC\6-311++G(d,p)\C5H7O3(2)\AAYUSH\04-May-2025\
 0\\# ccsd(t)/6-311++g(d,p) sp\\Title Card Required\\0,2\C,0,-1.652701,
 -0.313469,-0.044433\H,0,-2.853736,-0.869372,0.011285\C,0,-0.621244,0.3
 18911,-0.035048\C,0,0.653311,1.049053,0.022314\O,0,0.687411,2.197946,0
 .348018\O,0,1.755968,0.380559,-0.317754\C,0,1.713814,-1.026968,-0.6152
 74\C,0,1.767487,-1.851464,0.655322\H,0,0.826027,-1.251755,-1.209113\H,
 0,2.595319,-1.191315,-1.232916\H,0,2.653851,-1.592934,1.236182\H,0,0.8
 81332,-1.682157,1.269133\H,0,1.811439,-2.913261,0.404956\O,0,-3.955483
 ,-0.619662,-0.080702\H,0,-4.069949,0.130366,0.524486\\Version=ES64L-G1
 6RevA.03\State=2-A\HF=-417.9261681\MP2=-419.1997065\MP3=-419.2247631\M
 P4D=-419.2559764\MP4DQ=-419.2307846\PUHF=-417.9506623\PMP2-0=-419.2211
 908\PMP3-0=-419.2412101\MP4SDQ=-419.2535077\CCSD=-419.2607325\CCSD(T)=
 -419.3168037\S2=1.033791\S2-1=0.954643\S2A=0.816722\RMSD=4.522e-09\PG=
 C01 [X(C5H7O3)]\\@


 THE ONLY EXISTING THINGS ARE ATOMS AND EMPTY SPACE;
 ALL ELSE IS MERE OPINION. -- DEMOCRITUS OF ABDERA D. 370 B.C.
 EXPERIMENTS ARE THE ONLY MEANS OF KNOWLEDGE AT OUR DISPOSAL
 THE REST IS POETRY, IMAGINATION. -- MAX PLANCK
 Job cpu time:       0 days 21 hours 32 minutes 39.9 seconds.
 Elapsed time:       0 days  0 hours 54 minutes  2.6 seconds.
 File lengths (MBytes):  RWF=  44258 Int=      0 D2E=      0 Chk=      5 Scr=      1
 Normal termination of Gaussian 16 at Sun May  4 20:05:06 2025.
