 Entering Gaussian System, Link 0=g16
 Initial command:
 /opt/g16/l1.exe "/home/aayush/scratches/g16/Gau-8401.inp" -scrdir="/home/aayush/scratches/g16/"
 Entering Link 1 = /opt/g16/l1.exe PID=      8404.
  
 Copyright (c) 1988,1990,1992,1993,1995,1998,2003,2009,2016,
            Gaussian, Inc.  All Rights Reserved.
  
 This is part of the Gaussian(R) 16 program.  It is based on
 the Gaussian(R) 09 system (copyright 2009, Gaussian, Inc.),
 the Gaussian(R) 03 system (copyright 2003, Gaussian, Inc.),
 the Gaussian(R) 98 system (copyright 1998, Gaussian, Inc.),
 the Gaussian(R) 94 system (copyright 1995, Gaussian, Inc.),
 the Gaussian 92(TM) system (copyright 1992, Gaussian, Inc.),
 the Gaussian 90(TM) system (copyright 1990, Gaussian, Inc.),
 the Gaussian 88(TM) system (copyright 1988, Gaussian, Inc.),
 the Gaussian 86(TM) system (copyright 1986, Carnegie Mellon
 University), and the Gaussian 82(TM) system (copyright 1983,
 Carnegie Mellon University). Gaussian is a federally registered
 trademark of Gaussian, Inc.
  
 This software contains proprietary and confidential information,
 including trade secrets, belonging to Gaussian, Inc.
  
 This software is provided under written license and may be
 used, copied, transmitted, or stored only in accord with that
 written license.
  
 The following legend is applicable only to US Government
 contracts under FAR:
  
                    RESTRICTED RIGHTS LEGEND
  
 Use, reproduction and disclosure by the US Government is
 subject to restrictions as set forth in subparagraphs (a)
 and (c) of the Commercial Computer Software - Restricted
 Rights clause in FAR 52.227-19.
  
 Gaussian, Inc.
 340 Quinnipiac St., Bldg. 40, Wallingford CT 06492
  
  
 ---------------------------------------------------------------
 Warning -- This program may not be used in any manner that
 competes with the business of Gaussian, Inc. or will provide
 assistance to any competitor of Gaussian, Inc.  The licensee
 of this program is prohibited from giving any competitor of
 Gaussian, Inc. access to this program.  By using this program,
 the user acknowledges that Gaussian, Inc. is engaged in the
 business of creating and licensing software in the field of
 computational chemistry and represents and warrants to the
 licensee that it is not a competitor of Gaussian, Inc. and that
 it will not use this program in any manner prohibited above.
 ---------------------------------------------------------------
  

 Cite this work as:
 Gaussian 16, Revision A.03,
 M. J. Frisch, G. W. Trucks, H. B. Schlegel, G. E. Scuseria, 
 M. A. Robb, J. R. Cheeseman, G. Scalmani, V. Barone, 
 G. A. Petersson, H. Nakatsuji, X. Li, M. Caricato, A. V. Marenich, 
 J. Bloino, B. G. Janesko, R. Gomperts, B. Mennucci, H. P. Hratchian, 
 J. V. Ortiz, A. F. Izmaylov, J. L. Sonnenberg, D. Williams-Young, 
 F. Ding, F. Lipparini, F. Egidi, J. Goings, B. Peng, A. Petrone, 
 T. Henderson, D. Ranasinghe, V. G. Zakrzewski, J. Gao, N. Rega, 
 G. Zheng, W. Liang, M. Hada, M. Ehara, K. Toyota, R. Fukuda, 
 J. Hasegawa, M. Ishida, T. Nakajima, Y. Honda, O. Kitao, H. Nakai, 
 T. Vreven, K. Throssell, J. A. Montgomery, Jr., J. E. Peralta, 
 F. Ogliaro, M. J. Bearpark, J. J. Heyd, E. N. Brothers, K. N. Kudin, 
 V. N. Staroverov, T. A. Keith, R. Kobayashi, J. Normand, 
 K. Raghavachari, A. P. Rendell, J. C. Burant, S. S. Iyengar, 
 J. Tomasi, M. Cossi, J. M. Millam, M. Klene, C. Adamo, R. Cammi, 
 J. W. Ochterski, R. L. Martin, K. Morokuma, O. Farkas, 
 J. B. Foresman, and D. J. Fox, Gaussian, Inc., Wallingford CT, 2016.
 
 ******************************************
 Gaussian 16:  ES64L-G16RevA.03 25-Dec-2016
                 7-May-2025 
 ******************************************
 %chk=ethyl_propiolate.chk
 %nprocshared=24
 Will use up to   24 processors via shared memory.
 %mem=12GB
 --------------------------
 # ccsd(t)/6-311++g(d,p) sp
 --------------------------
 1/38=1,172=1/1;
 2/12=2,17=6,18=5,40=1/2;
 3/5=4,6=6,7=1111,11=9,25=1,30=1/1,2,3;
 4//1;
 5/5=2,38=5/2;
 8/6=4,9=120000,10=2/1,4;
 9/5=7,14=2/13;
 6/7=2,8=2,9=2,10=2/1;
 99/5=1,9=1/99;
 -------------------
 Title Card Required
 -------------------
 Symbolic Z-matrix:
 Charge =  0 Multiplicity = 2
 C                     2.46885   1.29465  -0.6724 
 H                     3.09753   2.09271  -0.99288 
 C                     1.76799   0.39146  -0.31133 
 C                     0.98502  -0.75471   0.15066 
 O                     1.49137  -1.78418   0.47478 
 O                    -0.34885  -0.59233   0.19411 
 C                    -0.95845   0.63876  -0.18854 
 C                    -1.10203   1.59058   0.96984 
 H                    -0.46695   1.06244  -1.06613 
 H                    -2.0017    0.32669  -0.53718 
 H                    -1.62401   1.10167   1.79342 
 H                    -0.12082   1.9235    1.31833 
 H                    -1.67619   2.46541   0.6607 
 O                    -3.1644   -0.4775   -0.67999 
 H                    -2.76059  -1.31105  -0.38324 
 
                          Input orientation:                          
 ---------------------------------------------------------------------
 Center     Atomic      Atomic             Coordinates (Angstroms)
 Number     Number       Type             X           Y           Z
 ---------------------------------------------------------------------
      1          6           0        2.468853    1.294647   -0.672402
      2          1           0        3.097530    2.092714   -0.992876
      3          6           0        1.767990    0.391463   -0.311331
      4          6           0        0.985022   -0.754710    0.150655
      5          8           0        1.491367   -1.784179    0.474779
      6          8           0       -0.348845   -0.592334    0.194107
      7          6           0       -0.958450    0.638764   -0.188543
      8          6           0       -1.102028    1.590576    0.969835
      9          1           0       -0.466952    1.062443   -1.066133
     10          1           0       -2.001698    0.326691   -0.537184
     11          1           0       -1.624012    1.101669    1.793416
     12          1           0       -0.120815    1.923497    1.318328
     13          1           0       -1.676187    2.465405    0.660698
     14          8           0       -3.164402   -0.477501   -0.679993
     15          1           0       -2.760590   -1.311054   -0.383239
 ---------------------------------------------------------------------
                    Distance matrix (angstroms):
                    1          2          3          4          5
     1  C    0.000000
     2  H    1.065293   0.000000
     3  C    1.198884   2.264163   0.000000
     4  C    2.660647   3.725342   1.462936   0.000000
     5  O    3.427925   4.445680   2.329787   1.192161   0.000000
     6  O    3.500137   4.527241   2.388371   1.344416   2.210351
     7  C    3.522883   4.383138   2.740385   2.415349   3.508882
     8  C    3.941536   4.662689   3.363965   3.244565   4.284828
     9  H    2.971177   3.711113   2.452531   2.625042   3.783210
    10  H    4.576139   5.415590   3.777003   3.250084   4.204919
    11  H    4.782159   5.571225   4.054631   3.598870   4.446629
    12  H    3.326385   3.965860   2.927542   3.123960   4.130081
    13  H    4.508790   5.065726   4.136234   4.208482   5.303483
    14  O    5.905432   6.776112   5.021902   4.240818   4.971629
    15  H    5.849818   6.802563   4.838571   3.824156   4.363391
                    6          7          8          9         10
     6  O    0.000000
     7  C    1.426058   0.000000
     8  C    2.436008   1.506121   0.000000
     9  H    2.083373   1.091439   2.197137   0.000000
    10  H    2.027638   1.143375   2.162849   1.782292   0.000000
    11  H    2.655840   2.141358   1.090772   3.085020   2.484941
    12  H    2.765009   2.150077   1.093189   2.558687   3.087140
    13  H    3.365904   2.138451   1.091123   2.532291   2.472848
    14  O    2.950356   2.520673   3.354439   3.129979   1.420915
    15  H    2.581937   2.662218   3.605703   3.370550   1.811581
                   11         12         13         14         15
    11  H    0.000000
    12  H    1.777839   0.000000
    13  H    1.773569   1.773506   0.000000
    14  O    3.314262   4.361364   3.559906   0.000000
    15  H    3.442509   4.508443   4.065388   0.972593   0.000000
 Stoichiometry    C5H7O3(2)
 Framework group  C1[X(C5H7O3)]
 Deg. of freedom    39
 Full point group                 C1      NOp   1
 Largest Abelian subgroup         C1      NOp   1
 Largest concise Abelian subgroup C1      NOp   1
                         Standard orientation:                         
 ---------------------------------------------------------------------
 Center     Atomic      Atomic             Coordinates (Angstroms)
 Number     Number       Type             X           Y           Z
 ---------------------------------------------------------------------
      1          6           0        2.515033    1.229937   -0.679923
      2          1           0        3.144342    2.027296   -1.000921
      3          6           0        1.813455    0.327545   -0.318262
      4          6           0        1.029580   -0.817713    0.144456
      5          8           0        1.535095   -1.847448    0.469030
      6          8           0       -0.304139   -0.654166    0.188050
      7          6           0       -0.912750    0.577256   -0.195138
      8          6           0       -1.055311    1.529795    0.962768
      9          1           0       -0.421038    1.000054   -1.073032
     10          1           0       -1.956326    0.265899   -0.543438
     11          1           0       -1.577575    1.041767    1.786693
     12          1           0       -0.073752    1.862053    1.310920
     13          1           0       -1.628770    2.404957    0.653273
     14          8           0       -3.119746   -0.537366   -0.685629
     15          1           0       -2.716600   -1.371111   -0.388509
 ---------------------------------------------------------------------
 Rotational constants (GHZ):           2.7956156           1.2301477           0.9803055
 Standard basis: 6-311++G(d,p) (5D, 7F)
 There are   233 symmetry adapted cartesian basis functions of A   symmetry.
 There are   225 symmetry adapted basis functions of A   symmetry.
   225 basis functions,   351 primitive gaussians,   233 cartesian basis functions
    31 alpha electrons       30 beta electrons
       nuclear repulsion energy       350.4881797186 Hartrees.
 NAtoms=   15 NActive=   15 NUniq=   15 SFac= 1.00D+00 NAtFMM=   60 NAOKFM=F Big=F
 Integral buffers will be    131072 words long.
 Raffenetti 2 integral format.
 Two-electron integral symmetry is turned on.
 One-electron integrals computed using PRISM.
 NBasis=   225 RedAO= T EigKep=  1.50D-06  NBF=   225
 NBsUse=   225 1.00D-06 EigRej= -1.00D+00 NBFU=   225
 ExpMin= 3.60D-02 ExpMax= 8.59D+03 ExpMxC= 1.30D+03 IAcc=3 IRadAn=         5 AccDes= 0.00D+00
 Harris functional with IExCor=  205 and IRadAn=       5 diagonalized for initial guess.
 HarFok:  IExCor=  205 AccDes= 0.00D+00 IRadAn=         5 IDoV= 1 UseB2=F ITyADJ=14
 ICtDFT=  3500011 ScaDFX=  1.000000  1.000000  1.000000  1.000000
 FoFCou: FMM=F IPFlag=           0 FMFlag=      100000 FMFlg1=           0
         NFxFlg=           0 DoJE=T BraDBF=F KetDBF=T FulRan=T
         wScrn=  0.000000 ICntrl=       500 IOpCl=  0 I1Cent=   200000004 NGrid=           0
         NMat0=    1 NMatS0=      1 NMatT0=    0 NMatD0=    1 NMtDS0=    0 NMtDT0=    0
 Petite list used in FoFCou.
 Initial guess <Sx>= 0.0000 <Sy>= 0.0000 <Sz>= 0.5000 <S**2>= 0.7500 S= 0.5000
 Requested convergence on RMS density matrix=1.00D-08 within 128 cycles.
 Requested convergence on MAX density matrix=1.00D-06.
 Requested convergence on             energy=1.00D-06.
 No special actions if energy rises.
 Initial convergence to 1.0D-05 achieved.  Increase integral accuracy.
 Restarting incremental Fock formation.
 SCF Done:  E(UHF) =  -417.965059599     A.U. after   36 cycles
            NFock= 36  Conv=0.77D-08     -V/T= 2.0007
 <Sx>= 0.0000 <Sy>= 0.0000 <Sz>= 0.5000 <S**2>= 0.7682 S= 0.5090
 <L.S>=  0.00000000000    
 Annihilation of the first spin contaminant:
 S**2 before annihilation     0.7682,   after     0.7502
 ExpMin= 3.60D-02 ExpMax= 8.59D+03 ExpMxC= 1.30D+03 IAcc=3 IRadAn=         5 AccDes= 0.00D+00
 HarFok:  IExCor=  205 AccDes= 0.00D+00 IRadAn=         5 IDoV=-2 UseB2=F ITyADJ=14
 ICtDFT= 12500011 ScaDFX=  1.000000  1.000000  1.000000  1.000000
 Range of M.O.s used for correlation:     9   225
 NBasis=   225 NAE=    31 NBE=    30 NFC=     8 NFV=     0
 NROrb=    217 NOA=    23 NOB=    22 NVA=   194 NVB=   195

 **** Warning!!: The largest alpha MO coefficient is  0.21373993D+03


 **** Warning!!: The largest beta MO coefficient is  0.17867997D+03

 Semi-Direct transformation.
 ModeAB=           4 MOrb=            23 LenV=    1609173262
 LASXX=    109339976 LTotXX=   109339976 LenRXX=   221407890
 LTotAB=   112067914 MaxLAS=   129271891 LenRXY=           0
 NonZer=   330747866 LenScr=   498067456 LnRSAI=   129271891
 LnScr1=   194674176 LExtra=           0 Total=   1043421413
 MaxDsk=          -1 SrtSym=           T ITran=            4
 JobTyp=1 Pass  1:  I=   1 to  23.
 (rs|ai) integrals will be sorted in core.
 ModeAB=           4 MOrb=            22 LenV=    1609173262
 LASXX=    104936601 LTotXX=   104936601 LenRXX=   190867446
 LTotAB=    85930845 MaxLAS=   123651374 LenRXY=           0
 NonZer=   295804047 LenScr=   445446144 LnRSAI=   123651374
 LnScr1=   186263040 LExtra=           0 Total=    946228004
 MaxDsk=          -1 SrtSym=           T ITran=            4
 JobTyp=2 Pass  1:  I=   1 to  22.
 (rs|ai) integrals will be sorted in core.
 SymMOI:  orbitals are not symmetric.
 Spin components of T(2) and E(2):
     alpha-alpha T2 =       0.5315886018D-01 E2=     -0.1714404304D+00
     alpha-beta  T2 =       0.2920582898D+00 E2=     -0.9452587248D+00
     beta-beta   T2 =       0.5144986349D-01 E2=     -0.1587310615D+00
 ANorm=    0.1181806673D+01
 E2 =    -0.1275430217D+01 EUMP2 =    -0.41924048981520D+03
 (S**2,0)=  0.76815D+00           (S**2,1)=  0.75571D+00
 E(PUHF)=      -0.41797025241D+03        E(PMP2)=      -0.41924391456D+03
 Keep R2 and R3 ints in memory in canonical form, NReq=652884060.
 CIDS: In Core Option IDoMem=           1.
 Iterations=  50 Convergence= 0.100D-06
 Produce multiple copies of IABC intergrals
 Iteration Nr.   1
 **********************
 DD1Dir will call FoFMem   1 times, MxPair=      1496
 NAB=   506 NAA=   253 NBB=   231.
 E(PMP3)=      -0.41926657861D+03
 MP4(R+Q)=  0.25825791D-01
 E3=       -0.23981471D-01        EUMP3=      -0.41926447129D+03
 E4(DQ)=   -0.55815786D-02        UMP4(DQ)=   -0.41927005287D+03
 E4(SDQ)=  -0.24878818D-01        UMP4(SDQ)=  -0.41928935010D+03
 DE(Corr)=  -1.2728515     E(Corr)=     -419.23791106    
 NORM(A)=   0.11868931D+01
 Iteration Nr.   2
 **********************
 DD1Dir will call FoFMem   1 times, MxPair=      1496
 NAB=   506 NAA=   253 NBB=   231.
 DE(Corr)=  -1.3157483     E(CORR)=     -419.28080790     Delta=-4.29D-02
 NORM(A)=   0.12047806D+01
 Iteration Nr.   3
 **********************
 DD1Dir will call FoFMem   1 times, MxPair=      1496
 NAB=   506 NAA=   253 NBB=   231.
 DE(Corr)=  -1.3169906     E(CORR)=     -419.28205021     Delta=-1.24D-03
 NORM(A)=   0.12113011D+01
 Iteration Nr.   4
 **********************
 DD1Dir will call FoFMem   1 times, MxPair=      1496
 NAB=   506 NAA=   253 NBB=   231.
 DE(Corr)=  -1.3220542     E(CORR)=     -419.28711384     Delta=-5.06D-03
 NORM(A)=   0.12142315D+01
 Iteration Nr.   5
 **********************
 DD1Dir will call FoFMem   1 times, MxPair=      1496
 NAB=   506 NAA=   253 NBB=   231.
 DE(Corr)=  -1.3230033     E(CORR)=     -419.28806291     Delta=-9.49D-04
 NORM(A)=   0.12160308D+01
 Iteration Nr.   6
 **********************
 DD1Dir will call FoFMem   1 times, MxPair=      1496
 NAB=   506 NAA=   253 NBB=   231.
 DE(Corr)=  -1.3233014     E(CORR)=     -419.28836103     Delta=-2.98D-04
 NORM(A)=   0.12165595D+01
 Iteration Nr.   7
 **********************
 DD1Dir will call FoFMem   1 times, MxPair=      1496
 NAB=   506 NAA=   253 NBB=   231.
 DE(Corr)=  -1.3233784     E(CORR)=     -419.28843803     Delta=-7.70D-05
 NORM(A)=   0.12167043D+01
 Iteration Nr.   8
 **********************
 DD1Dir will call FoFMem   1 times, MxPair=      1496
 NAB=   506 NAA=   253 NBB=   231.
 DE(Corr)=  -1.3233661     E(CORR)=     -419.28842572     Delta= 1.23D-05
 NORM(A)=   0.12167800D+01
 Iteration Nr.   9
 **********************
 DD1Dir will call FoFMem   1 times, MxPair=      1496
 NAB=   506 NAA=   253 NBB=   231.
 DE(Corr)=  -1.3233808     E(CORR)=     -419.28844042     Delta=-1.47D-05
 NORM(A)=   0.12167981D+01
 Iteration Nr.  10
 **********************
 DD1Dir will call FoFMem   1 times, MxPair=      1496
 NAB=   506 NAA=   253 NBB=   231.
 DE(Corr)=  -1.3233830     E(CORR)=     -419.28844255     Delta=-2.13D-06
 NORM(A)=   0.12168116D+01
 Iteration Nr.  11
 **********************
 DD1Dir will call FoFMem   1 times, MxPair=      1496
 NAB=   506 NAA=   253 NBB=   231.
 DE(Corr)=  -1.3233928     E(CORR)=     -419.28845245     Delta=-9.89D-06
 NORM(A)=   0.12168255D+01
 Iteration Nr.  12
 **********************
 DD1Dir will call FoFMem   1 times, MxPair=      1496
 NAB=   506 NAA=   253 NBB=   231.
 DE(Corr)=  -1.3233955     E(CORR)=     -419.28845512     Delta=-2.68D-06
 NORM(A)=   0.12168359D+01
 Iteration Nr.  13
 **********************
 DD1Dir will call FoFMem   1 times, MxPair=      1496
 NAB=   506 NAA=   253 NBB=   231.
 DE(Corr)=  -1.3233987     E(CORR)=     -419.28845834     Delta=-3.22D-06
 NORM(A)=   0.12168452D+01
 Iteration Nr.  14
 **********************
 DD1Dir will call FoFMem   1 times, MxPair=      1496
 NAB=   506 NAA=   253 NBB=   231.
 DE(Corr)=  -1.3234006     E(CORR)=     -419.28846017     Delta=-1.83D-06
 NORM(A)=   0.12168537D+01
 Iteration Nr.  15
 **********************
 DD1Dir will call FoFMem   1 times, MxPair=      1496
 NAB=   506 NAA=   253 NBB=   231.
 DE(Corr)=  -1.3234015     E(CORR)=     -419.28846113     Delta=-9.54D-07
 NORM(A)=   0.12168621D+01
 Iteration Nr.  16
 **********************
 DD1Dir will call FoFMem   1 times, MxPair=      1496
 NAB=   506 NAA=   253 NBB=   231.
 DE(Corr)=  -1.3234034     E(CORR)=     -419.28846302     Delta=-1.90D-06
 NORM(A)=   0.12168671D+01
 Iteration Nr.  17
 **********************
 DD1Dir will call FoFMem   1 times, MxPair=      1496
 NAB=   506 NAA=   253 NBB=   231.
 DE(Corr)=  -1.3234035     E(CORR)=     -419.28846305     Delta=-2.49D-08
 NORM(A)=   0.12168677D+01
 Iteration Nr.  18
 **********************
 DD1Dir will call FoFMem   1 times, MxPair=      1496
 NAB=   506 NAA=   253 NBB=   231.
 DE(Corr)=  -1.3234038     E(CORR)=     -419.28846339     Delta=-3.44D-07
 NORM(A)=   0.12168661D+01
 Iteration Nr.  19
 **********************
 DD1Dir will call FoFMem   1 times, MxPair=      1496
 NAB=   506 NAA=   253 NBB=   231.
 DE(Corr)=  -1.3234031     E(CORR)=     -419.28846274     Delta= 6.53D-07
 NORM(A)=   0.12168641D+01
 Iteration Nr.  20
 **********************
 DD1Dir will call FoFMem   1 times, MxPair=      1496
 NAB=   506 NAA=   253 NBB=   231.
 DE(Corr)=  -1.3234027     E(CORR)=     -419.28846229     Delta= 4.53D-07
 NORM(A)=   0.12168627D+01
 Iteration Nr.  21
 **********************
 DD1Dir will call FoFMem   1 times, MxPair=      1496
 NAB=   506 NAA=   253 NBB=   231.
 DE(Corr)=  -1.3234023     E(CORR)=     -419.28846194     Delta= 3.50D-07
 NORM(A)=   0.12168619D+01
 Iteration Nr.  22
 **********************
 DD1Dir will call FoFMem   1 times, MxPair=      1496
 NAB=   506 NAA=   253 NBB=   231.
 DE(Corr)=  -1.3234021     E(CORR)=     -419.28846170     Delta= 2.40D-07
 NORM(A)=   0.12168616D+01
 Iteration Nr.  23
 **********************
 DD1Dir will call FoFMem   1 times, MxPair=      1496
 NAB=   506 NAA=   253 NBB=   231.
 DE(Corr)=  -1.3234021     E(CORR)=     -419.28846169     Delta= 6.49D-09
 NORM(A)=   0.12168617D+01
 Wavefunction amplitudes converged. E(Corr)=     -419.28846169    
 Largest amplitude= 3.35D-02
 Time for triples=    35353.17 seconds.
 T4(CCSD)= -0.57630666D-01
 T5(CCSD)=  0.37239118D-02
 CCSD(T)= -0.41934236845D+03

 S**2, projected HF & approx projected MPn energies after annihilation of
 unwanted spin states (see manual for definitions):

 spins       (S**2,0) (S**2,1)    PUHF        PMP2        PMP3        PMP4
 annihilated
 s+1         0.74988  0.75005 -417.970252 -419.243915 -419.266579
 s+1,s+2     0.75000  0.75000 -417.970224 -419.243889 -419.266556
 s+1 to s+3  0.75000  0.75000 -417.970224 -419.243889 -419.266556
 s+1 to s+4  0.75000  0.75000 -417.970224 -419.243889 -419.266557
 s+1 to s+5  0.75000  0.75000 -417.970224
 s+1 to s+6  0.75000  0.75000 -417.970224

 Discarding MO integrals.

 **********************************************************************

            Population analysis using the SCF density.

 **********************************************************************

 Orbital symmetries:
 Alpha Orbitals:
       Occupied  (A) (A) (A) (A) (A) (A) (A) (A) (A) (A) (A) (A)
                 (A) (A) (A) (A) (A) (A) (A) (A) (A) (A) (A) (A)
                 (A) (A) (A) (A) (A) (A) (A)
       Virtual   (A) (A) (A) (A) (A) (A) (A) (A) (A) (A) (A) (A)
                 (A) (A) (A) (A) (A) (A) (A) (A) (A) (A) (A) (A)
                 (A) (A) (A) (A) (A) (A) (A) (A) (A) (A) (A) (A)
                 (A) (A) (A) (A) (A) (A) (A) (A) (A) (A) (A) (A)
                 (A) (A) (A) (A) (A) (A) (A) (A) (A) (A) (A) (A)
                 (A) (A) (A) (A) (A) (A) (A) (A) (A) (A) (A) (A)
                 (A) (A) (A) (A) (A) (A) (A) (A) (A) (A) (A) (A)
                 (A) (A) (A) (A) (A) (A) (A) (A) (A) (A) (A) (A)
                 (A) (A) (A) (A) (A) (A) (A) (A) (A) (A) (A) (A)
                 (A) (A) (A) (A) (A) (A) (A) (A) (A) (A) (A) (A)
                 (A) (A) (A) (A) (A) (A) (A) (A) (A) (A) (A) (A)
                 (A) (A) (A) (A) (A) (A) (A) (A) (A) (A) (A) (A)
                 (A) (A) (A) (A) (A) (A) (A) (A) (A) (A) (A) (A)
                 (A) (A) (A) (A) (A) (A) (A) (A) (A) (A) (A) (A)
                 (A) (A) (A) (A) (A) (A) (A) (A) (A) (A) (A) (A)
                 (A) (A) (A) (A) (A) (A) (A) (A) (A) (A) (A) (A)
                 (A) (A)
 Beta  Orbitals:
       Occupied  (A) (A) (A) (A) (A) (A) (A) (A) (A) (A) (A) (A)
                 (A) (A) (A) (A) (A) (A) (A) (A) (A) (A) (A) (A)
                 (A) (A) (A) (A) (A) (A)
       Virtual   (A) (A) (A) (A) (A) (A) (A) (A) (A) (A) (A) (A)
                 (A) (A) (A) (A) (A) (A) (A) (A) (A) (A) (A) (A)
                 (A) (A) (A) (A) (A) (A) (A) (A) (A) (A) (A) (A)
                 (A) (A) (A) (A) (A) (A) (A) (A) (A) (A) (A) (A)
                 (A) (A) (A) (A) (A) (A) (A) (A) (A) (A) (A) (A)
                 (A) (A) (A) (A) (A) (A) (A) (A) (A) (A) (A) (A)
                 (A) (A) (A) (A) (A) (A) (A) (A) (A) (A) (A) (A)
                 (A) (A) (A) (A) (A) (A) (A) (A) (A) (A) (A) (A)
                 (A) (A) (A) (A) (A) (A) (A) (A) (A) (A) (A) (A)
                 (A) (A) (A) (A) (A) (A) (A) (A) (A) (A) (A) (A)
                 (A) (A) (A) (A) (A) (A) (A) (A) (A) (A) (A) (A)
                 (A) (A) (A) (A) (A) (A) (A) (A) (A) (A) (A) (A)
                 (A) (A) (A) (A) (A) (A) (A) (A) (A) (A) (A) (A)
                 (A) (A) (A) (A) (A) (A) (A) (A) (A) (A) (A) (A)
                 (A) (A) (A) (A) (A) (A) (A) (A) (A) (A) (A) (A)
                 (A) (A) (A) (A) (A) (A) (A) (A) (A) (A) (A) (A)
                 (A) (A) (A)
 The electronic state is 2-A.
 Alpha  occ. eigenvalues --  -20.64114 -20.62014 -20.56467 -11.42376 -11.30803
 Alpha  occ. eigenvalues --  -11.28055 -11.27273 -11.23447  -1.48531  -1.40621
 Alpha  occ. eigenvalues --   -1.39077  -1.08173  -1.05800  -0.92442  -0.88217
 Alpha  occ. eigenvalues --   -0.77052  -0.74565  -0.73311  -0.69271  -0.67803
 Alpha  occ. eigenvalues --   -0.66956  -0.61216  -0.59106  -0.56891  -0.56304
 Alpha  occ. eigenvalues --   -0.54461  -0.49905  -0.48487  -0.45650  -0.43728
 Alpha  occ. eigenvalues --   -0.43408
 Alpha virt. eigenvalues --    0.03153   0.04736   0.05686   0.06148   0.07350
 Alpha virt. eigenvalues --    0.08172   0.08983   0.09495   0.10362   0.12026
 Alpha virt. eigenvalues --    0.12833   0.13423   0.14940   0.15678   0.15739
 Alpha virt. eigenvalues --    0.16057   0.17281   0.17776   0.18982   0.19450
 Alpha virt. eigenvalues --    0.19810   0.19959   0.20667   0.21736   0.23131
 Alpha virt. eigenvalues --    0.23354   0.24371   0.25828   0.28385   0.29405
 Alpha virt. eigenvalues --    0.30401   0.30705   0.31206   0.32170   0.33273
 Alpha virt. eigenvalues --    0.34277   0.35104   0.36342   0.36912   0.39184
 Alpha virt. eigenvalues --    0.39755   0.40509   0.40679   0.41666   0.42390
 Alpha virt. eigenvalues --    0.43950   0.45230   0.45706   0.47043   0.49122
 Alpha virt. eigenvalues --    0.50715   0.54298   0.57696   0.59057   0.62511
 Alpha virt. eigenvalues --    0.62937   0.64659   0.66280   0.71226   0.71730
 Alpha virt. eigenvalues --    0.75325   0.77441   0.78360   0.79297   0.82720
 Alpha virt. eigenvalues --    0.84594   0.85320   0.85885   0.86329   0.87676
 Alpha virt. eigenvalues --    0.88427   0.90619   0.92922   0.97152   0.99093
 Alpha virt. eigenvalues --    1.02210   1.04720   1.07899   1.15314   1.17605
 Alpha virt. eigenvalues --    1.22628   1.25184   1.26404   1.27771   1.30120
 Alpha virt. eigenvalues --    1.30549   1.34682   1.36668   1.37548   1.39475
 Alpha virt. eigenvalues --    1.40874   1.43408   1.47520   1.49230   1.50802
 Alpha virt. eigenvalues --    1.52632   1.53510   1.56883   1.59621   1.61939
 Alpha virt. eigenvalues --    1.63821   1.68008   1.69509   1.71467   1.77769
 Alpha virt. eigenvalues --    1.81518   1.83042   1.84448   1.85675   1.86788
 Alpha virt. eigenvalues --    1.87985   1.90747   1.93257   1.94585   2.00545
 Alpha virt. eigenvalues --    2.02156   2.03460   2.06784   2.07554   2.11888
 Alpha virt. eigenvalues --    2.16311   2.19626   2.25380   2.28077   2.30711
 Alpha virt. eigenvalues --    2.34454   2.37581   2.42566   2.45932   2.55722
 Alpha virt. eigenvalues --    2.61121   2.70533   2.75859   2.79769   2.80944
 Alpha virt. eigenvalues --    2.83588   2.87121   2.88943   2.91621   2.92677
 Alpha virt. eigenvalues --    2.94124   2.95715   2.97449   3.03143   3.05045
 Alpha virt. eigenvalues --    3.11411   3.13112   3.14875   3.17842   3.24531
 Alpha virt. eigenvalues --    3.26928   3.29685   3.34434   3.35831   3.39353
 Alpha virt. eigenvalues --    3.41146   3.44966   3.45468   3.46403   3.55849
 Alpha virt. eigenvalues --    3.58756   3.67923   3.68517   3.73102   3.77998
 Alpha virt. eigenvalues --    3.78587   3.90313   3.99883   4.12403   4.15963
 Alpha virt. eigenvalues --    4.21664   4.22184   4.29829   4.44295   4.52826
 Alpha virt. eigenvalues --    4.53497   4.70285   5.48456   5.59665   5.61553
 Alpha virt. eigenvalues --    5.62773   5.72963   5.88989   6.01251   6.17593
 Alpha virt. eigenvalues --    6.46794  24.68314  24.98993  25.01204  25.12996
 Alpha virt. eigenvalues --   26.27156  51.51031  51.58701  51.72870
  Beta  occ. eigenvalues --  -20.62053 -20.60189 -20.56473 -11.42352 -11.30022
  Beta  occ. eigenvalues --  -11.28032 -11.27294 -11.23491  -1.48486  -1.39189
  Beta  occ. eigenvalues --   -1.26020  -1.08151  -1.04705  -0.92064  -0.87557
  Beta  occ. eigenvalues --   -0.76222  -0.73788  -0.69735  -0.67287  -0.66062
  Beta  occ. eigenvalues --   -0.62286  -0.58976  -0.56265  -0.54952  -0.52089
  Beta  occ. eigenvalues --   -0.50779  -0.48701  -0.46800  -0.43767  -0.43522
  Beta virt. eigenvalues --    0.03155   0.04407   0.05298   0.05911   0.07146
  Beta virt. eigenvalues --    0.07460   0.08236   0.09278   0.09533   0.10927
  Beta virt. eigenvalues --    0.12039   0.12846   0.13610   0.15079   0.15698
  Beta virt. eigenvalues --    0.15872   0.16068   0.17381   0.17857   0.19056
  Beta virt. eigenvalues --    0.19495   0.19886   0.20316   0.20743   0.21837
  Beta virt. eigenvalues --    0.23181   0.23460   0.24435   0.26043   0.28648
  Beta virt. eigenvalues --    0.29528   0.30762   0.30824   0.31528   0.33012
  Beta virt. eigenvalues --    0.33872   0.34472   0.35217   0.37054   0.37177
  Beta virt. eigenvalues --    0.39513   0.39890   0.40571   0.40792   0.41975
  Beta virt. eigenvalues --    0.42529   0.44327   0.45451   0.45999   0.47347
  Beta virt. eigenvalues --    0.50756   0.52814   0.54554   0.57937   0.59113
  Beta virt. eigenvalues --    0.62571   0.63043   0.64733   0.66446   0.71372
  Beta virt. eigenvalues --    0.72457   0.75587   0.77591   0.78364   0.79476
  Beta virt. eigenvalues --    0.83512   0.85052   0.85550   0.86144   0.86758
  Beta virt. eigenvalues --    0.87914   0.88595   0.90794   0.93016   0.97464
  Beta virt. eigenvalues --    0.99365   1.02415   1.04881   1.08047   1.15436
  Beta virt. eigenvalues --    1.18617   1.23207   1.25963   1.27442   1.29343
  Beta virt. eigenvalues --    1.30473   1.32862   1.36584   1.37552   1.38747
  Beta virt. eigenvalues --    1.40680   1.42280   1.43606   1.47895   1.49403
  Beta virt. eigenvalues --    1.51016   1.53037   1.53709   1.57113   1.59589
  Beta virt. eigenvalues --    1.62431   1.63951   1.69285   1.70270   1.71587
  Beta virt. eigenvalues --    1.80023   1.81837   1.83126   1.85022   1.85884
  Beta virt. eigenvalues --    1.87283   1.88202   1.90997   1.93918   1.94798
  Beta virt. eigenvalues --    2.00839   2.02343   2.03930   2.06919   2.08024
  Beta virt. eigenvalues --    2.12343   2.16889   2.19735   2.25704   2.28271
  Beta virt. eigenvalues --    2.30905   2.35527   2.37723   2.42748   2.46659
  Beta virt. eigenvalues --    2.57281   2.61449   2.70619   2.77570   2.79854
  Beta virt. eigenvalues --    2.80852   2.83557   2.87206   2.88982   2.91861
  Beta virt. eigenvalues --    2.93051   2.94341   2.95921   2.97772   3.03384
  Beta virt. eigenvalues --    3.04984   3.11616   3.13122   3.15663   3.22259
  Beta virt. eigenvalues --    3.25486   3.29686   3.30664   3.35029   3.35882
  Beta virt. eigenvalues --    3.39488   3.41349   3.45321   3.48132   3.54204
  Beta virt. eigenvalues --    3.56762   3.58929   3.68160   3.68729   3.73700
  Beta virt. eigenvalues --    3.78012   3.83319   3.90462   3.99915   4.12677
  Beta virt. eigenvalues --    4.17234   4.21877   4.22332   4.32567   4.44947
  Beta virt. eigenvalues --    4.52995   4.54124   4.70478   5.50798   5.59746
  Beta virt. eigenvalues --    5.61558   5.72947   5.73788   5.89380   6.03699
  Beta virt. eigenvalues --    6.17636   6.46808  24.68316  24.99406  25.01377
  Beta virt. eigenvalues --   25.12980  26.27158  51.53279  51.58690  51.72865
          Condensed to atoms (all electrons):
               1          2          3          4          5          6
     1  C   27.499411   0.892062 -11.968023  -8.383237  -0.147614  -0.010537
     2  H    0.892062   0.408190  -0.418414  -0.092716  -0.004945  -0.003827
     3  C  -11.968023  -0.418414  14.606944   1.915130   0.032686  -0.195271
     4  C   -8.383237  -0.092716   1.915130  12.141544   0.461796   0.104261
     5  O   -0.147614  -0.004945   0.032686   0.461796   8.036419  -0.049753
     6  O   -0.010537  -0.003827  -0.195271   0.104261  -0.049753   8.276993
     7  C   -0.226664  -0.006439   0.096775  -0.093909  -0.004359   0.250834
     8  C    0.126828   0.004300  -0.070110   0.036599   0.004860  -0.131439
     9  H    0.017111  -0.002466   0.028167  -0.059513   0.001119  -0.015805
    10  H   -0.057857  -0.001103   0.029090   0.013683   0.002046  -0.084865
    11  H    0.017162   0.000572  -0.005604  -0.009321   0.000555  -0.006796
    12  H   -0.064772  -0.003599   0.064587   0.011562  -0.000798  -0.010807
    13  H    0.009767   0.000210  -0.004931  -0.008785   0.000339   0.016462
    14  O    0.006188   0.000182  -0.003256   0.000211   0.000320   0.015585
    15  H   -0.004097  -0.000040  -0.009644   0.009854  -0.000808  -0.000310
               7          8          9         10         11         12
     1  C   -0.226664   0.126828   0.017111  -0.057857   0.017162  -0.064772
     2  H   -0.006439   0.004300  -0.002466  -0.001103   0.000572  -0.003599
     3  C    0.096775  -0.070110   0.028167   0.029090  -0.005604   0.064587
     4  C   -0.093909   0.036599  -0.059513   0.013683  -0.009321   0.011562
     5  O   -0.004359   0.004860   0.001119   0.002046   0.000555  -0.000798
     6  O    0.250834  -0.131439  -0.015805  -0.084865  -0.006796  -0.010807
     7  C    5.998559  -0.386054   0.445657   0.406763  -0.059097  -0.013449
     8  C   -0.386054   5.791200  -0.084000  -0.128593   0.442520   0.362558
     9  H    0.445657  -0.084000   0.560437  -0.049289  -0.000250   0.000104
    10  H    0.406763  -0.128593  -0.049289   0.722523  -0.018356   0.023020
    11  H   -0.059097   0.442520  -0.000250  -0.018356   0.540438  -0.050863
    12  H   -0.013449   0.362558   0.000104   0.023020  -0.050863   0.594998
    13  H   -0.060671   0.433274  -0.003830  -0.011714  -0.031617  -0.034609
    14  O    0.012724  -0.000332  -0.004714  -0.083847   0.004373  -0.004893
    15  H    0.027118   0.002418   0.000923  -0.033868  -0.001266   0.000051
              13         14         15
     1  C    0.009767   0.006188  -0.004097
     2  H    0.000210   0.000182  -0.000040
     3  C   -0.004931  -0.003256  -0.009644
     4  C   -0.008785   0.000211   0.009854
     5  O    0.000339   0.000320  -0.000808
     6  O    0.016462   0.015585  -0.000310
     7  C   -0.060671   0.012724   0.027118
     8  C    0.433274  -0.000332   0.002418
     9  H   -0.003830  -0.004714   0.000923
    10  H   -0.011714  -0.083847  -0.033868
    11  H   -0.031617   0.004373  -0.001266
    12  H   -0.034609  -0.004893   0.000051
    13  H    0.557472   0.000273   0.001598
    14  O    0.000273   8.014054   0.292547
    15  H    0.001598   0.292547   0.444671
          Atomic-Atomic Spin Densities.
               1          2          3          4          5          6
     1  C    0.184820   0.010053  -0.125740  -0.039023   0.001089  -0.004764
     2  H    0.010053  -0.000188  -0.007981  -0.002641   0.000082  -0.000284
     3  C   -0.125740  -0.007981   0.085599   0.034385  -0.001458   0.008600
     4  C   -0.039023  -0.002641   0.034385  -0.005397   0.001702   0.004130
     5  O    0.001089   0.000082  -0.001458   0.001702  -0.002050   0.000982
     6  O   -0.004764  -0.000284   0.008600   0.004130   0.000982   0.005138
     7  C   -0.027365  -0.000071  -0.005149   0.024917  -0.000679  -0.047351
     8  C    0.024340   0.000253  -0.006015  -0.018203   0.000753   0.005260
     9  H   -0.008636  -0.000107   0.001065   0.009057  -0.000057   0.001427
    10  H   -0.003983   0.000084  -0.004983   0.000340  -0.001188  -0.008935
    11  H    0.002275  -0.000002   0.000458  -0.001711   0.000142   0.000388
    12  H   -0.008993  -0.000133   0.004148   0.003952  -0.000291   0.000637
    13  H    0.000706  -0.000002  -0.000188  -0.000102  -0.000014   0.000231
    14  O    0.005328   0.000034   0.003666  -0.004233   0.000106   0.023540
    15  H   -0.001225  -0.000018  -0.000687   0.000993  -0.000046  -0.002001
               7          8          9         10         11         12
     1  C   -0.027365   0.024340  -0.008636  -0.003983   0.002275  -0.008993
     2  H   -0.000071   0.000253  -0.000107   0.000084  -0.000002  -0.000133
     3  C   -0.005149  -0.006015   0.001065  -0.004983   0.000458   0.004148
     4  C    0.024917  -0.018203   0.009057   0.000340  -0.001711   0.003952
     5  O   -0.000679   0.000753  -0.000057  -0.001188   0.000142  -0.000291
     6  O   -0.047351   0.005260   0.001427  -0.008935   0.000388   0.000637
     7  C    0.358484  -0.017068  -0.020610   0.056426  -0.003516   0.000843
     8  C   -0.017068  -0.022178   0.005049  -0.008791   0.000024   0.000903
     9  H   -0.020610   0.005049  -0.012868   0.011815   0.000055   0.000037
    10  H    0.056426  -0.008791   0.011815  -0.108912   0.001791  -0.003339
    11  H   -0.003516   0.000024   0.000055   0.001791   0.002652  -0.000805
    12  H    0.000843   0.000903   0.000037  -0.003339  -0.000805   0.013978
    13  H   -0.001073   0.001340   0.000093  -0.001804   0.000173  -0.000238
    14  O   -0.071022   0.018696   0.002228  -0.028823   0.001419  -0.000801
    15  H    0.003587   0.000132   0.000086   0.000039  -0.000050   0.000150
              13         14         15
     1  C    0.000706   0.005328  -0.001225
     2  H   -0.000002   0.000034  -0.000018
     3  C   -0.000188   0.003666  -0.000687
     4  C   -0.000102  -0.004233   0.000993
     5  O   -0.000014   0.000106  -0.000046
     6  O    0.000231   0.023540  -0.002001
     7  C   -0.001073  -0.071022   0.003587
     8  C    0.001340   0.018696   0.000132
     9  H    0.000093   0.002228   0.000086
    10  H   -0.001804  -0.028823   0.000039
    11  H    0.000173   0.001419  -0.000050
    12  H   -0.000238  -0.000801   0.000150
    13  H    0.001362   0.000530   0.000011
    14  O    0.000530   0.948980   0.006331
    15  H    0.000011   0.006331  -0.038783
 Mulliken charges and spin densities:
               1          2
     1  C   -1.705726   0.008880
     2  H    0.228036  -0.000921
     3  C    1.901875  -0.014278
     4  C   -0.047158   0.008165
     5  O   -0.331861  -0.000926
     6  O   -0.154725  -0.013002
     7  C   -0.387788   0.250353
     8  C   -0.404028  -0.015505
     9  H    0.166349  -0.011366
    10  H    0.272367  -0.100264
    11  H    0.177550   0.003293
    12  H    0.126911   0.010048
    13  H    0.136762   0.001024
    14  O   -0.249415   0.905979
    15  H    0.270852  -0.031481
 Sum of Mulliken charges =  -0.00000   1.00000
 Mulliken charges and spin densities with hydrogens summed into heavy atoms:
               1          2
     1  C   -1.477691   0.007958
     3  C    1.901875  -0.014278
     4  C   -0.047158   0.008165
     5  O   -0.331861  -0.000926
     6  O   -0.154725  -0.013002
     7  C    0.050928   0.138723
     8  C    0.037196  -0.001140
    14  O    0.021437   0.874498
 Electronic spatial extent (au):  <R**2>=           1189.2506
 Charge=              0.0000 electrons
 Dipole moment (field-independent basis, Debye):
    X=             -0.0180    Y=              3.6775    Z=             -0.9509  Tot=              3.7985
 Quadrupole moment (field-independent basis, Debye-Ang):
   XX=            -49.5388   YY=            -47.2617   ZZ=            -48.1629
   XY=             11.3444   XZ=             -5.0567   YZ=              0.5060
 Traceless Quadrupole moment (field-independent basis, Debye-Ang):
   XX=             -1.2177   YY=              1.0595   ZZ=              0.1582
   XY=             11.3444   XZ=             -5.0567   YZ=              0.5060
 Octapole moment (field-independent basis, Debye-Ang**2):
  XXX=             12.4557  YYY=              6.0906  ZZZ=              2.5116  XYY=            -12.8157
  XXY=             13.0230  XXZ=             -3.0509  XZZ=             -1.0569  YZZ=             -0.8988
  YYZ=             -9.5472  XYZ=             -4.1737
 Hexadecapole moment (field-independent basis, Debye-Ang**3):
 XXXX=           -982.7853 YYYY=           -411.1965 ZZZZ=           -157.6020 XXXY=            102.9759
 XXXZ=            -39.5239 YYYX=             57.7521 YYYZ=             -1.9043 ZZZX=              4.3967
 ZZZY=             -4.2868 XXYY=           -173.6295 XXZZ=           -190.0572 YYZZ=            -92.6326
 XXYZ=            -17.2685 YYXZ=            -13.0044 ZZXY=              5.3284
 N-N= 3.504881797186D+02 E-N=-1.683468983874D+03  KE= 4.176908136849D+02
 1\1\GINC-AJ\SP\UCCSD(T)-FC\6-311++G(d,p)\C5H7O3(2)\AAYUSH\07-May-2025\
 0\\# ccsd(t)/6-311++g(d,p) sp\\Title Card Required\\0,2\C,0,2.468853,1
 .294647,-0.672402\H,0,3.09753,2.092714,-0.992876\C,0,1.76799,0.391463,
 -0.311331\C,0,0.985022,-0.75471,0.150655\O,0,1.491367,-1.784179,0.4747
 79\O,0,-0.348845,-0.592334,0.194107\C,0,-0.95845,0.638764,-0.188543\C,
 0,-1.102028,1.590576,0.969835\H,0,-0.466952,1.062443,-1.066133\H,0,-2.
 001698,0.326691,-0.537184\H,0,-1.624012,1.101669,1.793416\H,0,-0.12081
 5,1.923497,1.318328\H,0,-1.676187,2.465405,0.660698\O,0,-3.164402,-0.4
 77501,-0.679993\H,0,-2.76059,-1.311054,-0.383239\\Version=ES64L-G16Rev
 A.03\State=2-A\HF=-417.9650596\MP2=-419.2404898\MP3=-419.2644713\MP4D=
 -419.2958787\MP4DQ=-419.2700529\PUHF=-417.9702524\PMP2-0=-419.2439146\
 PMP3-0=-419.2665786\MP4SDQ=-419.2893501\CCSD=-419.2884617\CCSD(T)=-419
 .3423684\S2=0.768153\S2-1=0.755711\S2A=0.750197\RMSD=7.741e-09\PG=C01 
 [X(C5H7O3)]\\@


 BOOKS ARE LIGHTHOUSES ERECTED IN THE GREAT SEA OF TIME.
     -- E.P.WHIPPLE
 Job cpu time:       0 days 18 hours 18 minutes 37.2 seconds.
 Elapsed time:       0 days  0 hours 45 minutes 57.1 seconds.
 File lengths (MBytes):  RWF=  44733 Int=      0 D2E=      0 Chk=      6 Scr=      1
 Normal termination of Gaussian 16 at Wed May  7 06:39:04 2025.
