 Entering Gaussian System, Link 0=g16
 Initial command:
 /opt/g16/l1.exe "/home/aayush/scratches/g16/Gau-4135.inp" -scrdir="/home/aayush/scratches/g16/"
 Entering Link 1 = /opt/g16/l1.exe PID=      4138.
  
 Copyright (c) 1988,1990,1992,1993,1995,1998,2003,2009,2016,
            Gaussian, Inc.  All Rights Reserved.
  
 This is part of the Gaussian(R) 16 program.  It is based on
 the Gaussian(R) 09 system (copyright 2009, Gaussian, Inc.),
 the Gaussian(R) 03 system (copyright 2003, Gaussian, Inc.),
 the Gaussian(R) 98 system (copyright 1998, Gaussian, Inc.),
 the Gaussian(R) 94 system (copyright 1995, Gaussian, Inc.),
 the Gaussian 92(TM) system (copyright 1992, Gaussian, Inc.),
 the Gaussian 90(TM) system (copyright 1990, Gaussian, Inc.),
 the Gaussian 88(TM) system (copyright 1988, Gaussian, Inc.),
 the Gaussian 86(TM) system (copyright 1986, Carnegie Mellon
 University), and the Gaussian 82(TM) system (copyright 1983,
 Carnegie Mellon University). Gaussian is a federally registered
 trademark of Gaussian, Inc.
  
 This software contains proprietary and confidential information,
 including trade secrets, belonging to Gaussian, Inc.
  
 This software is provided under written license and may be
 used, copied, transmitted, or stored only in accord with that
 written license.
  
 The following legend is applicable only to US Government
 contracts under FAR:
  
                    RESTRICTED RIGHTS LEGEND
  
 Use, reproduction and disclosure by the US Government is
 subject to restrictions as set forth in subparagraphs (a)
 and (c) of the Commercial Computer Software - Restricted
 Rights clause in FAR 52.227-19.
  
 Gaussian, Inc.
 340 Quinnipiac St., Bldg. 40, Wallingford CT 06492
  
  
 ---------------------------------------------------------------
 Warning -- This program may not be used in any manner that
 competes with the business of Gaussian, Inc. or will provide
 assistance to any competitor of Gaussian, Inc.  The licensee
 of this program is prohibited from giving any competitor of
 Gaussian, Inc. access to this program.  By using this program,
 the user acknowledges that Gaussian, Inc. is engaged in the
 business of creating and licensing software in the field of
 computational chemistry and represents and warrants to the
 licensee that it is not a competitor of Gaussian, Inc. and that
 it will not use this program in any manner prohibited above.
 ---------------------------------------------------------------
  

 Cite this work as:
 Gaussian 16, Revision A.03,
 M. J. Frisch, G. W. Trucks, H. B. Schlegel, G. E. Scuseria, 
 M. A. Robb, J. R. Cheeseman, G. Scalmani, V. Barone, 
 G. A. Petersson, H. Nakatsuji, X. Li, M. Caricato, A. V. Marenich, 
 J. Bloino, B. G. Janesko, R. Gomperts, B. Mennucci, H. P. Hratchian, 
 J. V. Ortiz, A. F. Izmaylov, J. L. Sonnenberg, D. Williams-Young, 
 F. Ding, F. Lipparini, F. Egidi, J. Goings, B. Peng, A. Petrone, 
 T. Henderson, D. Ranasinghe, V. G. Zakrzewski, J. Gao, N. Rega, 
 G. Zheng, W. Liang, M. Hada, M. Ehara, K. Toyota, R. Fukuda, 
 J. Hasegawa, M. Ishida, T. Nakajima, Y. Honda, O. Kitao, H. Nakai, 
 T. Vreven, K. Throssell, J. A. Montgomery, Jr., J. E. Peralta, 
 F. Ogliaro, M. J. Bearpark, J. J. Heyd, E. N. Brothers, K. N. Kudin, 
 V. N. Staroverov, T. A. Keith, R. Kobayashi, J. Normand, 
 K. Raghavachari, A. P. Rendell, J. C. Burant, S. S. Iyengar, 
 J. Tomasi, M. Cossi, J. M. Millam, M. Klene, C. Adamo, R. Cammi, 
 J. W. Ochterski, R. L. Martin, K. Morokuma, O. Farkas, 
 J. B. Foresman, and D. J. Fox, Gaussian, Inc., Wallingford CT, 2016.
 
 ******************************************
 Gaussian 16:  ES64L-G16RevA.03 25-Dec-2016
                 7-May-2025 
 ******************************************
 %chk=ethyl_propiolate.chk
 %nprocshared=24
 Will use up to   24 processors via shared memory.
 %mem=12GB
 --------------------------
 # ccsd(t)/6-311++g(d,p) sp
 --------------------------
 1/38=1,172=1/1;
 2/12=2,17=6,18=5,40=1/2;
 3/5=4,6=6,7=1111,11=9,25=1,30=1/1,2,3;
 4//1;
 5/5=2,38=5/2;
 8/6=4,9=120000,10=2/1,4;
 9/5=7,14=2/13;
 6/7=2,8=2,9=2,10=2/1;
 99/5=1,9=1/99;
 -------------------
 Title Card Required
 -------------------
 Symbolic Z-matrix:
 Charge =  0 Multiplicity = 2
 C                     2.46863   1.29471  -0.6724 
 H                     3.0974    2.09287  -0.99313 
 C                     1.76762   0.3915   -0.31149 
 C                     0.98772  -0.75546   0.14946 
 O                     1.49068  -1.78392   0.47472 
 O                    -0.35186  -0.58885   0.19394 
 C                    -0.95001   0.63485  -0.1814 
 C                    -1.10839   1.5874    0.96648 
 H                    -0.5246    1.03914  -1.09953 
 H                    -2.26886   0.15223  -0.56353 
 H                    -1.6228    1.10178   1.79679 
 H                    -0.11898   1.91544   1.30813 
 H                    -1.67756   2.46521   0.65925 
 O                    -3.1425   -0.46264  -0.67692 
 H                    -2.77713  -1.30918  -0.38913 
 
                          Input orientation:                          
 ---------------------------------------------------------------------
 Center     Atomic      Atomic             Coordinates (Angstroms)
 Number     Number       Type             X           Y           Z
 ---------------------------------------------------------------------
      1          6           0        2.468632    1.294714   -0.672398
      2          1           0        3.097396    2.092871   -0.993125
      3          6           0        1.767615    0.391498   -0.311494
      4          6           0        0.987723   -0.755457    0.149459
      5          8           0        1.490684   -1.783923    0.474718
      6          8           0       -0.351864   -0.588847    0.193935
      7          6           0       -0.950014    0.634848   -0.181400
      8          6           0       -1.108391    1.587395    0.966475
      9          1           0       -0.524601    1.039144   -1.099525
     10          1           0       -2.268857    0.152231   -0.563525
     11          1           0       -1.622801    1.101776    1.796791
     12          1           0       -0.118975    1.915435    1.308133
     13          1           0       -1.677563    2.465208    0.659253
     14          8           0       -3.142501   -0.462644   -0.676924
     15          1           0       -2.777133   -1.309180   -0.389134
 ---------------------------------------------------------------------
                    Distance matrix (angstroms):
                    1          2          3          4          5
     1  C    0.000000
     2  H    1.065488   0.000000
     3  C    1.198948   2.264422   0.000000
     4  C    2.659275   3.724136   1.461580   0.000000
     5  O    3.427866   4.445854   2.329652   1.190170   0.000000
     6  O    3.500505   4.527485   2.389294   1.350641   2.214053
     7  C    3.516197   4.377928   2.731602   2.407746   3.498278
     8  C    3.945461   4.667353   3.366717   3.248102   4.285184
     9  H    3.034336   3.773662   2.508923   2.658510   3.809110
    10  H    4.874518   5.722527   4.051404   3.455077   4.354399
    11  H    4.782671   5.571908   4.055155   3.602479   4.446226
    12  H    3.317154   3.958827   2.916299   3.114638   4.119567
    13  H    4.509355   5.066480   4.136650   4.211451   5.303485
    14  O    5.879893   6.750330   4.997233   4.222250   4.953631
    15  H    5.863323   6.815339   4.853150   3.843284   4.380169
                    6          7          8          9         10
     6  O    0.000000
     7  C    1.412830   0.000000
     8  C    2.430058   1.500015   0.000000
     9  H    2.086440   1.089672   2.215795   0.000000
    10  H    2.190389   1.455433   2.397348   2.028876   0.000000
    11  H    2.653796   2.141005   1.090811   3.098163   2.624903
    12  H    2.750837   2.132894   1.096943   2.594077   3.351714
    13  H    3.361733   2.141551   1.090366   2.540921   2.682290
    14  O    2.926086   2.501406   3.322804   3.047517   1.074330
    15  H    2.596301   2.675960   3.607287   3.330643   1.557074
                   11         12         13         14         15
    11  H    0.000000
    12  H    1.778291   0.000000
    13  H    1.776496   1.775526   0.000000
    14  O    3.297903   4.328674   3.536061   0.000000
    15  H    3.453036   4.510506   4.068682   0.965888   0.000000
 Stoichiometry    C5H7O3(2)
 Framework group  C1[X(C5H7O3)]
 Deg. of freedom    39
 Full point group                 C1      NOp   1
 Largest Abelian subgroup         C1      NOp   1
 Largest concise Abelian subgroup C1      NOp   1
                         Standard orientation:                         
 ---------------------------------------------------------------------
 Center     Atomic      Atomic             Coordinates (Angstroms)
 Number     Number       Type             X           Y           Z
 ---------------------------------------------------------------------
      1          6           0        2.515832    1.235470   -0.678912
      2          1           0        3.144113    2.033974   -0.999720
      3          6           0        1.815360    0.331867   -0.317920
      4          6           0        1.036161   -0.815530    0.143107
      5          8           0        1.539712   -1.843820    0.468008
      6          8           0       -0.303488   -0.649548    0.188083
      7          6           0       -0.902336    0.573936   -0.186827
      8          6           0       -1.060750    1.526209    0.961270
      9          1           0       -0.477433    0.978590   -1.105031
     10          1           0       -2.221090    0.090776   -0.568573
     11          1           0       -1.574643    1.040206    1.791682
     12          1           0       -0.071365    1.854647    1.302638
     13          1           0       -1.630436    2.403812    0.654403
     14          8           0       -3.094489   -0.524484   -0.681772
     15          1           0       -2.728628   -1.370901   -0.394259
 ---------------------------------------------------------------------
 Rotational constants (GHZ):           2.8071193           1.2330920           0.9832328
 Standard basis: 6-311++G(d,p) (5D, 7F)
 There are   233 symmetry adapted cartesian basis functions of A   symmetry.
 There are   225 symmetry adapted basis functions of A   symmetry.
   225 basis functions,   351 primitive gaussians,   233 cartesian basis functions
    31 alpha electrons       30 beta electrons
       nuclear repulsion energy       350.9050335684 Hartrees.
 NAtoms=   15 NActive=   15 NUniq=   15 SFac= 1.00D+00 NAtFMM=   60 NAOKFM=F Big=F
 Integral buffers will be    131072 words long.
 Raffenetti 2 integral format.
 Two-electron integral symmetry is turned on.
 One-electron integrals computed using PRISM.
 NBasis=   225 RedAO= T EigKep=  1.52D-06  NBF=   225
 NBsUse=   225 1.00D-06 EigRej= -1.00D+00 NBFU=   225
 ExpMin= 3.60D-02 ExpMax= 8.59D+03 ExpMxC= 1.30D+03 IAcc=3 IRadAn=         5 AccDes= 0.00D+00
 Harris functional with IExCor=  205 and IRadAn=       5 diagonalized for initial guess.
 HarFok:  IExCor=  205 AccDes= 0.00D+00 IRadAn=         5 IDoV= 1 UseB2=F ITyADJ=14
 ICtDFT=  3500011 ScaDFX=  1.000000  1.000000  1.000000  1.000000
 FoFCou: FMM=F IPFlag=           0 FMFlag=      100000 FMFlg1=           0
         NFxFlg=           0 DoJE=T BraDBF=F KetDBF=T FulRan=T
         wScrn=  0.000000 ICntrl=       500 IOpCl=  0 I1Cent=   200000004 NGrid=           0
         NMat0=    1 NMatS0=      1 NMatT0=    0 NMatD0=    1 NMtDS0=    0 NMtDT0=    0
 Petite list used in FoFCou.
 Initial guess <Sx>= 0.0000 <Sy>= 0.0000 <Sz>= 0.5000 <S**2>= 0.7500 S= 0.5000
 Requested convergence on RMS density matrix=1.00D-08 within 128 cycles.
 Requested convergence on MAX density matrix=1.00D-06.
 Requested convergence on             energy=1.00D-06.
 No special actions if energy rises.
 Initial convergence to 1.0D-05 achieved.  Increase integral accuracy.
 Restarting incremental Fock formation.
 SCF Done:  E(UHF) =  -417.961465897     A.U. after   32 cycles
            NFock= 32  Conv=0.37D-08     -V/T= 2.0009
 <Sx>= 0.0000 <Sy>= 0.0000 <Sz>= 0.5000 <S**2>= 0.7750 S= 0.5124
 <L.S>=  0.00000000000    
 Annihilation of the first spin contaminant:
 S**2 before annihilation     0.7750,   after     0.7504
 ExpMin= 3.60D-02 ExpMax= 8.59D+03 ExpMxC= 1.30D+03 IAcc=3 IRadAn=         5 AccDes= 0.00D+00
 HarFok:  IExCor=  205 AccDes= 0.00D+00 IRadAn=         5 IDoV=-2 UseB2=F ITyADJ=14
 ICtDFT= 12500011 ScaDFX=  1.000000  1.000000  1.000000  1.000000
 Range of M.O.s used for correlation:     9   225
 NBasis=   225 NAE=    31 NBE=    30 NFC=     8 NFV=     0
 NROrb=    217 NOA=    23 NOB=    22 NVA=   194 NVB=   195

 **** Warning!!: The largest alpha MO coefficient is  0.19022569D+03


 **** Warning!!: The largest beta MO coefficient is  0.21879526D+03

 Semi-Direct transformation.
 ModeAB=           4 MOrb=            23 LenV=    1609173322
 LASXX=    109339976 LTotXX=   109339976 LenRXX=   221407890
 LTotAB=   112067914 MaxLAS=   129361729 LenRXY=           0
 NonZer=   330747866 LenScr=   498067456 LnRSAI=   129361729
 LnScr1=   194816000 LExtra=           0 Total=   1043653075
 MaxDsk=          -1 SrtSym=           T ITran=            4
 JobTyp=1 Pass  1:  I=   1 to  23.
 (rs|ai) integrals will be sorted in core.
 ModeAB=           4 MOrb=            22 LenV=    1609173322
 LASXX=    104936601 LTotXX=   104936601 LenRXX=   190867446
 LTotAB=    85930845 MaxLAS=   123737306 LenRXY=           0
 NonZer=   295804047 LenScr=   445446144 LnRSAI=   123737306
 LnScr1=   186366464 LExtra=           0 Total=    946417360
 MaxDsk=          -1 SrtSym=           T ITran=            4
 JobTyp=2 Pass  1:  I=   1 to  22.
 (rs|ai) integrals will be sorted in core.
 SymMOI:  orbitals are not symmetric.
 Spin components of T(2) and E(2):
     alpha-alpha T2 =       0.5478195958D-01 E2=     -0.1746841600D+00
     alpha-beta  T2 =       0.2970758051D+00 E2=     -0.9584071620D+00
     beta-beta   T2 =       0.5338852809D-01 E2=     -0.1654567670D+00
 ANorm=    0.1185430847D+01
 E2 =    -0.1298548089D+01 EUMP2 =    -0.41926001398618D+03
 (S**2,0)=  0.77504D+00           (S**2,1)=  0.75808D+00
 E(PUHF)=      -0.41796735762D+03        E(PMP2)=      -0.41926392688D+03
 Keep R2 and R3 ints in memory in canonical form, NReq=652884060.
 CIDS: In Core Option IDoMem=           1.
 Iterations=  50 Convergence= 0.100D-06
 Produce multiple copies of IABC intergrals
 Iteration Nr.   1
 **********************
 DD1Dir will call FoFMem   1 times, MxPair=      1496
 NAB=   506 NAA=   253 NBB=   231.
 E(PMP3)=      -0.41927757489D+03
 MP4(R+Q)=  0.25957625D-01
 E3=       -0.15375693D-01        EUMP3=      -0.41927538968D+03
 E4(DQ)=   -0.63690759D-02        UMP4(DQ)=   -0.41928175875D+03
 E4(SDQ)=  -0.26487386D-01        UMP4(SDQ)=  -0.41930187706D+03
 DE(Corr)=  -1.2871534     E(Corr)=     -419.24861931    
 NORM(A)=   0.11883593D+01
 Iteration Nr.   2
 **********************
 DD1Dir will call FoFMem   1 times, MxPair=      1496
 NAB=   506 NAA=   253 NBB=   231.
 DE(Corr)=  -1.3312291     E(CORR)=     -419.29269501     Delta=-4.41D-02
 NORM(A)=   0.12062131D+01
 Iteration Nr.   3
 **********************
 DD1Dir will call FoFMem   1 times, MxPair=      1496
 NAB=   506 NAA=   253 NBB=   231.
 DE(Corr)=  -1.3321155     E(CORR)=     -419.29358141     Delta=-8.86D-04
 NORM(A)=   0.12119320D+01
 Iteration Nr.   4
 **********************
 DD1Dir will call FoFMem   1 times, MxPair=      1496
 NAB=   506 NAA=   253 NBB=   231.
 DE(Corr)=  -1.3368609     E(CORR)=     -419.29832681     Delta=-4.75D-03
 NORM(A)=   0.12137790D+01
 Iteration Nr.   5
 **********************
 DD1Dir will call FoFMem   1 times, MxPair=      1496
 NAB=   506 NAA=   253 NBB=   231.
 DE(Corr)=  -1.3375144     E(CORR)=     -419.29898031     Delta=-6.53D-04
 NORM(A)=   0.12145230D+01
 Iteration Nr.   6
 **********************
 DD1Dir will call FoFMem   1 times, MxPair=      1496
 NAB=   506 NAA=   253 NBB=   231.
 DE(Corr)=  -1.3376305     E(CORR)=     -419.29909643     Delta=-1.16D-04
 NORM(A)=   0.12146673D+01
 Iteration Nr.   7
 **********************
 DD1Dir will call FoFMem   1 times, MxPair=      1496
 NAB=   506 NAA=   253 NBB=   231.
 DE(Corr)=  -1.3376466     E(CORR)=     -419.29911253     Delta=-1.61D-05
 NORM(A)=   0.12146713D+01
 Iteration Nr.   8
 **********************
 DD1Dir will call FoFMem   1 times, MxPair=      1496
 NAB=   506 NAA=   253 NBB=   231.
 DE(Corr)=  -1.3376426     E(CORR)=     -419.29910847     Delta= 4.05D-06
 NORM(A)=   0.12146939D+01
 Iteration Nr.   9
 **********************
 DD1Dir will call FoFMem   1 times, MxPair=      1496
 NAB=   506 NAA=   253 NBB=   231.
 DE(Corr)=  -1.3376390     E(CORR)=     -419.29910493     Delta= 3.54D-06
 NORM(A)=   0.12146964D+01
 Iteration Nr.  10
 **********************
 DD1Dir will call FoFMem   1 times, MxPair=      1496
 NAB=   506 NAA=   253 NBB=   231.
 DE(Corr)=  -1.3376426     E(CORR)=     -419.29910851     Delta=-3.58D-06
 NORM(A)=   0.12147003D+01
 Iteration Nr.  11
 **********************
 DD1Dir will call FoFMem   1 times, MxPair=      1496
 NAB=   506 NAA=   253 NBB=   231.
 DE(Corr)=  -1.3376442     E(CORR)=     -419.29911013     Delta=-1.61D-06
 NORM(A)=   0.12147046D+01
 Iteration Nr.  12
 **********************
 DD1Dir will call FoFMem   1 times, MxPair=      1496
 NAB=   506 NAA=   253 NBB=   231.
 DE(Corr)=  -1.3376462     E(CORR)=     -419.29911214     Delta=-2.02D-06
 NORM(A)=   0.12147070D+01
 Iteration Nr.  13
 **********************
 DD1Dir will call FoFMem   1 times, MxPair=      1496
 NAB=   506 NAA=   253 NBB=   231.
 DE(Corr)=  -1.3376469     E(CORR)=     -419.29911282     Delta=-6.77D-07
 NORM(A)=   0.12147086D+01
 Iteration Nr.  14
 **********************
 DD1Dir will call FoFMem   1 times, MxPair=      1496
 NAB=   506 NAA=   253 NBB=   231.
 DE(Corr)=  -1.3376475     E(CORR)=     -419.29911340     Delta=-5.76D-07
 NORM(A)=   0.12147092D+01
 Iteration Nr.  15
 **********************
 DD1Dir will call FoFMem   1 times, MxPair=      1496
 NAB=   506 NAA=   253 NBB=   231.
 DE(Corr)=  -1.3376476     E(CORR)=     -419.29911345     Delta=-5.37D-08
 NORM(A)=   0.12147093D+01
 Wavefunction amplitudes converged. E(Corr)=     -419.29911345    
 Largest amplitude= 2.74D-02
 Time for triples=    37365.04 seconds.
 T4(CCSD)= -0.59036611D-01
 T5(CCSD)=  0.37131892D-02
 CCSD(T)= -0.41935443687D+03

 S**2, projected HF & approx projected MPn energies after annihilation of
 unwanted spin states (see manual for definitions):

 spins       (S**2,0) (S**2,1)    PUHF        PMP2        PMP3        PMP4
 annihilated
 s+1         0.74979  0.75008 -417.967358 -419.263927 -419.277575
 s+1,s+2     0.75000  0.75000 -417.967318 -419.263890 -419.277542
 s+1 to s+3  0.75000  0.75000 -417.967318 -419.263890 -419.277542
 s+1 to s+4  0.75000  0.75000 -417.967318 -419.263889 -419.277539
 s+1 to s+5  0.75000  0.75000 -417.967318
 s+1 to s+6  0.75000  0.75000 -417.967318

 Discarding MO integrals.

 **********************************************************************

            Population analysis using the SCF density.

 **********************************************************************

 Orbital symmetries:
 Alpha Orbitals:
       Occupied  (A) (A) (A) (A) (A) (A) (A) (A) (A) (A) (A) (A)
                 (A) (A) (A) (A) (A) (A) (A) (A) (A) (A) (A) (A)
                 (A) (A) (A) (A) (A) (A) (A)
       Virtual   (A) (A) (A) (A) (A) (A) (A) (A) (A) (A) (A) (A)
                 (A) (A) (A) (A) (A) (A) (A) (A) (A) (A) (A) (A)
                 (A) (A) (A) (A) (A) (A) (A) (A) (A) (A) (A) (A)
                 (A) (A) (A) (A) (A) (A) (A) (A) (A) (A) (A) (A)
                 (A) (A) (A) (A) (A) (A) (A) (A) (A) (A) (A) (A)
                 (A) (A) (A) (A) (A) (A) (A) (A) (A) (A) (A) (A)
                 (A) (A) (A) (A) (A) (A) (A) (A) (A) (A) (A) (A)
                 (A) (A) (A) (A) (A) (A) (A) (A) (A) (A) (A) (A)
                 (A) (A) (A) (A) (A) (A) (A) (A) (A) (A) (A) (A)
                 (A) (A) (A) (A) (A) (A) (A) (A) (A) (A) (A) (A)
                 (A) (A) (A) (A) (A) (A) (A) (A) (A) (A) (A) (A)
                 (A) (A) (A) (A) (A) (A) (A) (A) (A) (A) (A) (A)
                 (A) (A) (A) (A) (A) (A) (A) (A) (A) (A) (A) (A)
                 (A) (A) (A) (A) (A) (A) (A) (A) (A) (A) (A) (A)
                 (A) (A) (A) (A) (A) (A) (A) (A) (A) (A) (A) (A)
                 (A) (A) (A) (A) (A) (A) (A) (A) (A) (A) (A) (A)
                 (A) (A)
 Beta  Orbitals:
       Occupied  (A) (A) (A) (A) (A) (A) (A) (A) (A) (A) (A) (A)
                 (A) (A) (A) (A) (A) (A) (A) (A) (A) (A) (A) (A)
                 (A) (A) (A) (A) (A) (A)
       Virtual   (A) (A) (A) (A) (A) (A) (A) (A) (A) (A) (A) (A)
                 (A) (A) (A) (A) (A) (A) (A) (A) (A) (A) (A) (A)
                 (A) (A) (A) (A) (A) (A) (A) (A) (A) (A) (A) (A)
                 (A) (A) (A) (A) (A) (A) (A) (A) (A) (A) (A) (A)
                 (A) (A) (A) (A) (A) (A) (A) (A) (A) (A) (A) (A)
                 (A) (A) (A) (A) (A) (A) (A) (A) (A) (A) (A) (A)
                 (A) (A) (A) (A) (A) (A) (A) (A) (A) (A) (A) (A)
                 (A) (A) (A) (A) (A) (A) (A) (A) (A) (A) (A) (A)
                 (A) (A) (A) (A) (A) (A) (A) (A) (A) (A) (A) (A)
                 (A) (A) (A) (A) (A) (A) (A) (A) (A) (A) (A) (A)
                 (A) (A) (A) (A) (A) (A) (A) (A) (A) (A) (A) (A)
                 (A) (A) (A) (A) (A) (A) (A) (A) (A) (A) (A) (A)
                 (A) (A) (A) (A) (A) (A) (A) (A) (A) (A) (A) (A)
                 (A) (A) (A) (A) (A) (A) (A) (A) (A) (A) (A) (A)
                 (A) (A) (A) (A) (A) (A) (A) (A) (A) (A) (A) (A)
                 (A) (A) (A) (A) (A) (A) (A) (A) (A) (A) (A) (A)
                 (A) (A) (A)
 The electronic state is 2-A.
 Alpha  occ. eigenvalues --  -20.64115 -20.57992 -20.56127 -11.44001 -11.35009
 Alpha  occ. eigenvalues --  -11.29388 -11.28449 -11.25540  -1.50482  -1.41185
 Alpha  occ. eigenvalues --   -1.34066  -1.09518  -1.08269  -0.94378  -0.89882
 Alpha  occ. eigenvalues --   -0.78691  -0.75323  -0.73841  -0.69623  -0.68938
 Alpha  occ. eigenvalues --   -0.63307  -0.61048  -0.59417  -0.58530  -0.56024
 Alpha  occ. eigenvalues --   -0.50942  -0.50005  -0.49786  -0.45363  -0.44911
 Alpha  occ. eigenvalues --   -0.41688
 Alpha virt. eigenvalues --    0.02612   0.04460   0.05393   0.06268   0.06735
 Alpha virt. eigenvalues --    0.07729   0.08877   0.09158   0.10390   0.11486
 Alpha virt. eigenvalues --    0.12486   0.13020   0.14457   0.14978   0.15405
 Alpha virt. eigenvalues --    0.15447   0.16787   0.17343   0.18384   0.18916
 Alpha virt. eigenvalues --    0.19220   0.19931   0.20293   0.21106   0.22590
 Alpha virt. eigenvalues --    0.22942   0.23561   0.25389   0.28397   0.28887
 Alpha virt. eigenvalues --    0.29898   0.30568   0.30943   0.33083   0.33634
 Alpha virt. eigenvalues --    0.34000   0.34769   0.36691   0.37795   0.38695
 Alpha virt. eigenvalues --    0.39253   0.39953   0.39979   0.41079   0.41960
 Alpha virt. eigenvalues --    0.43624   0.44428   0.44959   0.46121   0.48978
 Alpha virt. eigenvalues --    0.49801   0.54159   0.56288   0.57709   0.61418
 Alpha virt. eigenvalues --    0.62463   0.63768   0.65573   0.69825   0.72185
 Alpha virt. eigenvalues --    0.74136   0.75981   0.77113   0.78363   0.81134
 Alpha virt. eigenvalues --    0.82847   0.83798   0.84550   0.84909   0.85940
 Alpha virt. eigenvalues --    0.86933   0.88167   0.91435   0.95295   0.97571
 Alpha virt. eigenvalues --    1.00876   1.03724   1.06242   1.14146   1.17847
 Alpha virt. eigenvalues --    1.21575   1.25528   1.27881   1.28879   1.29772
 Alpha virt. eigenvalues --    1.31582   1.35605   1.35761   1.36056   1.38710
 Alpha virt. eigenvalues --    1.39786   1.42049   1.46572   1.47899   1.49152
 Alpha virt. eigenvalues --    1.51236   1.52428   1.55189   1.60741   1.61855
 Alpha virt. eigenvalues --    1.63205   1.67412   1.67933   1.69688   1.76871
 Alpha virt. eigenvalues --    1.78781   1.81121   1.82488   1.83081   1.84731
 Alpha virt. eigenvalues --    1.86322   1.87503   1.88509   1.90526   1.95849
 Alpha virt. eigenvalues --    1.99667   2.02448   2.04518   2.05928   2.10571
 Alpha virt. eigenvalues --    2.13321   2.17576   2.18546   2.24535   2.28305
 Alpha virt. eigenvalues --    2.34251   2.36649   2.40665   2.42515   2.50763
 Alpha virt. eigenvalues --    2.57500   2.68949   2.72757   2.78806   2.80684
 Alpha virt. eigenvalues --    2.84456   2.85894   2.87350   2.89877   2.90348
 Alpha virt. eigenvalues --    2.93125   2.93876   2.95711   3.00435   3.04545
 Alpha virt. eigenvalues --    3.11628   3.13192   3.14418   3.20391   3.24145
 Alpha virt. eigenvalues --    3.28269   3.31786   3.34579   3.37982   3.38991
 Alpha virt. eigenvalues --    3.44031   3.44877   3.51963   3.53942   3.56743
 Alpha virt. eigenvalues --    3.62268   3.67203   3.67382   3.72105   3.76756
 Alpha virt. eigenvalues --    3.86250   3.90439   3.98623   4.11893   4.17312
 Alpha virt. eigenvalues --    4.19122   4.20378   4.35386   4.44922   4.48564
 Alpha virt. eigenvalues --    4.51629   4.66065   5.54055   5.58773   5.60244
 Alpha virt. eigenvalues --    5.71664   5.86520   5.96144   6.15397   6.21812
 Alpha virt. eigenvalues --    6.44415  24.67005  24.89668  24.99126  25.10434
 Alpha virt. eigenvalues --   26.25933  51.56667  51.60309  51.71351
  Beta  occ. eigenvalues --  -20.64109 -20.58003 -20.54659 -11.43869 -11.32501
  Beta  occ. eigenvalues --  -11.29324 -11.28500 -11.25679  -1.50105  -1.40867
  Beta  occ. eigenvalues --   -1.29455  -1.09406  -1.04972  -0.93177  -0.88019
  Beta  occ. eigenvalues --   -0.77178  -0.74983  -0.70095  -0.68708  -0.65720
  Beta  occ. eigenvalues --   -0.61537  -0.60116  -0.57904  -0.56527  -0.53409
  Beta  occ. eigenvalues --   -0.50349  -0.49469  -0.48109  -0.45022  -0.44827
  Beta virt. eigenvalues --    0.02622   0.04271   0.05231   0.05663   0.06560
  Beta virt. eigenvalues --    0.06855   0.07798   0.08957   0.09379   0.10852
  Beta virt. eigenvalues --    0.11546   0.12618   0.13053   0.14520   0.15045
  Beta virt. eigenvalues --    0.15437   0.15487   0.16914   0.17426   0.18483
  Beta virt. eigenvalues --    0.19005   0.19437   0.20081   0.20410   0.21469
  Beta virt. eigenvalues --    0.22652   0.23041   0.23902   0.25741   0.28554
  Beta virt. eigenvalues --    0.28990   0.30251   0.30700   0.31263   0.33584
  Beta virt. eigenvalues --    0.34133   0.34617   0.35749   0.37235   0.38114
  Beta virt. eigenvalues --    0.39003   0.39694   0.40045   0.40575   0.41226
  Beta virt. eigenvalues --    0.42263   0.44047   0.44649   0.45701   0.46791
  Beta virt. eigenvalues --    0.49991   0.52648   0.54249   0.57410   0.57935
  Beta virt. eigenvalues --    0.61567   0.63058   0.64079   0.66346   0.70346
  Beta virt. eigenvalues --    0.72832   0.75601   0.76579   0.77363   0.79866
  Beta virt. eigenvalues --    0.82069   0.84026   0.84294   0.84979   0.85470
  Beta virt. eigenvalues --    0.86760   0.87221   0.88600   0.91780   0.96016
  Beta virt. eigenvalues --    0.98398   1.01329   1.04231   1.06554   1.14253
  Beta virt. eigenvalues --    1.19621   1.22798   1.25892   1.28133   1.30030
  Beta virt. eigenvalues --    1.30300   1.33544   1.35847   1.36071   1.37074
  Beta virt. eigenvalues --    1.39448   1.40083   1.42147   1.46767   1.48266
  Beta virt. eigenvalues --    1.49638   1.51661   1.52799   1.55605   1.61292
  Beta virt. eigenvalues --    1.62125   1.63380   1.68885   1.69070   1.70056
  Beta virt. eigenvalues --    1.78817   1.80675   1.81323   1.83146   1.84321
  Beta virt. eigenvalues --    1.85028   1.86477   1.87902   1.89078   1.91149
  Beta virt. eigenvalues --    1.97345   1.99916   2.02515   2.04948   2.06000
  Beta virt. eigenvalues --    2.10853   2.14012   2.17787   2.19597   2.25418
  Beta virt. eigenvalues --    2.28505   2.35256   2.37191   2.41281   2.43426
  Beta virt. eigenvalues --    2.52968   2.57985   2.69257   2.74861   2.79053
  Beta virt. eigenvalues --    2.80854   2.84365   2.86208   2.87483   2.90140
  Beta virt. eigenvalues --    2.90753   2.93870   2.94188   2.96086   3.00638
  Beta virt. eigenvalues --    3.04819   3.11688   3.12384   3.14539   3.20900
  Beta virt. eigenvalues --    3.24292   3.28392   3.32515   3.34590   3.38081
  Beta virt. eigenvalues --    3.39137   3.44389   3.47886   3.52923   3.55582
  Beta virt. eigenvalues --    3.57013   3.64216   3.67541   3.68030   3.72540
  Beta virt. eigenvalues --    3.76803   3.87815   3.91849   3.98767   4.12019
  Beta virt. eigenvalues --    4.18220   4.19602   4.20633   4.36445   4.45815
  Beta virt. eigenvalues --    4.50193   4.52104   4.66735   5.54708   5.59164
  Beta virt. eigenvalues --    5.60225   5.71674   5.86692   5.98220   6.15523
  Beta virt. eigenvalues --    6.24070   6.44510  24.67020  24.91478  24.99233
  Beta virt. eigenvalues --   25.10339  26.25941  51.56698  51.61169  51.71347
          Condensed to atoms (all electrons):
               1          2          3          4          5          6
     1  C   28.337942   0.892769 -12.472718  -8.770218  -0.122856  -0.029544
     2  H    0.892769   0.405516  -0.423247  -0.090847  -0.004773  -0.003907
     3  C  -12.472718  -0.423247  15.070574   1.958348   0.032088  -0.195606
     4  C   -8.770218  -0.090847   1.958348  12.555404   0.440908   0.114607
     5  O   -0.122856  -0.004773   0.032088   0.440908   8.012805  -0.049772
     6  O   -0.029544  -0.003907  -0.195606   0.114607  -0.049772   8.242387
     7  C   -0.343109  -0.009964   0.190358  -0.104202  -0.007523   0.160554
     8  C    0.164879   0.006872  -0.121837   0.053939   0.006045  -0.121101
     9  H    0.034856  -0.003672   0.041822  -0.097279   0.002037  -0.022824
    10  H   -0.016868  -0.000205   0.017485  -0.001800   0.001071  -0.007319
    11  H    0.008432   0.000580  -0.006654   0.001681   0.000244  -0.004140
    12  H   -0.051980  -0.003582   0.059205   0.004559  -0.001066  -0.012409
    13  H    0.004398   0.000256  -0.005269  -0.002021   0.000343   0.016786
    14  O    0.004233   0.000189  -0.006348   0.008905   0.000619   0.021523
    15  H   -0.002405  -0.000036  -0.007758   0.007657  -0.000466   0.005301
               7          8          9         10         11         12
     1  C   -0.343109   0.164879   0.034856  -0.016868   0.008432  -0.051980
     2  H   -0.009964   0.006872  -0.003672  -0.000205   0.000580  -0.003582
     3  C    0.190358  -0.121837   0.041822   0.017485  -0.006654   0.059205
     4  C   -0.104202   0.053939  -0.097279  -0.001800   0.001681   0.004559
     5  O   -0.007523   0.006045   0.002037   0.001071   0.000244  -0.001066
     6  O    0.160554  -0.121101  -0.022824  -0.007319  -0.004140  -0.012409
     7  C    6.691223  -0.551705   0.456274   0.016925  -0.086019   0.022659
     8  C   -0.551705   5.884739  -0.121727  -0.046536   0.460872   0.333351
     9  H    0.456274  -0.121727   0.546877  -0.017009  -0.004877   0.003219
    10  H    0.016925  -0.046536  -0.017009   0.509059  -0.006479   0.007970
    11  H   -0.086019   0.460872  -0.004877  -0.006479   0.510650  -0.050191
    12  H    0.022659   0.333351   0.003219   0.007970  -0.050191   0.589374
    13  H   -0.076652   0.443553  -0.005753  -0.005772  -0.025544  -0.036161
    14  O    0.009646  -0.000177  -0.013791   0.232679   0.000506  -0.004467
    15  H    0.011849   0.004227  -0.000442  -0.057346  -0.001452   0.000397
              13         14         15
     1  C    0.004398   0.004233  -0.002405
     2  H    0.000256   0.000189  -0.000036
     3  C   -0.005269  -0.006348  -0.007758
     4  C   -0.002021   0.008905   0.007657
     5  O    0.000343   0.000619  -0.000466
     6  O    0.016786   0.021523   0.005301
     7  C   -0.076652   0.009646   0.011849
     8  C    0.443553  -0.000177   0.004227
     9  H   -0.005753  -0.013791  -0.000442
    10  H   -0.005772   0.232679  -0.057346
    11  H   -0.025544   0.000506  -0.001452
    12  H   -0.036161  -0.004467   0.000397
    13  H    0.538472  -0.000027   0.001529
    14  O   -0.000027   7.935011   0.327034
    15  H    0.001529   0.327034   0.452391
          Atomic-Atomic Spin Densities.
               1          2          3          4          5          6
     1  C    0.805845   0.030230  -0.516839  -0.235193  -0.007083   0.009409
     2  H    0.030230   0.000882  -0.026135  -0.006155  -0.000091  -0.000111
     3  C   -0.516839  -0.026135   0.391988   0.110993   0.001950   0.007386
     4  C   -0.235193  -0.006155   0.110993   0.110061   0.009167  -0.003669
     5  O   -0.007083  -0.000091   0.001950   0.009167  -0.005241   0.001732
     6  O    0.009409  -0.000111   0.007386  -0.003669   0.001732   0.082912
     7  C   -0.118662  -0.001512   0.007620   0.075370  -0.000846  -0.221128
     8  C    0.065481   0.001142  -0.023196  -0.036324  -0.000338   0.034719
     9  H   -0.001374   0.000350  -0.007041   0.012657  -0.000241   0.013810
    10  H   -0.002120   0.000044  -0.003495   0.003412  -0.000638  -0.008653
    11  H    0.006566   0.000132  -0.000826  -0.003426   0.000218   0.005862
    12  H   -0.037834  -0.001107   0.019764   0.014845  -0.000158  -0.004943
    13  H    0.002006   0.000014  -0.000624  -0.000710  -0.000064   0.000079
    14  O    0.005063   0.000055   0.002706  -0.002868   0.000181   0.027700
    15  H   -0.001000  -0.000015  -0.000549   0.000316  -0.000066  -0.004618
               7          8          9         10         11         12
     1  C   -0.118662   0.065481  -0.001374  -0.002120   0.006566  -0.037834
     2  H   -0.001512   0.001142   0.000350   0.000044   0.000132  -0.001107
     3  C    0.007620  -0.023196  -0.007041  -0.003495  -0.000826   0.019764
     4  C    0.075370  -0.036324   0.012657   0.003412  -0.003426   0.014845
     5  O   -0.000846  -0.000338  -0.000241  -0.000638   0.000218  -0.000158
     6  O   -0.221128   0.034719   0.013810  -0.008653   0.005862  -0.004943
     7  C    1.495236  -0.148936  -0.061383   0.064761  -0.026213   0.007098
     8  C   -0.148936  -0.044023   0.018423   0.001009   0.015950   0.001320
     9  H   -0.061383   0.018423  -0.034339   0.011824   0.001447  -0.004341
    10  H    0.064761   0.001009   0.011824  -0.196880   0.002159  -0.003124
    11  H   -0.026213   0.015950   0.001447   0.002159   0.018243  -0.010394
    12  H    0.007098   0.001320  -0.004341  -0.003124  -0.010394   0.076447
    13  H   -0.001653   0.005508  -0.000029  -0.000996   0.000036  -0.002361
    14  O   -0.126690   0.016550   0.002740   0.025796   0.002586  -0.001685
    15  H    0.012106  -0.001707  -0.000512   0.004054  -0.000389   0.000319
              13         14         15
     1  C    0.002006   0.005063  -0.001000
     2  H    0.000014   0.000055  -0.000015
     3  C   -0.000624   0.002706  -0.000549
     4  C   -0.000710  -0.002868   0.000316
     5  O   -0.000064   0.000181  -0.000066
     6  O    0.000079   0.027700  -0.004618
     7  C   -0.001653  -0.126690   0.012106
     8  C    0.005508   0.016550  -0.001707
     9  H   -0.000029   0.002740  -0.000512
    10  H   -0.000996   0.025796   0.004054
    11  H    0.000036   0.002586  -0.000389
    12  H   -0.002361  -0.001685   0.000319
    13  H    0.002728   0.000573  -0.000014
    14  O    0.000573   0.326835  -0.004408
    15  H   -0.000014  -0.004408  -0.012195
 Mulliken charges and spin densities:
               1          2
     1  C   -1.637810   0.004496
     2  H    0.234050  -0.002275
     3  C    1.869554  -0.036298
     4  C   -0.079641   0.048475
     5  O   -0.309701  -0.001517
     6  O   -0.114536  -0.059515
     7  C   -0.380314   0.955169
     8  C   -0.395393  -0.094423
     9  H    0.202288  -0.048009
    10  H    0.374144  -0.102848
    11  H    0.202390   0.011949
    12  H    0.139122   0.053846
    13  H    0.151862   0.004493
    14  O   -0.515535   0.275134
    15  H    0.259520  -0.008679
 Sum of Mulliken charges =  -0.00000   1.00000
 Mulliken charges and spin densities with hydrogens summed into heavy atoms:
               1          2
     1  C   -1.403761   0.002220
     3  C    1.869554  -0.036298
     4  C   -0.079641   0.048475
     5  O   -0.309701  -0.001517
     6  O   -0.114536  -0.059515
     7  C   -0.178026   0.907161
     8  C    0.097980  -0.024134
    14  O    0.118129   0.163607
 Electronic spatial extent (au):  <R**2>=           1194.1158
 Charge=              0.0000 electrons
 Dipole moment (field-independent basis, Debye):
    X=              2.4699    Y=              4.8354    Z=             -0.3277  Tot=              5.4396
 Quadrupole moment (field-independent basis, Debye-Ang):
   XX=            -58.2579   YY=            -46.4110   ZZ=            -47.8802
   XY=              8.1194   XZ=             -7.3576   YZ=              0.0349
 Traceless Quadrupole moment (field-independent basis, Debye-Ang):
   XX=             -7.4082   YY=              4.4387   ZZ=              2.9695
   XY=              8.1194   XZ=             -7.3576   YZ=              0.0349
 Octapole moment (field-independent basis, Debye-Ang**2):
  XXX=             53.1922  YYY=              8.4116  ZZZ=              4.1584  XYY=             -9.9274
  XXY=             23.2904  XXZ=              4.9792  XZZ=              1.1395  YZZ=              0.7626
  YYZ=             -8.1543  XYZ=             -2.8543
 Hexadecapole moment (field-independent basis, Debye-Ang**3):
 XXXX=          -1126.5519 YYYY=           -401.5431 ZZZZ=           -155.5563 XXXY=             70.2549
 XXXZ=            -72.1725 YYYX=             51.6730 YYYZ=             -1.5807 ZZZX=             -0.5418
 ZZZY=             -4.3355 XXYY=           -178.1283 XXZZ=           -197.8236 YYZZ=            -90.5421
 XXYZ=            -24.1594 YYXZ=            -15.8942 ZZXY=              2.1328
 N-N= 3.509050335684D+02 E-N=-1.683774773582D+03  KE= 4.175661621247D+02
 1\1\GINC-AJ\SP\UCCSD(T)-FC\6-311++G(d,p)\C5H7O3(2)\AAYUSH\07-May-2025\
 0\\# ccsd(t)/6-311++g(d,p) sp\\Title Card Required\\0,2\C,0,2.468632,1
 .294714,-0.672398\H,0,3.097396,2.092871,-0.993125\C,0,1.767615,0.39149
 8,-0.311494\C,0,0.987723,-0.755457,0.149459\O,0,1.490684,-1.783923,0.4
 74718\O,0,-0.351864,-0.588847,0.193935\C,0,-0.950014,0.634848,-0.1814\
 C,0,-1.108391,1.587395,0.966475\H,0,-0.524601,1.039144,-1.099525\H,0,-
 2.268857,0.152231,-0.563525\H,0,-1.622801,1.101776,1.796791\H,0,-0.118
 975,1.915435,1.308133\H,0,-1.677563,2.465208,0.659253\O,0,-3.142501,-0
 .462644,-0.676924\H,0,-2.777133,-1.30918,-0.389134\\Version=ES64L-G16R
 evA.03\State=2-A\HF=-417.9614659\MP2=-419.260014\MP3=-419.2753897\MP4D
 =-419.3077164\MP4DQ=-419.2817588\PUHF=-417.9673576\PMP2-0=-419.2639269
 \PMP3-0=-419.2775749\MP4SDQ=-419.3018771\CCSD=-419.2991134\CCSD(T)=-41
 9.3544369\S2=0.775043\S2-1=0.758076\S2A=0.75036\RMSD=3.695e-09\PG=C01 
 [X(C5H7O3)]\\@


 LIFE IS SO UNCERTAIN - EAT DESSERT FIRST.
 Job cpu time:       0 days 16 hours  8 minutes 32.4 seconds.
 Elapsed time:       0 days  0 hours 40 minutes 37.4 seconds.
 File lengths (MBytes):  RWF=  44733 Int=      0 D2E=      0 Chk=      6 Scr=      1
 Normal termination of Gaussian 16 at Wed May  7 17:08:28 2025.
