 Entering Gaussian System, Link 0=g16
 Initial command:
 /opt/g16/l1.exe "/home/aayush/Research/Transition_states/Abstraction/ts8_irc_points/Gau-13361.inp" -scrdir="/home/aayush/Research/Transition_states/Abstraction/ts8_irc_points/"
 Entering Link 1 = /opt/g16/l1.exe PID=     13364.
  
 Copyright (c) 1988,1990,1992,1993,1995,1998,2003,2009,2016,
            Gaussian, Inc.  All Rights Reserved.
  
 This is part of the Gaussian(R) 16 program.  It is based on
 the Gaussian(R) 09 system (copyright 2009, Gaussian, Inc.),
 the Gaussian(R) 03 system (copyright 2003, Gaussian, Inc.),
 the Gaussian(R) 98 system (copyright 1998, Gaussian, Inc.),
 the Gaussian(R) 94 system (copyright 1995, Gaussian, Inc.),
 the Gaussian 92(TM) system (copyright 1992, Gaussian, Inc.),
 the Gaussian 90(TM) system (copyright 1990, Gaussian, Inc.),
 the Gaussian 88(TM) system (copyright 1988, Gaussian, Inc.),
 the Gaussian 86(TM) system (copyright 1986, Carnegie Mellon
 University), and the Gaussian 82(TM) system (copyright 1983,
 Carnegie Mellon University). Gaussian is a federally registered
 trademark of Gaussian, Inc.
  
 This software contains proprietary and confidential information,
 including trade secrets, belonging to Gaussian, Inc.
  
 This software is provided under written license and may be
 used, copied, transmitted, or stored only in accord with that
 written license.
  
 The following legend is applicable only to US Government
 contracts under FAR:
  
                    RESTRICTED RIGHTS LEGEND
  
 Use, reproduction and disclosure by the US Government is
 subject to restrictions as set forth in subparagraphs (a)
 and (c) of the Commercial Computer Software - Restricted
 Rights clause in FAR 52.227-19.
  
 Gaussian, Inc.
 340 Quinnipiac St., Bldg. 40, Wallingford CT 06492
  
  
 ---------------------------------------------------------------
 Warning -- This program may not be used in any manner that
 competes with the business of Gaussian, Inc. or will provide
 assistance to any competitor of Gaussian, Inc.  The licensee
 of this program is prohibited from giving any competitor of
 Gaussian, Inc. access to this program.  By using this program,
 the user acknowledges that Gaussian, Inc. is engaged in the
 business of creating and licensing software in the field of
 computational chemistry and represents and warrants to the
 licensee that it is not a competitor of Gaussian, Inc. and that
 it will not use this program in any manner prohibited above.
 ---------------------------------------------------------------
  

 Cite this work as:
 Gaussian 16, Revision A.03,
 M. J. Frisch, G. W. Trucks, H. B. Schlegel, G. E. Scuseria, 
 M. A. Robb, J. R. Cheeseman, G. Scalmani, V. Barone, 
 G. A. Petersson, H. Nakatsuji, X. Li, M. Caricato, A. V. Marenich, 
 J. Bloino, B. G. Janesko, R. Gomperts, B. Mennucci, H. P. Hratchian, 
 J. V. Ortiz, A. F. Izmaylov, J. L. Sonnenberg, D. Williams-Young, 
 F. Ding, F. Lipparini, F. Egidi, J. Goings, B. Peng, A. Petrone, 
 T. Henderson, D. Ranasinghe, V. G. Zakrzewski, J. Gao, N. Rega, 
 G. Zheng, W. Liang, M. Hada, M. Ehara, K. Toyota, R. Fukuda, 
 J. Hasegawa, M. Ishida, T. Nakajima, Y. Honda, O. Kitao, H. Nakai, 
 T. Vreven, K. Throssell, J. A. Montgomery, Jr., J. E. Peralta, 
 F. Ogliaro, M. J. Bearpark, J. J. Heyd, E. N. Brothers, K. N. Kudin, 
 V. N. Staroverov, T. A. Keith, R. Kobayashi, J. Normand, 
 K. Raghavachari, A. P. Rendell, J. C. Burant, S. S. Iyengar, 
 J. Tomasi, M. Cossi, J. M. Millam, M. Klene, C. Adamo, R. Cammi, 
 J. W. Ochterski, R. L. Martin, K. Morokuma, O. Farkas, 
 J. B. Foresman, and D. J. Fox, Gaussian, Inc., Wallingford CT, 2016.
 
 ******************************************
 Gaussian 16:  ES64L-G16RevA.03 25-Dec-2016
                29-Mar-2025 
 ******************************************
 %chk=ethyl_propiolate.chk
 %nprocshared=24
 Will use up to   24 processors via shared memory.
 %mem=12GB
 --------------------------
 # freq 6-311++g(d,p) m062x
 --------------------------
 1/10=4,30=1,38=1/1,3;
 2/12=2,17=6,18=5,40=1/2;
 3/5=4,6=6,7=1111,11=2,25=1,30=1,71=2,74=-55,140=1/1,2,3;
 4//1;
 5/5=2,38=5,98=1/2;
 8/6=4,10=90,11=11/1;
 11/6=1,8=1,9=11,15=111,16=1/1,2,10;
 10/6=1/2;
 6/7=2,8=2,9=2,10=2,28=1/1;
 7/8=1,10=1,25=1/1,2,3,16;
 1/10=4,30=1/3;
 99//99;
 -------------------
 Title Card Required
 -------------------
 Symbolic Z-matrix:
 Charge =  0 Multiplicity = 2
 C                    -1.65413  -0.31391  -0.04385 
 H                    -2.77603  -0.85272   0.00325 
 C                    -0.62225   0.31754  -0.03506 
 C                     0.6525    1.04901   0.02221 
 O                     0.68749   2.19795   0.34804 
 O                     1.75589   0.38052  -0.31776 
 C                     1.71382  -1.02692  -0.61527 
 C                     1.76749  -1.85147   0.65532 
 H                     0.82607  -1.25186  -1.20907 
 H                     2.59538  -1.19138  -1.23285 
 H                     2.65385  -1.59291   1.23619 
 H                     0.88132  -1.68205   1.26908 
 H                     1.81146  -2.9133    0.40501 
 O                    -3.9577   -0.61947  -0.08051 
 H                    -4.07356   0.13341   0.52333 
 

 GradGradGradGradGradGradGradGradGradGradGradGradGradGradGradGradGradGrad
 Berny optimization.
 Initialization pass.
 Trust Radius=3.00D-01 FncErr=1.00D-07 GrdErr=1.00D-07 EigMax=2.50D+02 EigMin=1.00D-04
 Number of steps in this run=      2 maximum allowed number of steps=      2.
 GradGradGradGradGradGradGradGradGradGradGradGradGradGradGradGradGradGrad

                          Input orientation:                          
 ---------------------------------------------------------------------
 Center     Atomic      Atomic             Coordinates (Angstroms)
 Number     Number       Type             X           Y           Z
 ---------------------------------------------------------------------
      1          6           0       -1.654133   -0.313913   -0.043846
      2          1           0       -2.776026   -0.852720    0.003248
      3          6           0       -0.622248    0.317541   -0.035059
      4          6           0        0.652498    1.049007    0.022209
      5          8           0        0.687486    2.197946    0.348040
      6          8           0        1.755887    0.380516   -0.317756
      7          6           0        1.713816   -1.026923   -0.615270
      8          6           0        1.767486   -1.851474    0.655324
      9          1           0        0.826072   -1.251855   -1.209067
     10          1           0        2.595379   -1.191380   -1.232852
     11          1           0        2.653845   -1.592908    1.236194
     12          1           0        0.881320   -1.682054    1.269081
     13          1           0        1.811457   -2.913302    0.405010
     14          8           0       -3.957695   -0.619474   -0.080514
     15          1           0       -4.073559    0.133408    0.523329
 ---------------------------------------------------------------------
                    Distance matrix (angstroms):
                    1          2          3          4          5
     1  C    0.000000
     2  H    1.245462   0.000000
     3  C    1.209793   2.451477   0.000000
     4  C    2.680011   3.920676   1.470816   0.000000
     5  O    3.456326   4.628322   2.323379   1.194760   0.000000
     6  O    3.490773   4.707669   2.395706   1.334138   2.210841
     7  C    3.489698   4.535592   2.757068   2.417077   3.518679
     8  C    3.815810   4.697469   3.300316   3.171249   4.202217
     9  H    2.896358   3.821535   2.436992   2.615365   3.787468
    10  H    4.499115   5.522194   3.750290   3.220140   4.198429
    11  H    4.672580   5.617075   3.999836   3.529712   4.361876
    12  H    3.166087   3.958069   2.821326   3.010937   3.992529
    13  H    4.355297   5.045038   4.068775   4.146036   5.233681
    14  O    2.324029   1.207378   3.464862   4.903903   5.449699
    15  H    2.524957   1.710709   3.501036   4.839944   5.192359
                    6          7          8          9         10
     6  O    0.000000
     7  C    1.439156   0.000000
     8  C    2.434912   1.515643   0.000000
     9  H    2.079333   1.091457   2.172960   0.000000
    10  H    2.003248   1.088856   2.164795   1.770500   0.000000
    11  H    2.667488   2.152188   1.090825   3.071868   2.502165
    12  H    2.745381   2.161718   1.091188   2.515818   3.072202
    13  H    3.372642   2.146842   1.091819   2.517267   2.502427
    14  O    5.805281   5.711218   5.902286   4.955599   6.678154
    15  H    5.894992   6.011363   6.170493   5.378339   7.022391
                   11         12         13         14         15
    11  H    0.000000
    12  H    1.775070   0.000000
    13  H    1.773112   1.768543   0.000000
    14  O    6.811296   5.134837   6.227399   0.000000
    15  H    6.981856   5.329435   6.627960   0.972050   0.000000
 Stoichiometry    C5H7O3(2)
 Framework group  C1[X(C5H7O3)]
 Deg. of freedom    39
 Full point group                 C1      NOp   1
 Largest Abelian subgroup         C1      NOp   1
 Largest concise Abelian subgroup C1      NOp   1
                         Standard orientation:                         
 ---------------------------------------------------------------------
 Center     Atomic      Atomic             Coordinates (Angstroms)
 Number     Number       Type             X           Y           Z
 ---------------------------------------------------------------------
      1          6           0       -1.669201   -0.241403   -0.051443
      2          1           0       -2.789971   -0.782505   -0.003920
      3          6           0       -0.638615    0.392175   -0.043085
      4          6           0        0.634637    1.126278    0.013664
      5          8           0        0.667344    2.275372    0.339184
      6          8           0        1.739313    0.459969   -0.326407
      7          6           0        1.700062   -0.947632   -0.623540
      8          6           0        1.755753   -1.771736    0.647257
      9          1           0        0.812631   -1.174547   -1.217051
     10          1           0        2.581804   -1.110438   -1.241304
     11          1           0        2.641726   -1.511194    1.227832
     12          1           0        0.869397   -1.603978    1.261196
     13          1           0        1.801845   -2.833537    0.397211
     14          8           0       -3.972139   -0.551713   -0.087441
     15          1           0       -4.089398    0.201088    0.516233
 ---------------------------------------------------------------------
 Rotational constants (GHZ):           2.6278526           1.0390559           0.7911925
 Standard basis: 6-311++G(d,p) (5D, 7F)
 There are   233 symmetry adapted cartesian basis functions of A   symmetry.
 There are   225 symmetry adapted basis functions of A   symmetry.
   225 basis functions,   351 primitive gaussians,   233 cartesian basis functions
    31 alpha electrons       30 beta electrons
       nuclear repulsion energy       340.5508059025 Hartrees.
 NAtoms=   15 NActive=   15 NUniq=   15 SFac= 1.00D+00 NAtFMM=   60 NAOKFM=F Big=F
 Integral buffers will be    131072 words long.
 Raffenetti 2 integral format.
 Two-electron integral symmetry is turned on.
 One-electron integrals computed using PRISM.
 NBasis=   225 RedAO= T EigKep=  1.77D-05  NBF=   225
 NBsUse=   224 1.00D-06 EigRej=  8.29D-07 NBFU=   224
 ExpMin= 3.60D-02 ExpMax= 8.59D+03 ExpMxC= 1.30D+03 IAcc=3 IRadAn=         5 AccDes= 0.00D+00
 Harris functional with IExCor= 1009 and IRadAn=       5 diagonalized for initial guess.
 HarFok:  IExCor= 1009 AccDes= 0.00D+00 IRadAn=         5 IDoV= 1 UseB2=F ITyADJ=14
 ICtDFT=  3500011 ScaDFX=  1.000000  1.000000  1.000000  1.000000
 FoFCou: FMM=F IPFlag=           0 FMFlag=      100000 FMFlg1=           0
         NFxFlg=           0 DoJE=T BraDBF=F KetDBF=T FulRan=T
         wScrn=  0.000000 ICntrl=       500 IOpCl=  0 I1Cent=   200000004 NGrid=           0
         NMat0=    1 NMatS0=      1 NMatT0=    0 NMatD0=    1 NMtDS0=    0 NMtDT0=    0
 Petite list used in FoFCou.
 Initial guess <Sx>= 0.0000 <Sy>= 0.0000 <Sz>= 0.5000 <S**2>= 0.7500 S= 0.5000
 Requested convergence on RMS density matrix=1.00D-08 within 128 cycles.
 Requested convergence on MAX density matrix=1.00D-06.
 Requested convergence on             energy=1.00D-06.
 No special actions if energy rises.
 Restarting incremental Fock formation.
 SCF Done:  E(UM062X) =  -420.170878570     A.U. after   22 cycles
            NFock= 22  Conv=0.51D-08     -V/T= 2.0033
 <Sx>= 0.0000 <Sy>= 0.0000 <Sz>= 0.5000 <S**2>= 0.7593 S= 0.5047
 <L.S>=  0.00000000000    
 Annihilation of the first spin contaminant:
 S**2 before annihilation     0.7593,   after     0.7501
 DoSCS=F DFT=T ScalE2(SS,OS)=  1.000000  1.000000
 Range of M.O.s used for correlation:     1   224
 NBasis=   225 NAE=    31 NBE=    30 NFC=     0 NFV=     0
 NROrb=    224 NOA=    31 NOB=    30 NVA=   193 NVB=   194

 **** Warning!!: The largest alpha MO coefficient is  0.67461010D+02


 **** Warning!!: The largest beta MO coefficient is  0.65450209D+02

 Symmetrizing basis deriv contribution to polar:
 IMax=3 JMax=2 DiffMx= 0.00D+00
 G2DrvN: will do    16 centers at a time, making    1 passes.
 Calling FoFCou, ICntrl=  3107 FMM=F I1Cent=   0 AccDes= 0.00D+00.
 End of G2Drv F.D. properties file   721 does not exist.
 End of G2Drv F.D. properties file   722 does not exist.
 End of G2Drv F.D. properties file   788 does not exist.
          IDoAtm=111111111111111
          Differentiating once with respect to electric field.
                with respect to dipole field.
          Differentiating once with respect to nuclear coordinates.
 Keep R1 and R2 ints in memory in canonical form, NReq=671901989.
          There are    48 degrees of freedom in the 1st order CPHF.  IDoFFX=6 NUNeed=     3.
     45 vectors produced by pass  0 Test12= 2.46D-14 2.08D-09 XBig12= 1.23D+02 4.63D+00.
 AX will form    45 AO Fock derivatives at one time.
     45 vectors produced by pass  1 Test12= 2.46D-14 2.08D-09 XBig12= 2.60D+01 1.08D+00.
     45 vectors produced by pass  2 Test12= 2.46D-14 2.08D-09 XBig12= 1.44D+00 1.66D-01.
     45 vectors produced by pass  3 Test12= 2.46D-14 2.08D-09 XBig12= 2.18D-02 1.53D-02.
     45 vectors produced by pass  4 Test12= 2.46D-14 2.08D-09 XBig12= 3.15D-04 3.75D-03.
     45 vectors produced by pass  5 Test12= 2.46D-14 2.08D-09 XBig12= 4.02D-06 2.25D-04.
     38 vectors produced by pass  6 Test12= 2.46D-14 2.08D-09 XBig12= 2.62D-08 1.43D-05.
     21 vectors produced by pass  7 Test12= 2.46D-14 2.08D-09 XBig12= 2.30D-10 1.65D-06.
      5 vectors produced by pass  8 Test12= 2.46D-14 2.08D-09 XBig12= 1.94D-12 1.12D-07.
      2 vectors produced by pass  9 Test12= 2.46D-14 2.08D-09 XBig12= 1.49D-14 1.26D-08.
 InvSVY:  IOpt=1 It=  1 EMax= 5.33D-15
 Solved reduced A of dimension   336 with    48 vectors.
 Isotropic polarizability for W=    0.000000       80.85 Bohr**3.
 End of Minotr F.D. properties file   721 does not exist.
 End of Minotr F.D. properties file   722 does not exist.
 End of Minotr F.D. properties file   788 does not exist.

 **********************************************************************

            Population analysis using the SCF density.

 **********************************************************************

 Orbital symmetries:
 Alpha Orbitals:
       Occupied  (A) (A) (A) (A) (A) (A) (A) (A) (A) (A) (A) (A)
                 (A) (A) (A) (A) (A) (A) (A) (A) (A) (A) (A) (A)
                 (A) (A) (A) (A) (A) (A) (A)
       Virtual   (A) (A) (A) (A) (A) (A) (A) (A) (A) (A) (A) (A)
                 (A) (A) (A) (A) (A) (A) (A) (A) (A) (A) (A) (A)
                 (A) (A) (A) (A) (A) (A) (A) (A) (A) (A) (A) (A)
                 (A) (A) (A) (A) (A) (A) (A) (A) (A) (A) (A) (A)
                 (A) (A) (A) (A) (A) (A) (A) (A) (A) (A) (A) (A)
                 (A) (A) (A) (A) (A) (A) (A) (A) (A) (A) (A) (A)
                 (A) (A) (A) (A) (A) (A) (A) (A) (A) (A) (A) (A)
                 (A) (A) (A) (A) (A) (A) (A) (A) (A) (A) (A) (A)
                 (A) (A) (A) (A) (A) (A) (A) (A) (A) (A) (A) (A)
                 (A) (A) (A) (A) (A) (A) (A) (A) (A) (A) (A) (A)
                 (A) (A) (A) (A) (A) (A) (A) (A) (A) (A) (A) (A)
                 (A) (A) (A) (A) (A) (A) (A) (A) (A) (A) (A) (A)
                 (A) (A) (A) (A) (A) (A) (A) (A) (A) (A) (A) (A)
                 (A) (A) (A) (A) (A) (A) (A) (A) (A) (A) (A) (A)
                 (A) (A) (A) (A) (A) (A) (A) (A) (A) (A) (A) (A)
                 (A) (A) (A) (A) (A) (A) (A) (A) (A) (A) (A) (A)
                 (A)
 Beta  Orbitals:
       Occupied  (A) (A) (A) (A) (A) (A) (A) (A) (A) (A) (A) (A)
                 (A) (A) (A) (A) (A) (A) (A) (A) (A) (A) (A) (A)
                 (A) (A) (A) (A) (A) (A)
       Virtual   (A) (A) (A) (A) (A) (A) (A) (A) (A) (A) (A) (A)
                 (A) (A) (A) (A) (A) (A) (A) (A) (A) (A) (A) (A)
                 (A) (A) (A) (A) (A) (A) (A) (A) (A) (A) (A) (A)
                 (A) (A) (A) (A) (A) (A) (A) (A) (A) (A) (A) (A)
                 (A) (A) (A) (A) (A) (A) (A) (A) (A) (A) (A) (A)
                 (A) (A) (A) (A) (A) (A) (A) (A) (A) (A) (A) (A)
                 (A) (A) (A) (A) (A) (A) (A) (A) (A) (A) (A) (A)
                 (A) (A) (A) (A) (A) (A) (A) (A) (A) (A) (A) (A)
                 (A) (A) (A) (A) (A) (A) (A) (A) (A) (A) (A) (A)
                 (A) (A) (A) (A) (A) (A) (A) (A) (A) (A) (A) (A)
                 (A) (A) (A) (A) (A) (A) (A) (A) (A) (A) (A) (A)
                 (A) (A) (A) (A) (A) (A) (A) (A) (A) (A) (A) (A)
                 (A) (A) (A) (A) (A) (A) (A) (A) (A) (A) (A) (A)
                 (A) (A) (A) (A) (A) (A) (A) (A) (A) (A) (A) (A)
                 (A) (A) (A) (A) (A) (A) (A) (A) (A) (A) (A) (A)
                 (A) (A) (A) (A) (A) (A) (A) (A) (A) (A) (A) (A)
                 (A) (A)
 The electronic state is 2-A.
 Alpha  occ. eigenvalues --  -19.71724 -19.68387 -19.63005 -10.71019 -10.61447
 Alpha  occ. eigenvalues --  -10.59257 -10.58103 -10.54610  -1.25399  -1.19551
 Alpha  occ. eigenvalues --   -1.16849  -0.89711  -0.88699  -0.77551  -0.73986
 Alpha  occ. eigenvalues --   -0.68224  -0.63825  -0.58789  -0.58471  -0.56967
 Alpha  occ. eigenvalues --   -0.53289  -0.49779  -0.47947  -0.47446  -0.46339
 Alpha  occ. eigenvalues --   -0.44572  -0.42547  -0.40012  -0.38856  -0.37538
 Alpha  occ. eigenvalues --   -0.36524
 Alpha virt. eigenvalues --   -0.02327  -0.01046  -0.00134   0.01413   0.01468
 Alpha virt. eigenvalues --    0.03064   0.04296   0.04743   0.05131   0.05878
 Alpha virt. eigenvalues --    0.07185   0.07555   0.08136   0.09427   0.10050
 Alpha virt. eigenvalues --    0.10584   0.11265   0.11404   0.12983   0.13778
 Alpha virt. eigenvalues --    0.14290   0.14355   0.15271   0.15479   0.16294
 Alpha virt. eigenvalues --    0.16705   0.17173   0.17790   0.19241   0.19458
 Alpha virt. eigenvalues --    0.20644   0.21318   0.22681   0.24221   0.25329
 Alpha virt. eigenvalues --    0.25775   0.26548   0.26995   0.28621   0.29751
 Alpha virt. eigenvalues --    0.30703   0.31587   0.32156   0.32860   0.33932
 Alpha virt. eigenvalues --    0.34811   0.35339   0.37021   0.38662   0.39456
 Alpha virt. eigenvalues --    0.40188   0.44934   0.45464   0.46993   0.50022
 Alpha virt. eigenvalues --    0.50961   0.52437   0.55639   0.57274   0.58975
 Alpha virt. eigenvalues --    0.61239   0.63501   0.63897   0.67746   0.68195
 Alpha virt. eigenvalues --    0.68399   0.69651   0.71365   0.71430   0.72298
 Alpha virt. eigenvalues --    0.75185   0.76769   0.77942   0.81772   0.83272
 Alpha virt. eigenvalues --    0.86005   0.90509   0.96413   0.98721   0.99966
 Alpha virt. eigenvalues --    1.02958   1.04274   1.06882   1.07965   1.11529
 Alpha virt. eigenvalues --    1.13420   1.17642   1.18660   1.19761   1.22294
 Alpha virt. eigenvalues --    1.24050   1.27449   1.28499   1.30580   1.31419
 Alpha virt. eigenvalues --    1.34238   1.34905   1.38849   1.41476   1.43075
 Alpha virt. eigenvalues --    1.45593   1.48314   1.50127   1.57656   1.57879
 Alpha virt. eigenvalues --    1.59221   1.60688   1.61617   1.62219   1.65076
 Alpha virt. eigenvalues --    1.67485   1.69549   1.70811   1.72809   1.75091
 Alpha virt. eigenvalues --    1.77203   1.78426   1.80632   1.85264   1.89512
 Alpha virt. eigenvalues --    1.92750   1.96179   1.98772   2.03403   2.05969
 Alpha virt. eigenvalues --    2.10342   2.13337   2.19636   2.29550   2.32481
 Alpha virt. eigenvalues --    2.34423   2.41490   2.48132   2.50596   2.51676
 Alpha virt. eigenvalues --    2.54030   2.54700   2.60119   2.62515   2.63985
 Alpha virt. eigenvalues --    2.65441   2.67279   2.71688   2.73256   2.79572
 Alpha virt. eigenvalues --    2.80579   2.82629   2.89118   2.93628   2.94629
 Alpha virt. eigenvalues --    2.97180   2.99293   3.00693   3.02251   3.09214
 Alpha virt. eigenvalues --    3.11234   3.12773   3.14869   3.19953   3.25081
 Alpha virt. eigenvalues --    3.31202   3.34148   3.41417   3.43398   3.54130
 Alpha virt. eigenvalues --    3.60514   3.65489   3.75681   3.84347   3.84817
 Alpha virt. eigenvalues --    3.85517   3.86858   4.03011   4.11385   4.13367
 Alpha virt. eigenvalues --    4.30643   5.04153   5.15175   5.16255   5.26010
 Alpha virt. eigenvalues --    5.27426   5.42700   5.54437   5.68870   5.98224
 Alpha virt. eigenvalues --   23.50564  23.90910  23.93685  24.04337  24.99540
 Alpha virt. eigenvalues --   49.91368  49.99288  50.12294
  Beta  occ. eigenvalues --  -19.70434 -19.68390 -19.62992 -10.71011 -10.61448
  Beta  occ. eigenvalues --  -10.58655 -10.58020 -10.54610  -1.25390  -1.16823
  Beta  occ. eigenvalues --   -1.14303  -0.88933  -0.88512  -0.77289  -0.73257
  Beta  occ. eigenvalues --   -0.64395  -0.63095  -0.58464  -0.56998  -0.53842
  Beta  occ. eigenvalues --   -0.52997  -0.49771  -0.47448  -0.46222  -0.44254
  Beta  occ. eigenvalues --   -0.42573  -0.39555  -0.38554  -0.37068  -0.36270
  Beta virt. eigenvalues --   -0.16601  -0.01821  -0.00695   0.00039   0.01481
  Beta virt. eigenvalues --    0.01620   0.03118   0.04483   0.04930   0.05604
  Beta virt. eigenvalues --    0.05924   0.07272   0.07682   0.08262   0.09530
  Beta virt. eigenvalues --    0.10221   0.10644   0.11431   0.11734   0.13043
  Beta virt. eigenvalues --    0.13870   0.14390   0.14480   0.15386   0.15571
  Beta virt. eigenvalues --    0.16407   0.16860   0.17151   0.17951   0.19156
  Beta virt. eigenvalues --    0.19563   0.20757   0.21177   0.22822   0.24271
  Beta virt. eigenvalues --    0.25422   0.25931   0.26713   0.27021   0.28798
  Beta virt. eigenvalues --    0.29742   0.30730   0.31674   0.32731   0.32934
  Beta virt. eigenvalues --    0.34130   0.34964   0.35393   0.37043   0.39085
  Beta virt. eigenvalues --    0.39641   0.40243   0.45080   0.45510   0.47716
  Beta virt. eigenvalues --    0.50062   0.50967   0.52616   0.56226   0.57395
  Beta virt. eigenvalues --    0.59214   0.61341   0.63638   0.64301   0.67794
  Beta virt. eigenvalues --    0.68212   0.68422   0.69690   0.71386   0.71482
  Beta virt. eigenvalues --    0.72565   0.75556   0.77082   0.78023   0.82014
  Beta virt. eigenvalues --    0.84256   0.86468   0.90556   0.96582   0.99329
  Beta virt. eigenvalues --    1.00468   1.03732   1.04923   1.07341   1.09396
  Beta virt. eigenvalues --    1.12325   1.14874   1.17839   1.19089   1.20172
  Beta virt. eigenvalues --    1.22379   1.24095   1.27617   1.28917   1.30876
  Beta virt. eigenvalues --    1.31618   1.34664   1.35293   1.39381   1.41558
  Beta virt. eigenvalues --    1.43507   1.46085   1.48821   1.50144   1.57927
  Beta virt. eigenvalues --    1.58114   1.60043   1.60741   1.61874   1.62629
  Beta virt. eigenvalues --    1.65178   1.67913   1.69674   1.71021   1.72830
  Beta virt. eigenvalues --    1.75221   1.77292   1.78427   1.80829   1.85299
  Beta virt. eigenvalues --    1.90112   1.92892   1.96583   1.98843   2.03479
  Beta virt. eigenvalues --    2.06305   2.11071   2.13474   2.19639   2.29595
  Beta virt. eigenvalues --    2.32989   2.34476   2.42300   2.48648   2.50590
  Beta virt. eigenvalues --    2.51724   2.54038   2.54910   2.60271   2.62650
  Beta virt. eigenvalues --    2.63556   2.65125   2.67020   2.72142   2.73336
  Beta virt. eigenvalues --    2.79657   2.81011   2.83424   2.89182   2.93599
  Beta virt. eigenvalues --    2.95755   2.97997   3.00500   3.01723   3.02640
  Beta virt. eigenvalues --    3.09568   3.12521   3.13708   3.15634   3.22709
  Beta virt. eigenvalues --    3.25160   3.31320   3.34525   3.41647   3.43381
  Beta virt. eigenvalues --    3.55207   3.61593   3.67107   3.76207   3.84354
  Beta virt. eigenvalues --    3.85314   3.86687   3.88544   4.03061   4.11720
  Beta virt. eigenvalues --    4.13369   4.30642   5.06749   5.15171   5.16227
  Beta virt. eigenvalues --    5.27491   5.32261   5.42698   5.57109   5.68880
  Beta virt. eigenvalues --    5.98225  23.50828  23.90917  23.93690  24.04337
  Beta virt. eigenvalues --   25.00070  49.90732  49.99290  50.12291
          Condensed to atoms (all electrons):
               1          2          3          4          5          6
     1  C    5.490487   0.184336   0.923635  -0.077190  -0.032385  -0.014075
     2  H    0.184336   0.323612  -0.047033   0.020092  -0.000927  -0.003031
     3  C    0.923635  -0.047033   5.960888  -1.173116  -0.006960  -0.167229
     4  C   -0.077190   0.020092  -1.173116   7.152273   0.359250   0.122311
     5  O   -0.032385  -0.000927  -0.006960   0.359250   8.010573  -0.092234
     6  O   -0.014075  -0.003031  -0.167229   0.122311  -0.092234   8.202150
     7  C   -0.019088   0.000045  -0.116815   0.013457  -0.004652   0.195461
     8  C   -0.002235  -0.000470   0.086577  -0.076089   0.015785  -0.117705
     9  H    0.019992  -0.000864   0.011456  -0.018630  -0.001077  -0.005806
    10  H   -0.002413  -0.000504  -0.001326   0.000502   0.001270  -0.085062
    11  H   -0.001803   0.000346   0.017562  -0.018724   0.000819  -0.005707
    12  H    0.004566  -0.002558   0.026068  -0.014562  -0.000827  -0.013713
    13  H   -0.001101   0.000260  -0.006400   0.000225   0.000309   0.015281
    14  O   -0.000917   0.136869  -0.023147   0.004431   0.000083   0.000426
    15  H    0.028469  -0.040642   0.003362   0.004527  -0.000080   0.000221
               7          8          9         10         11         12
     1  C   -0.019088  -0.002235   0.019992  -0.002413  -0.001803   0.004566
     2  H    0.000045  -0.000470  -0.000864  -0.000504   0.000346  -0.002558
     3  C   -0.116815   0.086577   0.011456  -0.001326   0.017562   0.026068
     4  C    0.013457  -0.076089  -0.018630   0.000502  -0.018724  -0.014562
     5  O   -0.004652   0.015785  -0.001077   0.001270   0.000819  -0.000827
     6  O    0.195461  -0.117705  -0.005806  -0.085062  -0.005707  -0.013713
     7  C    5.642223  -0.113113   0.360016   0.468856  -0.063789   0.030738
     8  C   -0.113113   5.521708  -0.018954  -0.076826   0.451467   0.334651
     9  H    0.360016  -0.018954   0.553166  -0.043075   0.006340  -0.021753
    10  H    0.468856  -0.076826  -0.043075   0.528222  -0.012115   0.015593
    11  H   -0.063789   0.451467   0.006340  -0.012115   0.523745  -0.049165
    12  H    0.030738   0.334651  -0.021753   0.015593  -0.049165   0.585379
    13  H   -0.042220   0.403138  -0.003925   0.002215  -0.036436  -0.032654
    14  O    0.000979  -0.000831   0.000701   0.000001  -0.000085  -0.000561
    15  H    0.000213  -0.000120   0.000110   0.000020  -0.000037  -0.000066
              13         14         15
     1  C   -0.001101  -0.000917   0.028469
     2  H    0.000260   0.136869  -0.040642
     3  C   -0.006400  -0.023147   0.003362
     4  C    0.000225   0.004431   0.004527
     5  O    0.000309   0.000083  -0.000080
     6  O    0.015281   0.000426   0.000221
     7  C   -0.042220   0.000979   0.000213
     8  C    0.403138  -0.000831  -0.000120
     9  H   -0.003925   0.000701   0.000110
    10  H    0.002215   0.000001   0.000020
    11  H   -0.036436  -0.000085  -0.000037
    12  H   -0.032654  -0.000561  -0.000066
    13  H    0.545767   0.000081   0.000004
    14  O    0.000081   7.829083   0.279390
    15  H    0.000004   0.279390   0.451365
          Atomic-Atomic Spin Densities.
               1          2          3          4          5          6
     1  C    0.506565   0.023350  -0.020852  -0.019026  -0.001266  -0.000020
     2  H    0.023350  -0.023702  -0.004572  -0.001650  -0.000230   0.000005
     3  C   -0.020852  -0.004572   0.072263  -0.049993  -0.004531   0.005613
     4  C   -0.019026  -0.001650  -0.049993   0.045372   0.002983  -0.004316
     5  O   -0.001266  -0.000230  -0.004531   0.002983   0.003960   0.002127
     6  O   -0.000020   0.000005   0.005613  -0.004316   0.002127  -0.004426
     7  C   -0.003479  -0.002172  -0.008163   0.007172   0.000466   0.002409
     8  C    0.000759   0.001724   0.007290  -0.005594  -0.000228  -0.001078
     9  H    0.001229  -0.000458  -0.000155  -0.000228   0.000006  -0.000590
    10  H   -0.000406  -0.000147  -0.001397   0.000824   0.000032   0.000128
    11  H    0.000116   0.000086   0.000415  -0.000185  -0.000043   0.000034
    12  H   -0.000371  -0.000586  -0.000832   0.001102   0.000037   0.000078
    13  H   -0.000122  -0.000044  -0.000262   0.000136   0.000006  -0.000019
    14  O   -0.110971  -0.023822   0.005066   0.006546   0.000259   0.000091
    15  H    0.002676   0.000465  -0.000044  -0.001582  -0.000039  -0.000038
               7          8          9         10         11         12
     1  C   -0.003479   0.000759   0.001229  -0.000406   0.000116  -0.000371
     2  H   -0.002172   0.001724  -0.000458  -0.000147   0.000086  -0.000586
     3  C   -0.008163   0.007290  -0.000155  -0.001397   0.000415  -0.000832
     4  C    0.007172  -0.005594  -0.000228   0.000824  -0.000185   0.001102
     5  O    0.000466  -0.000228   0.000006   0.000032  -0.000043   0.000037
     6  O    0.002409  -0.001078  -0.000590   0.000128   0.000034   0.000078
     7  C   -0.005058   0.001148   0.002021   0.000357  -0.000267  -0.000360
     8  C    0.001148   0.000400  -0.001245  -0.000365   0.000218   0.000201
     9  H    0.002021  -0.001245  -0.000290   0.000204  -0.000021   0.000164
    10  H    0.000357  -0.000365   0.000204   0.000723  -0.000165   0.000137
    11  H   -0.000267   0.000218  -0.000021  -0.000165   0.000089  -0.000146
    12  H   -0.000360   0.000201   0.000164   0.000137  -0.000146   0.000227
    13  H    0.000443  -0.000367  -0.000013   0.000079  -0.000013   0.000020
    14  O    0.001174  -0.000635   0.000064   0.000058  -0.000033   0.000210
    15  H   -0.000153   0.000060   0.000067  -0.000011   0.000010   0.000019
              13         14         15
     1  C   -0.000122  -0.110971   0.002676
     2  H   -0.000044  -0.023822   0.000465
     3  C   -0.000262   0.005066  -0.000044
     4  C    0.000136   0.006546  -0.001582
     5  O    0.000006   0.000259  -0.000039
     6  O   -0.000019   0.000091  -0.000038
     7  C    0.000443   0.001174  -0.000153
     8  C   -0.000367  -0.000635   0.000060
     9  H   -0.000013   0.000064   0.000067
    10  H    0.000079   0.000058  -0.000011
    11  H   -0.000013  -0.000033   0.000010
    12  H    0.000020   0.000210   0.000019
    13  H   -0.000058   0.000027  -0.000007
    14  O    0.000027   0.800082   0.008637
    15  H   -0.000007   0.008637  -0.026618
 Mulliken charges and spin densities:
               1          2
     1  C   -0.500277   0.378181
     2  H    0.430470  -0.031753
     3  C    0.512479  -0.000154
     4  C   -0.298755  -0.018437
     5  O   -0.248947   0.003538
     6  O   -0.031286  -0.000002
     7  C   -0.352314  -0.004463
     8  C   -0.406983   0.002292
     9  H    0.162303   0.000755
    10  H    0.204643   0.000051
    11  H    0.187583   0.000094
    12  H    0.138865  -0.000100
    13  H    0.155457  -0.000194
    14  O   -0.226502   0.686752
    15  H    0.273264  -0.016560
 Sum of Mulliken charges =  -0.00000   1.00000
 Mulliken charges and spin densities with hydrogens summed into heavy atoms:
               1          2
     1  C   -0.500277   0.378181
     3  C    0.512479  -0.000154
     4  C   -0.298755  -0.018437
     5  O   -0.248947   0.003538
     6  O   -0.031286  -0.000002
     7  C    0.014632  -0.003657
     8  C    0.074923   0.002091
    14  O    0.477233   0.638440
 APT charges:
               1
     1  C   -0.152304
     2  H   -0.081506
     3  C   -0.257528
     4  C    1.664524
     5  O   -0.908872
     6  O   -0.973439
     7  C    0.507432
     8  C   -0.028356
     9  H   -0.015353
    10  H   -0.012263
    11  H    0.013018
    12  H    0.010301
    13  H    0.010697
    14  O   -0.121290
    15  H    0.344939
 Sum of APT charges =   0.00000
 APT charges with hydrogens summed into heavy atoms:
               1
     1  C   -0.152304
     3  C   -0.257528
     4  C    1.664524
     5  O   -0.908872
     6  O   -0.973439
     7  C    0.479817
     8  C    0.005661
    14  O    0.142142
 Electronic spatial extent (au):  <R**2>=           1400.5999
 Charge=              0.0000 electrons
 Dipole moment (field-independent basis, Debye):
    X=             -1.1507    Y=             -3.4295    Z=              0.3293  Tot=              3.6324
 Quadrupole moment (field-independent basis, Debye-Ang):
   XX=            -42.1735   YY=            -54.3495   ZZ=            -47.2463
   XY=             -8.9733   XZ=             -5.6832   YZ=             -0.3890
 Traceless Quadrupole moment (field-independent basis, Debye-Ang):
   XX=              5.7496   YY=             -6.4264   ZZ=              0.6768
   XY=             -8.9733   XZ=             -5.6832   YZ=             -0.3890
 Octapole moment (field-independent basis, Debye-Ang**2):
  XXX=            -26.7382  YYY=            -18.5357  ZZZ=             -0.3033  XYY=             -2.8378
  XXY=              8.7212  XXZ=             19.5571  XZZ=              0.8668  YZZ=              1.3127
  YYZ=             -4.8990  XYZ=             -1.0016
 Hexadecapole moment (field-independent basis, Debye-Ang**3):
 XXXX=          -1037.6479 YYYY=           -523.0860 ZZZZ=           -109.9781 XXXY=            -83.6509
 XXXZ=            -92.5802 YYYX=             -9.4765 YYYZ=             -4.6230 ZZZX=             -7.2152
 ZZZY=              3.9247 XXYY=           -278.8547 XXZZ=           -203.7184 YYZZ=            -99.3630
 XXYZ=             10.4787 YYXZ=             -4.0748 ZZXY=              1.0888
 N-N= 3.405508059025D+02 E-N=-1.665130868948D+03  KE= 4.187818302113D+02
  Exact polarizability: 116.038  12.456  75.629  -1.852   3.294  50.891
 Approx polarizability: 110.551  18.836  91.908  -0.926   7.144  60.031
                          Isotropic Fermi Contact Couplings
        Atom                 a.u.       MegaHertz       Gauss      10(-4) cm-1
     1  C(13)              0.41565     467.26566     166.73201     155.86305
     2  H(1)              -0.03230    -144.37592     -51.51692     -48.15862
     3  C(13)              0.05686      63.92625      22.81048      21.32350
     4  C(13)              0.00466       5.23874       1.86931       1.74745
     5  O(17)              0.00068      -0.41417      -0.14779      -0.13815
     6  O(17)             -0.00072       0.43679       0.15586       0.14570
     7  C(13)             -0.00035      -0.39822      -0.14209      -0.13283
     8  C(13)             -0.00008      -0.08722      -0.03112      -0.02909
     9  H(1)               0.00016       0.71293       0.25439       0.23781
    10  H(1)               0.00009       0.38668       0.13798       0.12898
    11  H(1)              -0.00001      -0.05589      -0.01994      -0.01864
    12  H(1)              -0.00001      -0.05282      -0.01885      -0.01762
    13  H(1)               0.00000       0.01779       0.00635       0.00593
    14  O(17)              0.08796     -53.32156     -19.02646     -17.78616
    15  H(1)              -0.01180     -52.76629     -18.82832     -17.60094
 --------------------------------------------------------
       Center         ----  Spin Dipole Couplings  ----
                      3XX-RR        3YY-RR        3ZZ-RR
 --------------------------------------------------------
     1   Atom        0.273701     -0.124647     -0.149055
     2   Atom        0.219198     -0.092867     -0.126332
     3   Atom        0.004092      0.085950     -0.090042
     4   Atom        0.006306     -0.001922     -0.004383
     5   Atom        0.055132     -0.010060     -0.045072
     6   Atom        0.001366      0.002335     -0.003701
     7   Atom        0.003041     -0.001501     -0.001540
     8   Atom        0.001898     -0.000736     -0.001162
     9   Atom        0.003673     -0.002175     -0.001498
    10   Atom        0.001443     -0.000780     -0.000663
    11   Atom        0.001260     -0.000637     -0.000623
    12   Atom        0.002601     -0.001372     -0.001229
    13   Atom        0.001209     -0.000281     -0.000928
    14   Atom        2.697619     -1.248162     -1.449457
    15   Atom       -0.031368      0.039786     -0.008419
 --------------------------------------------------------
                        XY            XZ            YZ
 --------------------------------------------------------
     1   Atom        0.145375      0.000020      0.000399
     2   Atom       -0.014332      0.015904     -0.006319
     3   Atom        0.087211     -0.000845     -0.006968
     4   Atom        0.008280      0.001622      0.000736
     5   Atom        0.019279      0.022581      0.016339
     6   Atom       -0.002007      0.002859     -0.000042
     7   Atom       -0.000677     -0.000804      0.000056
     8   Atom       -0.001119      0.000801     -0.000229
     9   Atom       -0.001570     -0.002415      0.000738
    10   Atom       -0.000298     -0.000536      0.000050
    11   Atom       -0.000429      0.000495     -0.000114
    12   Atom       -0.001735      0.001995     -0.000845
    13   Atom       -0.001174      0.000233     -0.000144
    14   Atom        0.948995     -0.164682     -0.038520
    15   Atom       -0.017495     -0.027598      0.113016
 --------------------------------------------------------


 ---------------------------------------------------------------------------------
              Anisotropic Spin Dipole Couplings in Principal Axis System
 ---------------------------------------------------------------------------------

       Atom             a.u.   MegaHertz   Gauss  10(-4) cm-1        Axes

              Baa    -0.1721   -23.089    -8.239    -7.702 -0.3100  0.9506 -0.0162
     1 C(13)  Bbb    -0.1490   -20.001    -7.137    -6.672 -0.0053  0.0153  0.9999
              Bcc     0.3211    43.090    15.376    14.373  0.9507  0.3101  0.0003
 
              Baa    -0.1280   -68.289   -24.367   -22.779 -0.0385  0.1617  0.9861
     2 H(1)   Bbb    -0.0926   -49.418   -17.634   -16.484  0.0534  0.9857 -0.1596
              Bcc     0.2206   117.707    42.001    39.263  0.9978 -0.0466  0.0466
 
              Baa    -0.0904   -12.137    -4.331    -4.049 -0.0504  0.0643  0.9967
     3 C(13)  Bbb    -0.0511    -6.855    -2.446    -2.287  0.8429 -0.5325  0.0770
              Bcc     0.1415    18.992     6.777     6.335  0.5357  0.8440 -0.0273
 
              Baa    -0.0071    -0.949    -0.339    -0.317 -0.5319  0.8420  0.0902
     4 C(13)  Bbb    -0.0046    -0.612    -0.218    -0.204 -0.0452 -0.1346  0.9899
              Bcc     0.0116     1.561     0.557     0.521  0.8456  0.5225  0.1096
 
              Baa    -0.0536     3.875     1.383     1.293 -0.1448 -0.2910  0.9457
     5 O(17)  Bbb    -0.0130     0.941     0.336     0.314 -0.3347  0.9138  0.2299
              Bcc     0.0666    -4.817    -1.719    -1.607  0.9311  0.2833  0.2298
 
              Baa    -0.0051     0.367     0.131     0.123 -0.4320 -0.1119  0.8949
     6 O(17)  Bbb     0.0007    -0.050    -0.018    -0.017  0.5822  0.7232  0.3715
              Bcc     0.0044    -0.317    -0.113    -0.106  0.6887 -0.6816  0.2472
 
              Baa    -0.0017    -0.229    -0.082    -0.076  0.2114  0.4577  0.8636
     7 C(13)  Bbb    -0.0016    -0.210    -0.075    -0.070  0.0458  0.8779 -0.4766
              Bcc     0.0033     0.439     0.157     0.147  0.9763 -0.1403 -0.1646
 
              Baa    -0.0014    -0.183    -0.065    -0.061 -0.2903 -0.1730  0.9412
     8 C(13)  Bbb    -0.0011    -0.152    -0.054    -0.051  0.2749  0.9270  0.2552
              Bcc     0.0025     0.335     0.120     0.112  0.9166 -0.3328  0.2216
 
              Baa    -0.0026    -1.413    -0.504    -0.471  0.0149  0.8556 -0.5174
     9 H(1)   Bbb    -0.0024    -1.276    -0.455    -0.426  0.4287  0.4620  0.7764
              Bcc     0.0050     2.690     0.960     0.897  0.9033 -0.2334 -0.3600
 
              Baa    -0.0008    -0.442    -0.158    -0.148  0.2178  0.8715  0.4393
    10 H(1)   Bbb    -0.0008    -0.416    -0.149    -0.139  0.1458 -0.4741  0.8683
              Bcc     0.0016     0.859     0.306     0.286  0.9650 -0.1251 -0.2303
 
              Baa    -0.0007    -0.399    -0.142    -0.133 -0.1507  0.3587  0.9212
    11 H(1)   Bbb    -0.0007    -0.388    -0.138    -0.129  0.2737  0.9106 -0.3098
              Bcc     0.0015     0.787     0.281     0.263  0.9499 -0.2055  0.2354
 
              Baa    -0.0022    -1.151    -0.411    -0.384 -0.1086  0.6074  0.7869
    12 H(1)   Bbb    -0.0020    -1.051    -0.375    -0.351  0.4880  0.7222 -0.4901
              Bcc     0.0041     2.202     0.786     0.734  0.8661 -0.3308  0.3749
 
              Baa    -0.0010    -0.512    -0.183    -0.171  0.1029  0.3729  0.9222
    13 H(1)   Bbb    -0.0009    -0.491    -0.175    -0.164  0.4788  0.7940 -0.3745
              Bcc     0.0019     1.004     0.358     0.335  0.8719 -0.4801  0.0968
 
              Baa    -1.4646   105.980    37.816    35.351 -0.2169  0.9701  0.1088
    14 O(17)  Bbb    -1.4559   105.348    37.591    35.140  0.0617 -0.0977  0.9933
              Bcc     2.9205  -211.328   -75.407   -70.492  0.9742  0.2221 -0.0387
 
              Baa    -0.1015   -54.170   -19.329   -18.069  0.1562 -0.6050  0.7807
    15 H(1)   Bbb    -0.0354   -18.901    -6.744    -6.305  0.9709  0.2392 -0.0089
              Bcc     0.1370    73.071    26.074    24.374 -0.1814  0.7594  0.6248
 

 ---------------------------------------------------------------------------------

 Calling FoFJK, ICntrl=    100127 FMM=F ISym2X=0 I1Cent= 0 IOpClX= 1 NMat=1 NMatS=1 NMatT=0.
 Full mass-weighted force constant matrix:
 Low frequencies ----1522.5684 -135.0672  -63.6417   -0.0008   -0.0006   -0.0003
 Low frequencies ---    9.3213   29.5672   33.1307
 ******    3 imaginary frequencies (negative Signs) ****** 
 Diagonal vibrational polarizability:
       87.5451820      69.8007226      70.7927822
 Harmonic frequencies (cm**-1), IR intensities (KM/Mole), Raman scattering
 activities (A**4/AMU), depolarization ratios for plane and unpolarized
 incident light, reduced masses (AMU), force constants (mDyne/A),
 and normal coordinates:
                      1                      2                      3
                      A                      A                      A
 Frequencies --  -1522.5682              -129.3459               -54.1444
 Red. masses --      1.0584                 2.5810                 6.9073
 Frc consts  --      1.4456                 0.0254                 0.0119
 IR Inten    --    567.0355                16.5706                 5.6297
  Atom  AN      X      Y      Z        X      Y      Z        X      Y      Z
     1   6     0.00  -0.01   0.01    -0.00  -0.01   0.30     0.03  -0.32  -0.00
     2   1     1.00   0.05  -0.02     0.00  -0.01   0.47    -0.02  -0.20   0.01
     3   6    -0.00  -0.01  -0.00    -0.00  -0.01   0.12    -0.03  -0.21   0.00
     4   6    -0.01   0.00  -0.00    -0.00   0.00   0.00    -0.11  -0.08  -0.00
     5   8     0.00   0.00   0.00     0.01   0.01  -0.04    -0.23  -0.08  -0.01
     6   8     0.00  -0.00  -0.00    -0.02  -0.00  -0.05    -0.04   0.04  -0.01
     7   6     0.00   0.00  -0.00    -0.03  -0.00  -0.04     0.11   0.03   0.00
     8   6     0.00  -0.00  -0.00     0.03   0.00  -0.04     0.18   0.05   0.01
     9   1     0.00  -0.00   0.00    -0.06  -0.01   0.01     0.13  -0.06   0.00
    10   1     0.00  -0.00   0.00    -0.06  -0.01  -0.08     0.13   0.12   0.01
    11   1    -0.00   0.00   0.00     0.05   0.00  -0.08     0.16   0.14   0.01
    12   1     0.00   0.00  -0.00     0.05  -0.00   0.00     0.16  -0.03   0.00
    13   1     0.00  -0.00   0.00     0.02   0.00  -0.03     0.28   0.05   0.02
    14   8    -0.06   0.01  -0.00     0.03  -0.01  -0.15     0.05   0.42  -0.01
    15   1    -0.04   0.02   0.00    -0.15   0.38  -0.67     0.40   0.35   0.14
                      4                      5                      6
                      A                      A                      A
 Frequencies --     75.6790               106.8120               152.5771
 Red. masses --      3.8242                 3.7295                 2.0378
 Frc consts  --      0.0129                 0.0251                 0.0280
 IR Inten    --      0.6029                 0.1030                53.0459
  Atom  AN      X      Y      Z        X      Y      Z        X      Y      Z
     1   6     0.07  -0.08   0.05    -0.09   0.13  -0.02     0.06  -0.08   0.02
     2   1     0.07  -0.08   0.10    -0.11   0.14  -0.04     0.10  -0.15  -0.15
     3   6     0.03  -0.02   0.00    -0.04   0.04  -0.01    -0.02   0.05   0.11
     4   6    -0.00   0.04  -0.01    -0.02   0.01   0.00    -0.02   0.04   0.03
     5   8    -0.08   0.09  -0.19    -0.03   0.05  -0.12     0.04   0.06  -0.05
     6   8     0.06   0.03   0.21    -0.00  -0.05   0.19    -0.06  -0.02   0.01
     7   6     0.06   0.07   0.00     0.01  -0.01   0.04    -0.14  -0.02   0.00
     8   6    -0.21  -0.15  -0.13     0.30  -0.15  -0.06     0.01  -0.02  -0.00
     9   1     0.17   0.19  -0.21    -0.10   0.01   0.19    -0.22   0.01   0.12
    10   1     0.18   0.13   0.15    -0.11   0.09  -0.16    -0.22  -0.04  -0.11
    11   1    -0.31  -0.28   0.09     0.40  -0.17  -0.21     0.12  -0.09  -0.15
    12   1    -0.32  -0.24  -0.27     0.41  -0.25   0.12     0.12   0.05   0.14
    13   1    -0.18  -0.11  -0.31     0.30  -0.12  -0.19    -0.12  -0.03  -0.01
    14   8     0.08  -0.00   0.06    -0.12   0.01  -0.01     0.11   0.03  -0.10
    15   1     0.12   0.08  -0.03    -0.19   0.00  -0.02     0.12  -0.52   0.60
                      7                      8                      9
                      A                      A                      A
 Frequencies --    184.9756               229.1842               270.9987
 Red. masses --      1.9150                 1.2058                 4.8947
 Frc consts  --      0.0386                 0.0373                 0.2118
 IR Inten    --     46.0777                 0.4740                15.1150
  Atom  AN      X      Y      Z        X      Y      Z        X      Y      Z
     1   6    -0.06   0.09   0.10     0.01  -0.02  -0.02     0.02  -0.03  -0.27
     2   1    -0.09   0.08  -0.05     0.04  -0.04  -0.01    -0.09   0.10  -0.44
     3   6     0.03  -0.07   0.10    -0.03   0.06   0.00     0.07  -0.11   0.44
     4   6     0.02  -0.04   0.00    -0.02   0.02   0.00     0.04  -0.02   0.14
     5   8    -0.01  -0.03  -0.05     0.04   0.02   0.01     0.03   0.05  -0.12
     6   8     0.04   0.02  -0.04    -0.05  -0.02  -0.01     0.00   0.02  -0.06
     7   6     0.12   0.01  -0.02    -0.03  -0.03   0.00    -0.02   0.01  -0.03
     8   6    -0.02   0.02  -0.01     0.02  -0.02   0.00    -0.02   0.03  -0.02
     9   1     0.19  -0.02  -0.13    -0.02  -0.06   0.00    -0.02   0.02  -0.02
    10   1     0.20   0.03   0.09    -0.02   0.01   0.00    -0.02   0.00  -0.03
    11   1    -0.17   0.15   0.16    -0.25   0.40   0.23    -0.01   0.04  -0.02
    12   1    -0.16  -0.12  -0.18    -0.22  -0.47  -0.22    -0.01   0.03  -0.01
    13   1     0.19   0.03  -0.00     0.62   0.00  -0.01    -0.01   0.03   0.00
    14   8    -0.09   0.03  -0.07     0.03  -0.00   0.01    -0.10  -0.03   0.03
    15   1    -0.24  -0.50   0.56     0.07   0.06  -0.06     0.10   0.43  -0.50
                     10                     11                     12
                      A                      A                      A
 Frequencies --    361.1358               399.8466               436.2229
 Red. masses --      2.9392                 5.3164                 4.1013
 Frc consts  --      0.2259                 0.5008                 0.4598
 IR Inten    --      1.1218                 6.9266                 3.6471
  Atom  AN      X      Y      Z        X      Y      Z        X      Y      Z
     1   6    -0.02  -0.07  -0.01     0.04  -0.28   0.04    -0.14   0.21  -0.04
     2   1    -0.01  -0.10  -0.02    -0.22  -0.05   0.01     0.24  -0.14   0.03
     3   6    -0.15   0.15   0.05    -0.11   0.03  -0.06    -0.08   0.05   0.07
     4   6    -0.09   0.05   0.00     0.01  -0.01   0.02    -0.07  -0.11   0.05
     5   8     0.11   0.04   0.01     0.25  -0.01  -0.04    -0.04  -0.08  -0.05
     6   8    -0.13  -0.00  -0.09     0.02  -0.07   0.21    -0.07  -0.13   0.13
     7   6     0.21  -0.03   0.03     0.01   0.05  -0.13     0.07  -0.06  -0.14
     8   6     0.03  -0.10   0.02    -0.01   0.22  -0.06     0.00   0.14  -0.05
     9   1     0.42  -0.23  -0.20     0.00   0.13  -0.15     0.14  -0.08  -0.25
    10   1     0.42   0.14   0.28     0.02   0.11  -0.13     0.17   0.08  -0.05
    11   1     0.10  -0.41   0.05    -0.03   0.43  -0.12    -0.01   0.30  -0.10
    12   1     0.07   0.08   0.02    -0.01   0.43  -0.12     0.00   0.43  -0.12
    13   1    -0.27  -0.09  -0.09    -0.01   0.15   0.27    -0.07   0.06   0.32
    14   8    -0.01  -0.00   0.00    -0.20   0.01  -0.01     0.22  -0.01   0.01
    15   1     0.06   0.03  -0.02    -0.22  -0.03   0.04     0.36   0.05  -0.03
                     13                     14                     15
                      A                      A                      A
 Frequencies --    577.3431               630.1103               698.1562
 Red. masses --      4.6580                 6.7866                 1.2797
 Frc consts  --      0.9148                 1.5876                 0.3675
 IR Inten    --      7.7324                 8.1832               162.6355
  Atom  AN      X      Y      Z        X      Y      Z        X      Y      Z
     1   6    -0.26   0.04  -0.01    -0.02  -0.09  -0.00     0.02  -0.01  -0.12
     2   1     0.08  -0.35   0.08     0.05  -0.15  -0.13     0.04   0.11   0.71
     3   6    -0.10  -0.21  -0.03    -0.30   0.39   0.15    -0.00   0.01   0.03
     4   6    -0.06  -0.07  -0.02     0.08  -0.15  -0.09    -0.02  -0.03   0.00
     5   8     0.25  -0.09  -0.05    -0.11  -0.19  -0.03     0.01  -0.03  -0.01
     6   8     0.01   0.12  -0.01     0.31   0.06  -0.04    -0.02   0.00   0.00
     7   6    -0.05   0.22   0.14     0.02   0.06   0.04    -0.00   0.03   0.02
     8   6    -0.01   0.01   0.00    -0.01  -0.00   0.00    -0.00   0.01  -0.00
     9   1    -0.09   0.23   0.21    -0.22   0.29   0.32     0.00   0.02   0.02
    10   1    -0.13   0.10   0.05    -0.22  -0.24  -0.22    -0.00   0.03   0.02
    11   1     0.01  -0.19   0.06    -0.06  -0.08   0.12     0.00  -0.02   0.01
    12   1    -0.00  -0.25   0.08    -0.07  -0.09  -0.06    -0.00  -0.02   0.01
    13   1     0.01   0.10  -0.38     0.01   0.03  -0.13    -0.00   0.02  -0.06
    14   8     0.08  -0.01  -0.00    -0.01  -0.01  -0.00     0.05   0.02   0.01
    15   1     0.41   0.04   0.01     0.19   0.04  -0.02    -0.66  -0.11   0.04
                     16                     17                     18
                      A                      A                      A
 Frequencies --    754.8038               765.7831               813.7535
 Red. masses --      4.7287                 5.7295                 1.1579
 Frc consts  --      1.5873                 1.9796                 0.4518
 IR Inten    --      3.2526                33.3265                 8.0465
  Atom  AN      X      Y      Z        X      Y      Z        X      Y      Z
     1   6     0.18   0.04   0.08    -0.15  -0.05  -0.03     0.03   0.01   0.01
     2   1    -0.02   0.31  -0.48     0.04  -0.28   0.47    -0.01   0.06  -0.08
     3   6     0.08   0.14  -0.13    -0.12  -0.03  -0.18     0.03  -0.01  -0.00
     4   6    -0.01  -0.23   0.29     0.11  -0.01   0.48    -0.03  -0.00  -0.01
     5   8    -0.01  -0.14  -0.14    -0.03   0.18  -0.08     0.01  -0.01  -0.00
     6   8    -0.14  -0.02  -0.05     0.12   0.05  -0.11    -0.05  -0.01   0.01
     7   6    -0.05   0.15   0.09     0.04  -0.12  -0.07     0.07   0.01   0.01
     8   6    -0.01   0.07  -0.03     0.01  -0.05   0.01     0.04   0.01  -0.01
     9   1     0.09   0.01  -0.07    -0.11  -0.04   0.13    -0.20  -0.09   0.44
    10   1     0.07   0.18   0.25    -0.10  -0.16  -0.27    -0.22   0.07  -0.42
    11   1     0.07  -0.08  -0.08    -0.08   0.02   0.12    -0.17  -0.20   0.40
    12   1     0.05  -0.18   0.13    -0.08   0.14  -0.16    -0.20   0.18  -0.40
    13   1     0.03   0.16  -0.37    -0.06  -0.11   0.26    -0.20   0.01  -0.02
    14   8    -0.01  -0.00   0.01     0.01   0.00  -0.00     0.00   0.00   0.00
    15   1    -0.10   0.03  -0.05     0.06  -0.03   0.06    -0.04   0.00  -0.01
                     19                     20                     21
                      A                      A                      A
 Frequencies --    942.1740               981.4174              1107.4835
 Red. masses --      1.8790                 1.5033                 3.2748
 Frc consts  --      0.9827                 0.8531                 2.3665
 IR Inten    --     47.5767                58.7103                47.3684
  Atom  AN      X      Y      Z        X      Y      Z        X      Y      Z
     1   6     0.01  -0.00   0.02     0.07   0.03  -0.03    -0.05  -0.03   0.00
     2   1     0.00   0.17  -0.39    -0.02  -0.14   0.60     0.02  -0.07  -0.10
     3   6    -0.01  -0.01  -0.01     0.06   0.04   0.01    -0.03  -0.01   0.00
     4   6    -0.08  -0.03   0.00    -0.00  -0.03  -0.00     0.15   0.03  -0.01
     5   8     0.04  -0.04  -0.02     0.00  -0.04  -0.01    -0.04   0.04   0.02
     6   8     0.00   0.12   0.01    -0.04   0.03   0.00    -0.01  -0.18  -0.02
     7   6    -0.01   0.04  -0.10    -0.01   0.06  -0.04    -0.03   0.21  -0.20
     8   6    -0.00  -0.16   0.07     0.01  -0.07   0.04     0.03  -0.01   0.21
     9   1    -0.03   0.21  -0.13    -0.00   0.10  -0.06     0.04   0.17  -0.31
    10   1    -0.04   0.15  -0.17    -0.02   0.17  -0.07     0.02   0.30  -0.17
    11   1    -0.05   0.16   0.01    -0.03   0.04   0.06     0.03  -0.41   0.41
    12   1     0.05   0.13   0.08     0.01   0.06   0.02    -0.03  -0.33   0.22
    13   1     0.03  -0.27   0.60    -0.01  -0.12   0.26    -0.05   0.07  -0.16
    14   8     0.05   0.01   0.02    -0.09  -0.02  -0.03     0.02   0.00   0.01
    15   1    -0.38   0.01  -0.08     0.65  -0.02   0.13    -0.13   0.00  -0.03
                     22                     23                     24
                      A                      A                      A
 Frequencies --   1133.0406              1179.6307              1260.6663
 Red. masses --      2.6125                 1.9167                 2.9779
 Frc consts  --      1.9761                 1.5714                 2.7884
 IR Inten    --     49.0206                66.9078               430.0381
  Atom  AN      X      Y      Z        X      Y      Z        X      Y      Z
     1   6    -0.04  -0.02   0.00     0.02   0.01  -0.00    -0.05  -0.02  -0.00
     2   1     0.02  -0.07  -0.07    -0.02   0.03   0.03     0.04  -0.12  -0.04
     3   6    -0.02  -0.01   0.00     0.02  -0.01  -0.00    -0.02   0.01   0.00
     4   6     0.13   0.03  -0.02    -0.11   0.02   0.02     0.29  -0.03  -0.04
     5   8    -0.04   0.03   0.02     0.00   0.03   0.01    -0.02  -0.04  -0.01
     6   8    -0.02  -0.14  -0.07    -0.00  -0.10  -0.03    -0.15   0.11   0.04
     7   6    -0.01   0.16   0.19     0.18   0.08  -0.01     0.10  -0.10  -0.00
     8   6     0.02  -0.09  -0.13    -0.12  -0.01   0.01    -0.12   0.00   0.02
     9   1     0.06   0.21   0.07    -0.10   0.33   0.32    -0.12  -0.08   0.34
    10   1    -0.01   0.29   0.17    -0.14  -0.40  -0.35    -0.02   0.51  -0.33
    11   1    -0.12   0.38  -0.12     0.08   0.13  -0.34     0.12   0.09  -0.38
    12   1     0.04   0.44  -0.23     0.14  -0.12   0.40     0.05  -0.09   0.27
    13   1    -0.02  -0.21   0.47     0.26   0.00   0.01     0.22   0.04  -0.08
    14   8     0.01   0.00   0.00    -0.01  -0.00  -0.00     0.01   0.00   0.00
    15   1    -0.10   0.00  -0.02     0.04  -0.00   0.01    -0.09   0.00  -0.01
                     25                     26                     27
                      A                      A                      A
 Frequencies --   1348.1788              1404.8947              1428.8052
 Red. masses --      1.2436                 1.2587                 1.2114
 Frc consts  --      1.3318                 1.4638                 1.4571
 IR Inten    --    118.7595                19.9145                43.0330
  Atom  AN      X      Y      Z        X      Y      Z        X      Y      Z
     1   6    -0.01  -0.00  -0.00    -0.01   0.00   0.00    -0.01  -0.02  -0.00
     2   1     0.01  -0.03  -0.01     0.01  -0.14  -0.02    -0.01   0.68   0.08
     3   6     0.00  -0.00  -0.00     0.01   0.01   0.00    -0.05  -0.02  -0.00
     4   6     0.07  -0.01  -0.01     0.05  -0.00  -0.01    -0.01   0.00  -0.00
     5   8    -0.00  -0.01  -0.00    -0.00  -0.01  -0.00     0.00   0.01   0.00
     6   8    -0.08   0.03   0.01    -0.03   0.02   0.02     0.01  -0.01  -0.01
     7   6     0.02  -0.04   0.01     0.00   0.05  -0.04     0.00  -0.06   0.05
     8   6     0.05   0.01   0.01    -0.00   0.04  -0.11    -0.01   0.07  -0.05
     9   1    -0.05   0.77  -0.19    -0.06  -0.26   0.19     0.03   0.29  -0.12
    10   1    -0.00  -0.53   0.11     0.08  -0.42   0.22    -0.05   0.32  -0.13
    11   1     0.02  -0.04   0.09    -0.15  -0.30   0.30    -0.02  -0.27   0.12
    12   1    -0.07   0.06  -0.18     0.19  -0.23   0.27     0.05  -0.25   0.12
    13   1    -0.06   0.02  -0.06     0.05  -0.10   0.49     0.03  -0.02   0.28
    14   8     0.00   0.00   0.00    -0.00   0.00   0.00     0.02  -0.01  -0.01
    15   1    -0.02  -0.00  -0.00    -0.05   0.00  -0.01     0.20  -0.02   0.04
                     28                     29                     30
                      A                      A                      A
 Frequencies --   1436.7685              1492.9992              1502.0797
 Red. masses --      1.2531                 1.0401                 1.0469
 Frc consts  --      1.5241                 1.3659                 1.3917
 IR Inten    --    124.9656                 3.3392                 3.9178
  Atom  AN      X      Y      Z        X      Y      Z        X      Y      Z
     1   6    -0.02  -0.03  -0.00     0.00   0.00  -0.00    -0.00  -0.00  -0.00
     2   1    -0.01   0.71   0.08    -0.00   0.01   0.00     0.00   0.01   0.00
     3   6    -0.05  -0.02  -0.00    -0.00  -0.00   0.00    -0.00   0.00   0.00
     4   6     0.06   0.00  -0.00    -0.00   0.00   0.00     0.01  -0.00  -0.00
     5   8    -0.00   0.00   0.00     0.00  -0.00  -0.00    -0.00  -0.00  -0.00
     6   8    -0.02   0.02   0.02     0.01  -0.00  -0.00    -0.00   0.01   0.00
     7   6     0.00   0.07  -0.05    -0.02   0.01  -0.00    -0.00  -0.02   0.02
     8   6     0.01  -0.06   0.03    -0.04   0.00   0.01    -0.01  -0.03  -0.04
     9   1    -0.06  -0.30   0.18    -0.00  -0.02  -0.03     0.14  -0.00  -0.21
    10   1     0.08  -0.36   0.18     0.01  -0.02   0.06    -0.14  -0.01  -0.19
    11   1    -0.01   0.22  -0.06     0.16  -0.51  -0.05    -0.35   0.12   0.44
    12   1    -0.01   0.20  -0.06    -0.08   0.45  -0.18     0.36   0.37   0.39
    13   1    -0.02  -0.00  -0.19     0.68   0.02   0.04     0.14   0.06  -0.31
    14   8     0.02  -0.02  -0.01     0.00  -0.00  -0.00     0.00  -0.00  -0.00
    15   1     0.21  -0.02   0.04     0.00   0.00   0.00     0.00  -0.00   0.00
                     31                     32                     33
                      A                      A                      A
 Frequencies --   1525.4088              1860.9389              2287.9995
 Red. masses --      1.1004                13.0038                10.2737
 Frc consts  --      1.5086                26.5330                31.6874
 IR Inten    --     20.5219               505.6876                26.0367
  Atom  AN      X      Y      Z        X      Y      Z        X      Y      Z
     1   6     0.01   0.00   0.00    -0.03  -0.02  -0.00    -0.54  -0.31  -0.00
     2   1    -0.00  -0.02  -0.00     0.01   0.05   0.01     0.08   0.38  -0.03
     3   6     0.00  -0.00  -0.00     0.01  -0.01  -0.00     0.58   0.33   0.01
     4   6    -0.03  -0.00   0.00     0.02   0.79   0.22    -0.08  -0.03  -0.00
     5   8     0.00   0.01   0.00    -0.03  -0.53  -0.15     0.00  -0.01  -0.00
     6   8     0.02  -0.02  -0.01     0.01  -0.04  -0.01    -0.00  -0.00  -0.00
     7   6    -0.00  -0.04  -0.06     0.02  -0.03  -0.01    -0.00  -0.00   0.00
     8   6    -0.00  -0.01  -0.01    -0.00   0.01   0.00    -0.00   0.00  -0.00
     9   1    -0.41   0.31   0.43    -0.03   0.10   0.01    -0.01   0.01  -0.00
    10   1     0.39   0.31   0.43     0.05   0.02  -0.01     0.00   0.00   0.00
    11   1    -0.12   0.04   0.15    -0.00   0.00   0.01    -0.00  -0.00   0.00
    12   1     0.12   0.12   0.13     0.01  -0.01   0.02     0.00   0.00  -0.00
    13   1     0.04   0.02  -0.13    -0.00   0.01  -0.03     0.00   0.00  -0.00
    14   8    -0.00   0.00   0.00     0.00   0.00   0.00     0.03  -0.01  -0.00
    15   1    -0.00   0.00  -0.00    -0.01  -0.00  -0.00     0.06   0.00   0.01
                     34                     35                     36
                      A                      A                      A
 Frequencies --   3073.3142              3101.7301              3145.7933
 Red. masses --      1.0353                 1.0623                 1.1042
 Frc consts  --      5.7617                 6.0213                 6.4380
 IR Inten    --      7.3508                15.2577                 0.8449
  Atom  AN      X      Y      Z        X      Y      Z        X      Y      Z
     1   6    -0.00   0.00  -0.00    -0.00   0.00   0.00     0.00   0.00  -0.00
     2   1     0.00  -0.00   0.00    -0.00   0.00  -0.00     0.00  -0.00   0.00
     3   6    -0.00   0.00  -0.00     0.00   0.00   0.00    -0.00  -0.00  -0.00
     4   6    -0.00   0.00   0.00    -0.00   0.00   0.00    -0.00   0.00   0.00
     5   8     0.00  -0.00  -0.00     0.00  -0.00  -0.00    -0.00  -0.00  -0.00
     6   8     0.00  -0.00  -0.00     0.00  -0.00  -0.00     0.00  -0.00   0.00
     7   6    -0.00   0.00  -0.00    -0.02  -0.02  -0.06     0.06  -0.00  -0.01
     8   6     0.00  -0.03   0.04     0.00   0.01   0.01    -0.06   0.03   0.02
     9   1     0.02   0.00   0.02     0.70   0.17   0.45    -0.27  -0.07  -0.18
    10   1    -0.01   0.00   0.01    -0.41   0.07   0.27    -0.42   0.08   0.29
    11   1    -0.46  -0.14  -0.29    -0.05  -0.01  -0.03     0.25   0.08   0.17
    12   1     0.46  -0.09  -0.31     0.01   0.00  -0.00     0.52  -0.10  -0.36
    13   1    -0.03   0.58   0.14     0.01  -0.11  -0.03     0.00  -0.31  -0.07
    14   8    -0.00   0.00   0.00     0.00   0.00   0.00    -0.00   0.00  -0.00
    15   1    -0.00  -0.00  -0.00    -0.00   0.00   0.00     0.00  -0.00  -0.00
                     37                     38                     39
                      A                      A                      A
 Frequencies --   3152.0622              3167.6820              3794.9616
 Red. masses --      1.1012                 1.1062                 1.0667
 Frc consts  --      6.4461                 6.5399                 9.0514
 IR Inten    --     13.4562                24.3908               115.6314
  Atom  AN      X      Y      Z        X      Y      Z        X      Y      Z
     1   6     0.00   0.00   0.00    -0.00   0.00   0.00     0.00   0.00   0.00
     2   1     0.00  -0.00  -0.00    -0.00   0.00  -0.00    -0.01  -0.00  -0.01
     3   6     0.00  -0.00   0.00     0.00   0.00  -0.00    -0.00  -0.00  -0.00
     4   6    -0.00   0.00   0.00    -0.00  -0.00  -0.00     0.00   0.00   0.00
     5   8     0.00  -0.00  -0.00     0.00   0.00   0.00    -0.00  -0.00  -0.00
     6   8     0.00   0.00   0.00     0.00   0.00  -0.00    -0.00   0.00   0.00
     7   6     0.02  -0.00  -0.01    -0.07   0.00   0.01     0.00  -0.00   0.00
     8   6    -0.03  -0.07  -0.05    -0.06  -0.00   0.00     0.00  -0.00  -0.00
     9   1    -0.02  -0.01  -0.01     0.31   0.07   0.21    -0.00  -0.00  -0.00
    10   1    -0.24   0.04   0.17     0.51  -0.09  -0.36    -0.00   0.00   0.00
    11   1     0.49   0.13   0.31     0.38   0.11   0.26    -0.00  -0.00  -0.00
    12   1    -0.16   0.01   0.09     0.38  -0.08  -0.27    -0.00  -0.00   0.00
    13   1    -0.04   0.70   0.16    -0.01  -0.01  -0.00    -0.00   0.00   0.00
    14   8    -0.00   0.00   0.00     0.00  -0.00  -0.00     0.01  -0.05  -0.04
    15   1    -0.00  -0.00  -0.00     0.00   0.00   0.00    -0.13   0.77   0.62

 -------------------
 - Thermochemistry -
 -------------------
 Temperature   298.150 Kelvin.  Pressure   1.00000 Atm.
 Atom     1 has atomic number  6 and mass  12.00000
 Atom     2 has atomic number  1 and mass   1.00783
 Atom     3 has atomic number  6 and mass  12.00000
 Atom     4 has atomic number  6 and mass  12.00000
 Atom     5 has atomic number  8 and mass  15.99491
 Atom     6 has atomic number  8 and mass  15.99491
 Atom     7 has atomic number  6 and mass  12.00000
 Atom     8 has atomic number  6 and mass  12.00000
 Atom     9 has atomic number  1 and mass   1.00783
 Atom    10 has atomic number  1 and mass   1.00783
 Atom    11 has atomic number  1 and mass   1.00783
 Atom    12 has atomic number  1 and mass   1.00783
 Atom    13 has atomic number  1 and mass   1.00783
 Atom    14 has atomic number  8 and mass  15.99491
 Atom    15 has atomic number  1 and mass   1.00783
 Molecular mass:   115.03952 amu.
 Principal axes and moments of inertia in atomic units:
                           1         2         3
     Eigenvalues --   686.774131736.904902281.03931
           X            0.99902  -0.04419  -0.00232
           Y            0.04415   0.99893  -0.01380
           Z            0.00293   0.01368   0.99990
 This molecule is an asymmetric top.
 Rotational symmetry number  1.
 Warning -- assumption of classical behavior for rotation
           may cause significant error
 Rotational temperatures (Kelvin)      0.12612     0.04987     0.03797
 Rotational constants (GHZ):           2.62785     1.03906     0.79119
    3 imaginary frequencies ignored.
 Zero-point vibrational energy     279838.9 (Joules/Mol)
                                   66.88310 (Kcal/Mol)
 Warning -- explicit consideration of  10 degrees of freedom as
           vibrations may cause significant error
 Vibrational temperatures:    108.89   153.68   219.52   266.14   329.74
          (Kelvin)            389.91   519.59   575.29   627.63   830.67
                              906.59  1004.49  1085.99  1101.79  1170.81
                             1355.58  1412.04  1593.42  1630.19  1697.23
                             1813.82  1939.73  2021.33  2055.73  2067.19
                             2148.09  2161.16  2194.72  2677.48  3291.92
                             4421.81  4462.70  4526.09  4535.11  4557.59
                             5460.10
 
 Zero-point correction=                           0.106585 (Hartree/Particle)
 Thermal correction to Energy=                    0.114948
 Thermal correction to Enthalpy=                  0.115892
 Thermal correction to Gibbs Free Energy=         0.072209
 Sum of electronic and zero-point Energies=           -420.064294
 Sum of electronic and thermal Energies=              -420.055931
 Sum of electronic and thermal Enthalpies=            -420.054987
 Sum of electronic and thermal Free Energies=         -420.098669
 
                     E (Thermal)             CV                S
                      KCal/Mol        Cal/Mol-Kelvin    Cal/Mol-Kelvin
 Total                   72.131             28.935             91.938
 Electronic               0.000              0.000              1.377
 Translational            0.889              2.981             40.136
 Rotational               0.889              2.981             29.388
 Vibrational             70.353             22.973             21.037
 Vibration     1          0.599              1.965              4.000
 Vibration     2          0.606              1.944              3.326
 Vibration     3          0.619              1.900              2.640
 Vibration     4          0.631              1.860              2.278
 Vibration     5          0.652              1.796              1.885
 Vibration     6          0.675              1.727              1.590
 Vibration     7          0.735              1.552              1.117
 Vibration     8          0.766              1.470              0.963
 Vibration     9          0.797              1.391              0.839
 Vibration    10          0.934              1.080              0.490
                       Q            Log10(Q)             Ln(Q)
 Total Bot       0.611099D-33        -33.213888        -76.477804
 Total V=0       0.648290D+16         15.811769         36.407944
 Vib (Bot)       0.106696D-46        -46.971850       -108.156681
 Vib (Bot)    1  0.272305D+01          0.435055          1.001752
 Vib (Bot)    2  0.191878D+01          0.283024          0.651687
 Vib (Bot)    3  0.132796D+01          0.123186          0.283646
 Vib (Bot)    4  0.108393D+01          0.035003          0.080597
 Vib (Bot)    5  0.859694D+00         -0.065656         -0.151178
 Vib (Bot)    6  0.712781D+00         -0.147044         -0.338581
 Vib (Bot)    7  0.507154D+00         -0.294860         -0.678940
 Vib (Bot)    8  0.445811D+00         -0.350849         -0.807860
 Vib (Bot)    9  0.397479D+00         -0.400686         -0.922614
 Vib (Bot)   10  0.264638D+00         -0.577347         -1.329391
 Vib (V=0)       0.113190D+03          2.053808          4.729067
 Vib (V=0)    1  0.326857D+01          0.514358          1.184353
 Vib (V=0)    2  0.248285D+01          0.394951          0.909408
 Vib (V=0)    3  0.191897D+01          0.283069          0.651790
 Vib (V=0)    4  0.169370D+01          0.228836          0.526914
 Vib (V=0)    5  0.149452D+01          0.174502          0.401807
 Vib (V=0)    6  0.137066D+01          0.136931          0.315296
 Vib (V=0)    7  0.121218D+01          0.083568          0.192423
 Vib (V=0)    8  0.116989D+01          0.068144          0.156907
 Vib (V=0)    9  0.113874D+01          0.056425          0.129923
 Vib (V=0)   10  0.106572D+01          0.027641          0.063646
 Electronic      0.200000D+01          0.301030          0.693147
 Translational   0.484981D+08          7.685724         17.697035
 Rotational      0.590482D+06          5.771207         13.288695
 ***** Axes restored to original set *****
 -------------------------------------------------------------------
 Center     Atomic                   Forces (Hartrees/Bohr)
 Number     Number              X              Y              Z
 -------------------------------------------------------------------
      1        6          -0.003348587   -0.001177250    0.001946260
      2        1           0.024482567    0.003712030   -0.001958990
      3        6          -0.002985955   -0.004619958   -0.000025464
      4        6          -0.003144001   -0.000252341   -0.000353548
      5        8           0.000412447    0.000114268    0.000105162
      6        8          -0.000287978   -0.000203982   -0.000049640
      7        6           0.000109692    0.000008606   -0.000088360
      8        6          -0.000015779    0.000001385    0.000041506
      9        1           0.000066765    0.000100100    0.000048617
     10        1          -0.000100940    0.000053949    0.000070706
     11        1          -0.000044639   -0.000029902   -0.000055144
     12        1          -0.000010940   -0.000022494    0.000008673
     13        1           0.000040751    0.000044982    0.000022444
     14        8          -0.014056374    0.001406812    0.000523723
     15        1          -0.001117029    0.000863795   -0.000235945
 -------------------------------------------------------------------
 Cartesian Forces:  Max     0.024482567 RMS     0.004412123

 GradGradGradGradGradGradGradGradGradGradGradGradGradGradGradGradGradGrad
 Berny optimization.
 Search for a local minimum.
 Step number   1 out of a maximum of    2
 All quantities printed in internal units (Hartrees-Bohrs-Radians)
 Second derivative matrix not updated -- analytic derivatives used.
 ITU=  0
     Eigenvalues ---   -0.12424  -0.00261  -0.00097   0.00087   0.00206
     Eigenvalues ---    0.00232   0.00277   0.00488   0.01941   0.02228
     Eigenvalues ---    0.02872   0.03351   0.04718   0.06124   0.06550
     Eigenvalues ---    0.06984   0.07661   0.08597   0.09314   0.10153
     Eigenvalues ---    0.11344   0.13275   0.14742   0.16898   0.21564
     Eigenvalues ---    0.23179   0.27399   0.30995   0.38873   0.53042
     Eigenvalues ---    0.68036   0.77943   0.78670   0.85302   0.86459
     Eigenvalues ---    0.91826   0.95043   1.76904   2.35452
 Eigenvalue     1 is  -1.24D-01 should be greater than     0.000000 Eigenvector:
                          X2        X14       Y2        Y3        X15
   1                    0.89221  -0.39417   0.08751  -0.08476  -0.08372
                          Y15       Y1        Z2        Y14       X1
   1                    0.06396  -0.05455  -0.04839   0.04562  -0.04229
 Eigenvalue     2 is  -2.61D-03 should be greater than     0.000000 Eigenvector:
                          Z2        Z1        Z15       Z14       Z3
   1                    0.51985   0.45505  -0.45140  -0.33299   0.23445
                          Y15       X15       Y2        Y1        Z10
   1                    0.15791  -0.13133  -0.10095  -0.10073  -0.09917
 Eigenvalue     3 is  -9.68D-04 should be greater than     0.000000 Eigenvector:
                          Y14       X15       Y15       Y1        X5
   1                    0.48689   0.37308   0.32510  -0.32208  -0.26825
                          Y3        Z15       X13       Y2        X4
   1                   -0.22495   0.22268   0.21307  -0.19166  -0.13968
 Quadratic step=3.770D-01 exceeds max=3.000D-01 adjusted using Lamda=-1.229D-03.
 Angle between NR and scaled steps=  14.47 degrees.
 Angle between quadratic step and forces=  38.93 degrees.
 Linear search not attempted -- first point.
 B after Tr=    -0.011714   -0.006260    0.006845
         Rot=    0.999999    0.000315   -0.001387   -0.000798 Ang=   0.19 deg.
 Variable       Old X    -DE/DX   Delta X   Delta X   Delta X     New X
                                 (Linear)    (Quad)   (Total)
    X1       -3.12586  -0.00335   0.00000  -0.02483  -0.03597  -3.16183
    Y1       -0.59321  -0.00118   0.00000   0.03303   0.02167  -0.57154
    Z1       -0.08286   0.00195   0.00000  -0.03904  -0.02310  -0.10595
    X2       -5.24593   0.02448   0.00000   0.19625   0.18681  -5.05912
    Y2       -1.61141   0.00371   0.00000   0.06456   0.05020  -1.56121
    Z2        0.00614  -0.00196   0.00000  -0.08571  -0.06388  -0.05775
    X3       -1.17588  -0.00299   0.00000   0.00028  -0.01260  -1.18847
    Y3        0.60007  -0.00462   0.00000  -0.01090  -0.01909   0.58098
    Z3       -0.06625  -0.00003   0.00000  -0.01754  -0.00780  -0.07405
    X4        1.23304  -0.00314   0.00000   0.00704  -0.00773   1.22531
    Y4        1.98234  -0.00025   0.00000   0.00307  -0.00118   1.98115
    Z4        0.04197  -0.00035   0.00000   0.00143   0.00359   0.04556
    X5        1.29916   0.00041   0.00000   0.02926   0.01276   1.31192
    Y5        4.15352   0.00011   0.00000   0.00012  -0.00360   4.14991
    Z5        0.65770   0.00011   0.00000   0.01155   0.01209   0.66979
    X6        3.31815  -0.00029   0.00000   0.01639   0.00187   3.32001
    Y6        0.71907  -0.00020   0.00000   0.00126  -0.00006   0.71901
    Z6       -0.60047  -0.00005   0.00000   0.00984   0.00698  -0.59349
    X7        3.23864   0.00011   0.00000   0.01164  -0.00021   3.23843
    Y7       -1.94060   0.00001   0.00000   0.00433   0.00252  -1.93809
    Z7       -1.16269  -0.00009   0.00000   0.00425   0.00330  -1.15939
    X8        3.34006  -0.00002   0.00000   0.00233  -0.00037   3.33969
    Y8       -3.49878   0.00000   0.00000  -0.00147  -0.00161  -3.50039
    Z8        1.23838   0.00004   0.00000   0.00135   0.00112   1.23950
    X9        1.56105   0.00007   0.00000   0.00851  -0.00578   1.55527
    Y9       -2.36566   0.00010   0.00000   0.01219   0.00700  -2.35867
    Z9       -2.28481   0.00005   0.00000   0.00316   0.00714  -2.27767
   X10        4.90456  -0.00010   0.00000   0.00781  -0.00678   4.89778
   Y10       -2.25138   0.00005   0.00000  -0.00200  -0.00189  -2.25328
   Z10       -2.32975   0.00007   0.00000   0.00354  -0.00182  -2.33158
   X11        5.01504  -0.00004   0.00000  -0.00321  -0.00363   5.01141
   Y11       -3.01016  -0.00003   0.00000  -0.00608  -0.00286  -3.01302
   Z11        2.33607  -0.00006   0.00000   0.00840   0.00323   2.33930
   X12        1.66545  -0.00001   0.00000  -0.00371  -0.00371   1.66174
   Y12       -3.17862  -0.00002   0.00000  -0.00405  -0.00614  -3.18476
   Z12        2.39822   0.00001   0.00000  -0.00364   0.00058   2.39880
   X13        3.42316   0.00004   0.00000  -0.00188  -0.00271   3.42045
   Y13       -5.50534   0.00004   0.00000  -0.00107  -0.00138  -5.50673
   Z13        0.76536   0.00002   0.00000  -0.00213  -0.00132   0.76404
   X14       -7.47896  -0.01406   0.00000  -0.12131  -0.13122  -7.61018
   Y14       -1.17064   0.00141   0.00000  -0.07055  -0.08898  -1.25961
   Z14       -0.15215   0.00052   0.00000   0.07329   0.10200  -0.05015
   X15       -7.69791  -0.00112   0.00000   0.01891   0.00928  -7.68863
   Y15        0.25210   0.00086   0.00000   0.06334   0.04541   0.29752
   Z15        0.98895  -0.00024   0.00000  -0.07006  -0.04211   0.94684
         Item               Value     Threshold  Converged?
 Maximum Force            0.024483     0.000450     NO 
 RMS     Force            0.004412     0.000300     NO 
 Maximum Displacement     0.186810     0.001800     NO 
 RMS     Displacement     0.043357     0.001200     NO 
 Predicted change in Energy=-1.005575D-02
 GradGradGradGradGradGradGradGradGradGradGradGradGradGradGradGradGradGrad


 ----------------------------------------------------------------------

 Electric dipole moment (input orientation):
 (Debye = 10**-18 statcoulomb cm , SI units = C m)
                  (au)            (Debye)         (10**-30 SI)
   Tot        0.142908D+01      0.363236D+01      0.121163D+02
   x         -0.455518D+00     -0.115781D+01     -0.386204D+01
   y         -0.134837D+01     -0.342722D+01     -0.114320D+02
   z          0.129097D+00      0.328131D+00      0.109453D+01

 Dipole polarizability, Alpha (input orientation).
 (esu units = cm**3 , SI units = C**2 m**2 J**-1)
 Alpha(0;0):
               (au)            (10**-24 esu)      (10**-40 SI)
   iso        0.808525D+02      0.119811D+02      0.133308D+02
   aniso      0.612601D+02      0.907781D+01      0.101004D+02
   xx         0.116090D+03      0.172027D+02      0.191406D+02
   yx         0.123727D+02      0.183345D+01      0.203999D+01
   yy         0.755765D+02      0.111993D+02      0.124609D+02
   zx        -0.182544D+01     -0.270502D+00     -0.300974D+00
   zy         0.330793D+01      0.490185D+00      0.545405D+00
   zz         0.508915D+02      0.754134D+01      0.839087D+01

 ----------------------------------------------------------------------

 Dipole orientation:
     6         -2.69736650          0.67516350          1.54858693
     1         -4.31066555          1.15705341          3.19309105
     6         -1.25294018          0.37195565         -0.19735150
     6          0.58473321          0.06328402         -2.25962236
     8          0.24207661          1.02445648         -4.27363660
     8          2.61920908         -1.34984165         -1.79036048
     6          3.10152614         -2.34648066          0.69366045
     6          4.38862882         -0.39493716          2.34841171
     1          1.33982829         -3.02049813          1.52807915
     1          4.32592655         -3.96417391          0.35045284
     1          6.12263523          0.26841762          1.45265099
     1          3.15144963          1.22005656          2.68488993
     1          4.86667385         -1.23240936          4.17243743
     8         -6.50764737          1.70453253          3.47468996
     1         -6.73490715          3.10267927          2.30517123

 Electric dipole moment (dipole orientation):
 (Debye = 10**-18 statcoulomb cm , SI units = C m)
                  (au)            (Debye)         (10**-30 SI)
   Tot        0.142908D+01      0.363236D+01      0.121163D+02
   x          0.000000D+00      0.000000D+00      0.000000D+00
   y          0.000000D+00      0.000000D+00      0.000000D+00
   z          0.142908D+01      0.363236D+01      0.121163D+02

 Dipole polarizability, Alpha (dipole orientation).
 (esu units = cm**3 , SI units = C**2 m**2 J**-1)
 Alpha(0;0):
               (au)            (10**-24 esu)      (10**-40 SI)
   iso        0.808525D+02      0.119811D+02      0.133308D+02
   aniso      0.612601D+02      0.907781D+01      0.101004D+02
   xx         0.985566D+02      0.146046D+02      0.162498D+02
   yx        -0.166258D+02     -0.246368D+01     -0.274122D+01
   yy         0.575264D+02      0.852453D+01      0.948482D+01
   zx        -0.229607D+02     -0.340242D+01     -0.378570D+01
   zy         0.165868D+01      0.245791D+00      0.273480D+00
   zz         0.864746D+02      0.128142D+02      0.142577D+02

 ----------------------------------------------------------------------
 1\1\GINC-AJ\Freq\UM062X\6-311++G(d,p)\C5H7O3(2)\AAYUSH\29-Mar-2025\0\\
 # freq 6-311++g(d,p) m062x\\Title Card Required\\0,2\C,-1.654133,-0.31
 3913,-0.043846\H,-2.776026,-0.85272,0.003248\C,-0.622248,0.317541,-0.0
 35059\C,0.652498,1.049007,0.022209\O,0.687486,2.197946,0.34804\O,1.755
 887,0.380516,-0.317756\C,1.713816,-1.026923,-0.61527\C,1.767486,-1.851
 474,0.655324\H,0.826072,-1.251855,-1.209067\H,2.595379,-1.19138,-1.232
 852\H,2.653845,-1.592908,1.236194\H,0.88132,-1.682054,1.269081\H,1.811
 457,-2.913302,0.40501\O,-3.957695,-0.619474,-0.080514\H,-4.073559,0.13
 3408,0.523329\\Version=ES64L-G16RevA.03\State=2-A\HF=-420.1708786\S2=0
 .759338\S2-1=0.\S2A=0.750059\RMSD=5.080e-09\RMSF=4.412e-03\ZeroPoint=0
 .106585\Thermal=0.1149478\Dipole=-0.4555181,-1.3483731,0.1290968\Dipol
 eDeriv=-0.0224526,-0.0297596,0.0081013,-0.0275709,-0.2583603,-0.007625
 ,0.0367869,-0.002939,-0.1761,-0.7119403,-0.1945874,-0.0214597,0.091875
 2,0.2493033,-0.0139006,-0.0940517,-0.0214393,0.2181185,-0.6344427,-0.0
 933439,0.0356583,0.0274885,-0.0678691,0.0050226,0.014084,-0.0036281,-0
 .0702716,2.4742945,-0.3495055,-0.2129757,-0.0848502,1.9759399,0.360423
 7,-0.2114112,0.4976077,0.543337,-0.8621247,-0.1201201,-0.0027444,-0.15
 73618,-1.4402206,-0.2214018,-0.0047444,-0.2943177,-0.4242711,-1.248908
 8,0.6946364,0.2026456,0.5299671,-1.2358062,-0.139089,0.2484936,-0.2855
 033,-0.4356032,0.2958045,-0.0589129,0.0106015,-0.3229031,0.8699659,0.0
 083903,-0.0417535,0.0335126,0.3565265,0.0440551,0.002768,0.0025585,0.0
 677452,-0.0500686,0.0300583,0.0171232,0.0871003,-0.0790544,-0.0150673,
 -0.0398361,-0.0977705,0.0293302,-0.0329112,0.0162665,-0.0821344,0.0003
 773,0.001921,-0.0543994,0.0408683,0.0978929,0.0248409,0.0110267,0.0149
 19,0.0565877,-0.0106681,0.0065836,-0.0382418,-0.0195044,-0.079995,-0.0
 57306,0.0644133,-0.0190018,-0.054392,0.0140106,0.012884,-0.0349876,0.0
 153959,0.0806234,0.0182741,0.0594149,-0.0193475,0.0678548,0.0038214,0.
 0064756,0.0809962,0.0035304,-0.0032181,0.0371905,-0.1016053,-0.0246358
 ,-0.0085444,-0.0421174,0.0527005,0.2381762,0.1531872,0.0023041,0.00237
 67,-0.283006,0.0724128,0.2155441,0.1279549,-0.3190399,0.4892388,-0.004
 8162,-0.0222221,-0.1790962,0.2397833,-0.0624919,-0.1594429,-0.1037719,
 0.3057934\Polar=116.0895789,12.3727259,75.5764819,-1.8254397,3.3079346
 ,50.8914871\Quadrupole=4.2493732,-4.7502371,0.5008638,-6.688803,-4.226
 6944,-0.2836213\PG=C01 [X(C5H7O3)]\NImag=3\\0.92125466,0.48978376,0.32
 680993,0.00287305,0.00145896,0.04192589,-0.01731250,0.00048110,-0.0061
 2943,-0.08291992,-0.05080112,-0.05450538,0.00126258,-0.00432310,0.0692
 1075,0.00868672,0.00253515,-0.02425299,0.00195513,0.00395157,0.0223241
 9,-0.79160339,-0.44755019,-0.00191289,0.01314178,0.00306946,-0.0015944
 1,1.05034422,-0.44779012,-0.28638549,0.00008443,0.01704475,0.00494294,
 -0.00129525,0.53742402,0.41353895,-0.00654521,-0.00241723,-0.02414778,
 0.00151670,-0.00063008,0.00358128,0.00380681,0.01900276,0.05899973,0.0
 1183154,0.00507381,-0.00134108,0.01208027,-0.00397692,0.00057507,-0.20
 703722,-0.07321190,-0.00411987,0.54018929,-0.00609751,-0.00128207,-0.0
 0136282,-0.00140128,0.00202299,0.00022734,-0.04431535,-0.08330183,0.00
 368356,0.02352833,0.97550533,-0.00026876,-0.00104414,0.00353248,0.0009
 6119,0.00030142,0.00316447,0.00026453,0.00417253,-0.07109294,-0.036098
 26,0.21757715,0.26809815,-0.00529044,-0.00359338,0.00009321,-0.0041877
 0,0.00140597,-0.00015058,0.00104411,-0.03913416,-0.00867094,-0.0951355
 4,-0.05110706,-0.01230006,0.10129356,-0.00108507,0.00143934,0.00087645
 ,-0.00368173,0.00101280,-0.00012598,-0.03853468,-0.05409607,-0.0178167
 8,-0.03733083,-0.73342609,-0.18359298,0.02429731,0.85480544,-0.0002581
 5,0.00048674,0.00022922,-0.00130125,0.00024086,-0.00047159,-0.00725336
 ,-0.01680138,0.01886615,-0.00860023,-0.18163679,-0.12775891,-0.0017424
 6,0.23353866,0.09926530,-0.00133543,-0.00375858,-0.00028913,-0.0025298
 7,0.00026651,-0.00062788,-0.05364887,0.00909326,0.01181203,-0.25922842
 ,0.04749417,0.04084835,0.00347491,0.05090501,0.01641514,0.38914464,0.0
 0076583,0.00073170,-0.00019308,0.00190721,-0.00084781,0.00019792,-0.00
 547106,0.00881191,-0.00347676,0.07367529,-0.13384541,-0.03000710,0.068
 73355,-0.07353966,-0.03557696,-0.10682904,0.48437603,0.00004936,0.0005
 2396,-0.00005759,0.00051720,-0.00015048,-0.00041721,0.00735623,-0.0032
 7447,0.01517854,0.04938563,-0.02826745,-0.06323293,0.02046696,-0.03235
 567,0.00434159,-0.07241660,0.11349040,0.10320162,0.00005355,0.00102783
 ,0.00011281,0.00012717,-0.00007874,0.00012680,-0.00490380,0.00288659,0
 .00221906,0.00409880,0.03192987,0.00727049,-0.00391802,0.00344673,0.00
 179533,-0.08951267,-0.02945888,-0.00444589,0.65399822,-0.00094530,-0.0
 0314303,-0.00050911,-0.00109054,0.00040886,-0.00017144,-0.00437952,0.0
 0089016,0.00147688,0.03260316,-0.03140847,-0.01242488,-0.00564886,0.01
 245399,0.00338871,-0.01286035,-0.19185404,-0.03192604,-0.00142456,0.43
 017836,0.00079725,-0.00117789,-0.00100650,0.00011637,0.00000415,0.0001
 5945,0.00016575,-0.00014316,0.00074343,0.00719092,-0.01297436,-0.01554
 607,0.00108149,0.00094245,0.00664773,-0.00146372,-0.02879099,-0.065102
 18,-0.00996115,0.01605464,0.55560571,0.00012078,0.00002731,0.00018295,
 0.00002681,-0.00001308,-0.00008626,-0.00019872,0.00034771,0.00023578,0
 .00029545,0.00066563,-0.00170590,-0.00003778,0.00005252,0.00028790,0.0
 0292653,0.00104784,-0.00019549,-0.08681481,0.00221668,-0.00377122,0.58
 620939,0.00011569,0.00031772,0.00021347,0.00023815,-0.00008549,0.00001
 372,0.00113857,-0.00034298,-0.00008812,-0.00741005,0.00195683,0.005341
 11,0.00153133,-0.00219239,-0.00239568,0.00608273,-0.04465872,0.0272143
 9,0.00231405,-0.10081887,0.05066826,0.00375960,0.55710610,0.00024963,0
 .00067044,-0.00025439,0.00009585,-0.00001437,0.00005845,-0.00063361,0.
 00032522,-0.00061074,-0.00450192,0.00059113,0.00295774,0.00085482,-0.0
 0159737,-0.00134762,0.00410020,-0.00678044,0.01151007,-0.00413668,0.06
 260356,-0.19002783,-0.00367106,0.04568706,0.52487519,-0.00145497,0.000
 68140,0.00074079,-0.00018765,-0.00002001,0.00000649,-0.00137569,0.0020
 0580,0.00084397,0.00091430,0.00137136,0.00079285,-0.00030861,-0.000104
 12,0.00007859,0.00319469,-0.00323679,0.00172933,-0.23421460,-0.0433490
 8,-0.11974714,0.00178371,0.00087258,0.00094125,0.24906130,0.00030501,0
 .00015388,0.00004483,0.00002983,0.00005261,0.00000120,0.00189117,-0.00
 056264,-0.00047620,-0.00906674,0.00385008,0.00074816,0.00189968,-0.001
 79104,-0.00015644,-0.02577551,-0.02656698,-0.02347400,-0.03281754,-0.0
 5828491,-0.02432165,0.01632253,0.00594417,0.01057072,0.04509008,0.0756
 8587,-0.00020473,0.00035726,0.00018169,-0.00019309,0.00003361,-0.00004
 917,0.00096357,-0.00053230,-0.00039404,-0.00408511,0.00049348,0.000939
 61,0.00092132,-0.00037896,-0.00015433,-0.00253405,-0.00730932,-0.00333
 505,-0.11493832,-0.02671494,-0.12854795,-0.02367215,-0.00405960,-0.014
 36763,0.12833766,0.03110339,0.13610911,-0.00012573,0.00032291,0.000183
 21,-0.00020713,0.00007033,-0.00003674,-0.00014166,0.00000072,0.0001750
 9,0.00056853,-0.00069274,-0.00027867,0.00018319,-0.00021926,0.00009502
 ,0.00316971,0.00036559,-0.00227922,-0.23930414,0.03352897,0.12662842,0
 .00384177,-0.00122363,-0.00281435,-0.01916471,0.00335572,0.01466091,0.
 24907960,0.00024379,0.00040958,0.00003228,0.00017270,-0.00004321,0.000
 01415,0.00029780,0.00010447,0.00020627,-0.00529318,-0.00220365,-0.0026
 8327,0.00195659,-0.00293577,-0.00030747,0.03524580,-0.02456587,-0.0228
 4780,0.02141328,-0.04744531,-0.01604721,-0.01606959,0.00402558,0.01081
 030,-0.00414928,0.00267389,0.00445389,-0.03513669,0.07061804,-0.000195
 76,0.00022702,0.00019342,-0.00009908,0.00002395,-0.00004131,-0.0001574
 2,-0.00001763,0.00003768,-0.00268725,0.00094819,-0.00000391,0.00049880
 ,-0.00085422,-0.00013217,0.00720066,-0.00722173,-0.00285331,0.12309123
 ,-0.02116162,-0.13674185,0.02353160,-0.00226882,-0.01627878,-0.0140819
 7,0.00362032,0.01177912,-0.13600425,0.02399235,0.14607696,0.00010236,0
 .00029087,-0.00008701,-0.00001599,-0.00001587,0.00000597,-0.00012504,0
 .00007080,-0.00016504,-0.00083685,-0.00030982,-0.00019686,0.00022791,0
 .00021663,0.00014295,0.00032138,0.00052639,0.00068339,0.00031471,0.000
 14403,0.00007498,-0.23140730,-0.05403714,-0.11713559,0.00122042,-0.000
 47084,0.00024545,0.00070430,0.00055516,-0.00013022,0.24645460,-0.00002
 730,-0.00012689,-0.00001574,-0.00001758,-0.00001907,-0.00000395,-0.000
 08626,0.00001383,0.00003596,0.00122738,-0.00039562,-0.00023729,-0.0002
 2831,0.00019003,0.00008642,-0.00060220,0.00259424,-0.00106757,0.017049
 94,0.00300048,0.01194587,-0.05508512,-0.06305938,-0.03654408,0.0000151
 1,-0.00185751,0.00345724,-0.00027554,0.00044563,-0.00098642,0.05928115
 ,0.06453702,-0.00004029,-0.00010895,0.00014742,-0.00002764,0.00002213,
 -0.00003688,0.00028638,-0.00004875,0.00004319,-0.00005244,0.00015756,0
 .00003741,-0.00007943,0.00007057,-0.00002824,0.00136709,-0.00122524,0.
 00240740,-0.02571363,-0.00818692,-0.01810786,-0.11543288,-0.03414777,-
 0.12229141,0.00093061,0.00382111,-0.00384459,0.00020413,-0.00060484,0.
 00085698,0.12824585,0.03568016,0.13416522,-0.00035588,0.00034035,-0.00
 029747,-0.00001125,-0.00000382,0.00004239,-0.00086145,0.00067346,-0.00
 066676,0.00026835,-0.00019093,0.00068826,-0.00014049,-0.00024601,-0.00
 021387,0.00030824,-0.00078654,-0.00000832,0.00254198,-0.00080644,-0.00
 155063,-0.23036748,0.03561108,0.12412862,0.00049561,-0.00059995,0.0002
 2295,0.00120074,0.00079432,-0.00094438,-0.01924151,0.00506625,0.014836
 63,0.24632187,0.00004004,-0.00030494,0.00000373,-0.00021765,0.00012912
 ,-0.00004220,0.00073131,-0.00039714,0.00054913,0.00008364,-0.00045499,
 0.00032357,0.00002939,-0.00000316,-0.00007661,-0.00033415,0.00233325,-
 0.00142855,-0.01687509,0.00155131,0.01202798,0.03584966,-0.05453406,-0
 .02588363,0.00032655,0.00032218,-0.00110646,0.00041203,-0.00152191,0.0
 0358305,-0.00685968,0.00037969,0.00556736,-0.03979668,0.05593509,-0.00
 010926,-0.00038368,0.00016397,0.00010687,-0.00000873,0.00001273,-0.000
 12708,0.00002704,-0.00001959,0.00186036,0.00083167,-0.00019403,-0.0005
 8766,0.00009598,0.00001527,-0.00222944,-0.00062038,0.00240962,0.025501
 56,-0.00670345,-0.01831815,0.12175602,-0.02354764,-0.13086760,-0.00000
 113,-0.00056275,0.00097393,-0.00127091,0.00376053,-0.00381458,-0.01428
 842,0.00381271,0.01082744,-0.13515773,0.02391710,0.14313884,-0.0000801
 3,-0.00004588,-0.00007445,-0.00008813,0.00006941,-0.00000352,0.0000105
 7,0.00013998,-0.00013414,-0.00013366,-0.00041769,0.00040782,0.00000468
 ,-0.00003555,-0.00004079,0.00136102,0.00004650,-0.00037687,-0.00230369
 ,0.00107124,0.00050413,-0.04633799,0.01116459,0.00252304,-0.00004584,-
 0.00017561,0.00004820,-0.00000544,0.00006951,-0.00009202,0.00223233,-0
 .02633127,-0.00453716,-0.00016791,0.02645500,0.00469190,0.04548984,0.0
 0009551,0.00011176,0.00002602,0.00015398,-0.00006811,0.00000801,0.0002
 0293,-0.00005772,-0.00003671,-0.00254700,0.00140256,0.00105968,0.00042
 103,-0.00076417,-0.00047117,0.00196276,-0.00317396,0.00347260,0.000471
 78,-0.01512128,-0.00812754,0.01085834,-0.30371737,-0.06040341,0.000398
 22,0.00038545,0.00025077,-0.00046290,0.00040510,0.00011687,0.00063031,
 -0.00570308,-0.00099658,-0.00007259,-0.00337807,-0.00066997,-0.0119893
 8,0.32963595,-0.00008288,-0.00014898,0.00004896,-0.00002027,-0.0000069
 3,0.00000073,-0.00012180,-0.00007696,0.00005846,0.00271785,-0.00050914
 ,-0.00180843,-0.00062020,0.00096825,0.00082638,-0.00215723,0.00761247,
 -0.00398176,-0.00094412,0.02433664,0.01039703,0.00252500,-0.06264325,-
 0.06333362,-0.00065082,-0.00092304,0.00067549,0.00071719,-0.00077649,0
 .00088877,0.00261571,-0.01616674,-0.00419211,-0.00105873,-0.01744395,-
 0.00434661,-0.00292231,0.06577339,0.06476665,-0.11113960,-0.04170543,0
 .00259595,0.07818685,0.03949857,-0.01758803,-0.00860774,-0.01237354,-0
 .00040422,-0.00527547,0.00110239,0.00010554,0.00215031,0.00146486,0.00
 037093,0.00115943,-0.00097773,-0.00031543,0.00000131,0.00045171,-0.000
 15583,-0.00000949,-0.00008833,-0.00005154,0.00017665,0.00000190,0.0001
 4183,0.00012474,-0.00007251,0.00007053,0.00000815,0.00000465,0.0000145
 7,0.00001563,0.00010056,-0.00005622,0.00004879,-0.00007472,0.00000911,
 0.08036647,0.01422374,0.01388484,-0.00333992,-0.00146731,-0.01888847,-
 0.00085310,-0.00406054,-0.00394625,-0.00015552,0.00061599,0.00077819,0
 .00049492,0.00018424,-0.00002296,-0.00012845,-0.00039437,0.00008186,0.
 00000007,0.00006256,-0.00027016,-0.00008922,-0.00000825,0.00004587,-0.
 00001497,0.00009599,0.00001713,0.00004031,0.00002063,0.00002281,0.0000
 1873,0.00000766,0.00000236,-0.00000139,-0.00000194,-0.00003435,-0.0000
 0446,-0.00001726,0.00002097,0.00000334,-0.04379635,0.31843917,-0.00653
 416,-0.00053359,0.00364511,0.00743870,-0.00740602,-0.00595276,0.000121
 13,-0.00150189,-0.00105025,-0.00212924,-0.00034849,0.00066671,0.000910
 10,0.00084787,0.00000628,0.00072866,-0.00037696,-0.00019003,-0.0001055
 3,0.00026171,-0.00019577,0.00004314,-0.00003470,-0.00000459,0.00008035
 ,0.00001266,0.00010722,0.00007533,-0.00003423,0.00005605,0.00001673,0.
 00000505,0.00002272,-0.00002577,0.00005133,-0.00005356,0.00001896,-0.0
 0003425,-0.00000037,-0.02561399,0.25330569,0.20366468,-0.00466481,-0.0
 0137586,0.00334949,0.00389727,0.01485241,0.00868885,0.00396288,0.00282
 264,0.00009674,-0.00259937,-0.00155938,-0.00049051,0.00063991,0.000854
 19,0.00022424,0.00119472,-0.00030816,-0.00015028,-0.00016399,0.0004888
 6,0.00009040,-0.00003087,-0.00006920,0.00005134,-0.00009460,0.00001026
 ,0.00008557,0.00007622,-0.00002771,-0.00000046,0.00004054,0.00000910,-
 0.00000179,-0.00000647,0.00005507,-0.00008885,0.00001557,-0.00004827,-
 0.00000651,-0.03720604,0.03453521,0.02497559,0.03493902,0.00117304,0.0
 0188905,0.00141792,-0.00782852,-0.00332252,-0.00445714,-0.00035766,0.0
 0078787,0.00014282,0.00202903,0.00080215,-0.00002888,-0.00074732,-0.00
 113029,-0.00019046,-0.00049604,0.00012344,0.00009063,0.00005218,-0.000
 13708,0.00002866,0.00002822,0.00001299,-0.00002016,0.00000218,-0.00002
 217,-0.00008835,-0.00006615,0.00001063,-0.00002005,-0.00002964,-0.0000
 0171,0.00000156,0.00001943,-0.00002200,0.00005602,-0.00000357,0.000021
 98,0.00000139,0.05646398,-0.31013101,-0.24421418,-0.05023917,0.3111186
 7,0.00158318,-0.00044509,-0.00034893,-0.00493724,0.00237634,0.00192061
 ,-0.00116383,0.00007980,-0.00019310,0.00188555,0.00058896,0.00024065,-
 0.00067538,-0.00061828,-0.00030506,-0.00075409,0.00027817,0.00012124,0
 .00012805,-0.00032374,0.00004082,-0.00002742,0.00004757,-0.00001723,-0
 .00000083,-0.00000830,-0.00007341,-0.00005515,0.00003155,-0.00002307,-
 0.00002788,-0.00000162,-0.00000668,0.00000483,-0.00004183,0.00007231,-
 0.00001280,0.00003230,0.00000043,0.04087681,-0.24927604,-0.20072144,-0
 .03682380,0.24728021,0.19929286\\0.00334859,0.00117725,-0.00194626,-0.
 02448257,-0.00371203,0.00195899,0.00298595,0.00461996,0.00002546,0.003
 14400,0.00025234,0.00035355,-0.00041245,-0.00011427,-0.00010516,0.0002
 8798,0.00020398,0.00004964,-0.00010969,-0.00000861,0.00008836,0.000015
 78,-0.00000138,-0.00004151,-0.00006677,-0.00010010,-0.00004862,0.00010
 094,-0.00005395,-0.00007071,0.00004464,0.00002990,0.00005514,0.0000109
 4,0.00002249,-0.00000867,-0.00004075,-0.00004498,-0.00002244,0.0140563
 7,-0.00140681,-0.00052372,0.00111703,-0.00086379,0.00023595\\\@


 THE MORE PROGRESS PHYSICAL SCIENCES MAKE, THE MORE THEY TEND TO ENTER
 THE DOMAIN OF MATHEMATICS, WHICH IS A KIND OF CENTRE TO WHICH THEY ALL
 CONVERGE.  WE MAY EVEN JUDGE THE DEGREE OF PERFECTION TO WHICH A 
 SCIENCE HAS ARRIVED BY THE FACILITY WITH WHICH IT MAY BE SUBMITTED
 TO CALCULATION.

                               -- ADOLPHE QUETELET, 1796-1874
 Job cpu time:       0 days  0 hours 50 minutes 53.3 seconds.
 Elapsed time:       0 days  0 hours  2 minutes  7.3 seconds.
 File lengths (MBytes):  RWF=    153 Int=      0 D2E=      0 Chk=      5 Scr=      1
 Normal termination of Gaussian 16 at Sat Mar 29 01:09:44 2025.
