 Entering Gaussian System, Link 0=g16
 Initial command:
 /opt/g16/l1.exe "/home/aayush/scratches/g16/Gau-14014.inp" -scrdir="/home/aayush/scratches/g16/"
 Entering Link 1 = /opt/g16/l1.exe PID=     14017.
  
 Copyright (c) 1988,1990,1992,1993,1995,1998,2003,2009,2016,
            Gaussian, Inc.  All Rights Reserved.
  
 This is part of the Gaussian(R) 16 program.  It is based on
 the Gaussian(R) 09 system (copyright 2009, Gaussian, Inc.),
 the Gaussian(R) 03 system (copyright 2003, Gaussian, Inc.),
 the Gaussian(R) 98 system (copyright 1998, Gaussian, Inc.),
 the Gaussian(R) 94 system (copyright 1995, Gaussian, Inc.),
 the Gaussian 92(TM) system (copyright 1992, Gaussian, Inc.),
 the Gaussian 90(TM) system (copyright 1990, Gaussian, Inc.),
 the Gaussian 88(TM) system (copyright 1988, Gaussian, Inc.),
 the Gaussian 86(TM) system (copyright 1986, Carnegie Mellon
 University), and the Gaussian 82(TM) system (copyright 1983,
 Carnegie Mellon University). Gaussian is a federally registered
 trademark of Gaussian, Inc.
  
 This software contains proprietary and confidential information,
 including trade secrets, belonging to Gaussian, Inc.
  
 This software is provided under written license and may be
 used, copied, transmitted, or stored only in accord with that
 written license.
  
 The following legend is applicable only to US Government
 contracts under FAR:
  
                    RESTRICTED RIGHTS LEGEND
  
 Use, reproduction and disclosure by the US Government is
 subject to restrictions as set forth in subparagraphs (a)
 and (c) of the Commercial Computer Software - Restricted
 Rights clause in FAR 52.227-19.
  
 Gaussian, Inc.
 340 Quinnipiac St., Bldg. 40, Wallingford CT 06492
  
  
 ---------------------------------------------------------------
 Warning -- This program may not be used in any manner that
 competes with the business of Gaussian, Inc. or will provide
 assistance to any competitor of Gaussian, Inc.  The licensee
 of this program is prohibited from giving any competitor of
 Gaussian, Inc. access to this program.  By using this program,
 the user acknowledges that Gaussian, Inc. is engaged in the
 business of creating and licensing software in the field of
 computational chemistry and represents and warrants to the
 licensee that it is not a competitor of Gaussian, Inc. and that
 it will not use this program in any manner prohibited above.
 ---------------------------------------------------------------
  

 Cite this work as:
 Gaussian 16, Revision A.03,
 M. J. Frisch, G. W. Trucks, H. B. Schlegel, G. E. Scuseria, 
 M. A. Robb, J. R. Cheeseman, G. Scalmani, V. Barone, 
 G. A. Petersson, H. Nakatsuji, X. Li, M. Caricato, A. V. Marenich, 
 J. Bloino, B. G. Janesko, R. Gomperts, B. Mennucci, H. P. Hratchian, 
 J. V. Ortiz, A. F. Izmaylov, J. L. Sonnenberg, D. Williams-Young, 
 F. Ding, F. Lipparini, F. Egidi, J. Goings, B. Peng, A. Petrone, 
 T. Henderson, D. Ranasinghe, V. G. Zakrzewski, J. Gao, N. Rega, 
 G. Zheng, W. Liang, M. Hada, M. Ehara, K. Toyota, R. Fukuda, 
 J. Hasegawa, M. Ishida, T. Nakajima, Y. Honda, O. Kitao, H. Nakai, 
 T. Vreven, K. Throssell, J. A. Montgomery, Jr., J. E. Peralta, 
 F. Ogliaro, M. J. Bearpark, J. J. Heyd, E. N. Brothers, K. N. Kudin, 
 V. N. Staroverov, T. A. Keith, R. Kobayashi, J. Normand, 
 K. Raghavachari, A. P. Rendell, J. C. Burant, S. S. Iyengar, 
 J. Tomasi, M. Cossi, J. M. Millam, M. Klene, C. Adamo, R. Cammi, 
 J. W. Ochterski, R. L. Martin, K. Morokuma, O. Farkas, 
 J. B. Foresman, and D. J. Fox, Gaussian, Inc., Wallingford CT, 2016.
 
 ******************************************
 Gaussian 16:  ES64L-G16RevA.03 25-Dec-2016
                23-May-2025 
 ******************************************
 %chk=ethyl_propiolate_planar.chk
 %mem=12GB
 %nprocshared=24
 Will use up to   24 processors via shared memory.
 ------------------------------------------------------
 # opt=(calcfc,tight,noeigentest) freq 6-311++g** m062x
 ------------------------------------------------------
 1/7=10,10=4,11=1,18=20,19=15,26=3,38=1/1,3;
 2/9=110,12=2,17=6,18=5,40=1/2;
 3/5=4,6=6,7=1111,11=2,25=1,30=1,71=2,74=-55,140=1/1,2,3;
 4//1;
 5/5=2,38=5/2;
 8/6=4,10=90,11=11/1;
 11/6=1,8=1,9=11,15=111,16=1/1,2,10;
 10/6=1,13=1/2;
 6/7=2,8=2,9=2,10=2,28=1/1;
 7/10=1,18=20,25=1/1,2,3,16;
 1/7=10,10=4,11=1,18=20,19=15,26=3/3(2);
 2/9=110/2;
 99//99;
 2/9=110/2;
 3/5=4,6=6,7=1111,11=2,25=1,30=1,71=1,74=-55/1,2,3;
 4/5=5,16=3,69=1/1;
 5/5=2,38=5/2;
 7//1,2,3,16;
 1/7=10,11=1,18=20,19=15,26=3/3(-5);
 2/9=110/2;
 6/7=2,8=2,9=2,10=2,19=2,28=1/1;
 99/9=1/99;
 -------------------
 Title Card Required
 -------------------
 Symbolic Z-matrix:
 Charge =  0 Multiplicity = 1
 C                    -2.96457  -0.9415   0. 
 H                    -3.88901  -1.47269  -0.00001 
 C                    -1.91948  -0.33564   0.00001 
 C                    -0.69966   0.43517   0. 
 O                    -0.64517   1.66407  0. 
 O                     0.40188  -0.3574    0. 
 C                     1.70724   0.32023  0. 
 C                     2.75352  -0.77198   0. 
 H                     1.75898   0.95762   0.8867 
 H                     1.75898   0.95762  -0.88671 
 H                     3.75381  -0.32983  0. 
 H                     2.65063  -1.40193   0.88638 
 H                     2.65063  -1.40193  -0.88638 
 

 GradGradGradGradGradGradGradGradGradGradGradGradGradGradGradGradGradGrad
 Berny optimization.
 Initialization pass.
                           ----------------------------
                           !    Initial Parameters    !
                           ! (Angstroms and Degrees)  !
 --------------------------                            --------------------------
 ! Name  Definition              Value          Derivative Info.                !
 --------------------------------------------------------------------------------
 ! R1    R(1,2)                  1.0662         calculate D2E/DX2 analytically  !
 ! R2    R(1,3)                  1.208          calculate D2E/DX2 analytically  !
 ! R3    R(3,4)                  1.4429         calculate D2E/DX2 analytically  !
 ! R4    R(4,5)                  1.2301         calculate D2E/DX2 analytically  !
 ! R5    R(4,6)                  1.357          calculate D2E/DX2 analytically  !
 ! R6    R(6,7)                  1.4708         calculate D2E/DX2 analytically  !
 ! R7    R(7,8)                  1.5125         calculate D2E/DX2 analytically  !
 ! R8    R(7,9)                  1.0932         calculate D2E/DX2 analytically  !
 ! R9    R(7,10)                 1.0932         calculate D2E/DX2 analytically  !
 ! R10   R(8,11)                 1.0937         calculate D2E/DX2 analytically  !
 ! R11   R(8,12)                 1.0923         calculate D2E/DX2 analytically  !
 ! R12   R(8,13)                 1.0923         calculate D2E/DX2 analytically  !
 ! A1    A(3,4,5)              124.8275         calculate D2E/DX2 analytically  !
 ! A2    A(3,4,6)              111.976          calculate D2E/DX2 analytically  !
 ! A3    A(5,4,6)              123.1965         calculate D2E/DX2 analytically  !
 ! A4    A(4,6,7)              116.8304         calculate D2E/DX2 analytically  !
 ! A5    A(6,7,8)              106.3353         calculate D2E/DX2 analytically  !
 ! A6    A(6,7,9)              108.0966         calculate D2E/DX2 analytically  !
 ! A7    A(6,7,10)             108.0968         calculate D2E/DX2 analytically  !
 ! A8    A(8,7,9)              112.8473         calculate D2E/DX2 analytically  !
 ! A9    A(8,7,10)             112.8472         calculate D2E/DX2 analytically  !
 ! A10   A(9,7,10)             108.4026         calculate D2E/DX2 analytically  !
 ! A11   A(7,8,11)             109.9236         calculate D2E/DX2 analytically  !
 ! A12   A(7,8,12)             110.5677         calculate D2E/DX2 analytically  !
 ! A13   A(7,8,13)             110.5676         calculate D2E/DX2 analytically  !
 ! A14   A(11,8,12)            108.6213         calculate D2E/DX2 analytically  !
 ! A15   A(11,8,13)            108.6213         calculate D2E/DX2 analytically  !
 ! A16   A(12,8,13)            108.483          calculate D2E/DX2 analytically  !
 ! A17   L(2,1,3,13,-1)        180.2113         calculate D2E/DX2 analytically  !
 ! A18   L(1,3,4,13,-1)        182.1112         calculate D2E/DX2 analytically  !
 ! A19   L(2,1,3,13,-2)        179.8997         calculate D2E/DX2 analytically  !
 ! A20   L(1,3,4,13,-2)        179.1967         calculate D2E/DX2 analytically  !
 ! D1    D(3,4,5,6)           -179.9997         calculate D2E/DX2 analytically  !
 ! D2    D(3,4,6,7)            179.9999         calculate D2E/DX2 analytically  !
 ! D3    D(5,4,6,7)              0.0002         calculate D2E/DX2 analytically  !
 ! D4    D(4,6,7,8)            179.9999         calculate D2E/DX2 analytically  !
 ! D5    D(4,6,7,9)             58.5708         calculate D2E/DX2 analytically  !
 ! D6    D(4,6,7,10)           -58.571          calculate D2E/DX2 analytically  !
 ! D7    D(6,7,8,11)          -179.9999         calculate D2E/DX2 analytically  !
 ! D8    D(6,7,8,12)           -60.0813         calculate D2E/DX2 analytically  !
 ! D9    D(6,7,8,13)            60.0815         calculate D2E/DX2 analytically  !
 ! D10   D(9,7,8,11)           -61.658          calculate D2E/DX2 analytically  !
 ! D11   D(9,7,8,12)            58.2606         calculate D2E/DX2 analytically  !
 ! D12   D(9,7,8,13)           178.4234         calculate D2E/DX2 analytically  !
 ! D13   D(10,7,8,11)           61.658          calculate D2E/DX2 analytically  !
 ! D14   D(10,7,8,12)         -178.4233         calculate D2E/DX2 analytically  !
 ! D15   D(10,7,8,13)          -58.2606         calculate D2E/DX2 analytically  !
 --------------------------------------------------------------------------------
 Trust Radius=3.00D-01 FncErr=1.00D-07 GrdErr=1.00D-06 EigMax=2.50D+02 EigMin=1.00D-04
 Number of steps in this run=     57 maximum allowed number of steps=    100.
 GradGradGradGradGradGradGradGradGradGradGradGradGradGradGradGradGradGrad

                          Input orientation:                          
 ---------------------------------------------------------------------
 Center     Atomic      Atomic             Coordinates (Angstroms)
 Number     Number       Type             X           Y           Z
 ---------------------------------------------------------------------
      1          6           0       -2.964570   -0.941496   -0.000003
      2          1           0       -3.889009   -1.472693   -0.000011
      3          6           0       -1.919477   -0.335637    0.000005
      4          6           0       -0.699657    0.435166    0.000003
      5          8           0       -0.645169    1.664072   -0.000002
      6          8           0        0.401878   -0.357395    0.000002
      7          6           0        1.707238    0.320232   -0.000002
      8          6           0        2.753516   -0.771976    0.000000
      9          1           0        1.758978    0.957620    0.886703
     10          1           0        1.758979    0.957615   -0.886711
     11          1           0        3.753813   -0.329833   -0.000001
     12          1           0        2.650631   -1.401929    0.886380
     13          1           0        2.650630   -1.401932   -0.886378
 ---------------------------------------------------------------------
                    Distance matrix (angstroms):
                    1          2          3          4          5
     1  C    0.000000
     2  H    1.066188   0.000000
     3  C    1.208008   2.274193   0.000000
     4  C    2.650477   3.716435   1.442948   0.000000
     5  O    3.488353   4.512404   2.371223   1.230113   0.000000
     6  O    3.416745   4.433464   2.321457   1.357031   2.276540
     7  C    4.839189   5.876441   3.685543   2.409638   2.709193
     8  C    5.720598   6.679382   4.693320   3.658086   4.181553
     9  H    5.167668   6.212281   3.998722   2.665348   2.658052
    10  H    5.167668   6.212278   3.998725   2.665353   2.658056
    11  H    6.746169   7.727798   5.673293   4.518697   4.829772
    12  H    5.703346   6.599817   4.775827   3.922373   4.587846
    13  H    5.703344   6.599813   4.775828   3.922375   4.587846
                    6          7          8          9         10
     6  O    0.000000
     7  C    1.470763   0.000000
     8  C    2.387903   1.512487   0.000000
     9  H    2.087396   1.093246   2.183312   0.000000
    10  H    2.087399   1.093246   2.183311   1.773414   0.000000
    11  H    3.352048   2.147336   1.093656   2.534393   2.534391
    12  H    2.633174   2.154415   1.092289   2.522403   3.083236
    13  H    2.633175   2.154414   1.092289   3.083236   2.522400
                   11         12         13
    11  H    0.000000
    12  H    1.775407   0.000000
    13  H    1.775408   1.772758   0.000000
 Stoichiometry    C5H6O2
 Framework group  C1[X(C5H6O2)]
 Deg. of freedom    33
 Full point group                 C1      NOp   1
 Largest Abelian subgroup         C1      NOp   1
 Largest concise Abelian subgroup C1      NOp   1
                         Standard orientation:                         
 ---------------------------------------------------------------------
 Center     Atomic      Atomic             Coordinates (Angstroms)
 Number     Number       Type             X           Y           Z
 ---------------------------------------------------------------------
      1          6           0        2.964570   -0.941496    0.000003
      2          1           0        3.889009   -1.472693    0.000011
      3          6           0        1.919477   -0.335637   -0.000005
      4          6           0        0.699657    0.435166   -0.000003
      5          8           0        0.645169    1.664072    0.000002
      6          8           0       -0.401878   -0.357395   -0.000002
      7          6           0       -1.707238    0.320232    0.000002
      8          6           0       -2.753516   -0.771976    0.000000
      9          1           0       -1.758978    0.957620   -0.886703
     10          1           0       -1.758979    0.957615    0.886711
     11          1           0       -3.753813   -0.329833    0.000001
     12          1           0       -2.650631   -1.401929   -0.886380
     13          1           0       -2.650630   -1.401932    0.886378
 ---------------------------------------------------------------------
 Rotational constants (GHZ):           6.3030797           1.4733912           1.2123855
 Standard basis: 6-311++G(d,p) (5D, 7F)
 There are   203 symmetry adapted cartesian basis functions of A   symmetry.
 There are   196 symmetry adapted basis functions of A   symmetry.
   196 basis functions,   306 primitive gaussians,   203 cartesian basis functions
    26 alpha electrons       26 beta electrons
       nuclear repulsion energy       270.5397975909 Hartrees.
 NAtoms=   13 NActive=   13 NUniq=   13 SFac= 1.00D+00 NAtFMM=   60 NAOKFM=F Big=F
 Integral buffers will be    131072 words long.
 Raffenetti 2 integral format.
 Two-electron integral symmetry is turned on.
 One-electron integrals computed using PRISM.
 NBasis=   196 RedAO= T EigKep=  6.98D-06  NBF=   196
 NBsUse=   195 1.00D-06 EigRej=  8.32D-07 NBFU=   195
 ExpMin= 3.60D-02 ExpMax= 8.59D+03 ExpMxC= 1.30D+03 IAcc=3 IRadAn=         5 AccDes= 0.00D+00
 Harris functional with IExCor= 1009 and IRadAn=       5 diagonalized for initial guess.
 HarFok:  IExCor= 1009 AccDes= 0.00D+00 IRadAn=         5 IDoV= 1 UseB2=F ITyADJ=14
 ICtDFT=  3500011 ScaDFX=  1.000000  1.000000  1.000000  1.000000
 FoFCou: FMM=F IPFlag=           0 FMFlag=      100000 FMFlg1=           0
         NFxFlg=           0 DoJE=T BraDBF=F KetDBF=T FulRan=T
         wScrn=  0.000000 ICntrl=       500 IOpCl=  0 I1Cent=   200000004 NGrid=           0
         NMat0=    1 NMatS0=      1 NMatT0=    0 NMatD0=    1 NMtDS0=    0 NMtDT0=    0
 Petite list used in FoFCou.
 Requested convergence on RMS density matrix=1.00D-08 within 128 cycles.
 Requested convergence on MAX density matrix=1.00D-06.
 Requested convergence on             energy=1.00D-06.
 No special actions if energy rises.
 SCF Done:  E(RM062X) =  -344.474687985     A.U. after   13 cycles
            NFock= 13  Conv=0.90D-08     -V/T= 2.0043
 DoSCS=F DFT=T ScalE2(SS,OS)=  1.000000  1.000000
 Range of M.O.s used for correlation:     1   195
 NBasis=   196 NAE=    26 NBE=    26 NFC=     0 NFV=     0
 NROrb=    195 NOA=    26 NOB=    26 NVA=   169 NVB=   169

 **** Warning!!: The largest alpha MO coefficient is  0.18431239D+03

 Symmetrizing basis deriv contribution to polar:
 IMax=3 JMax=2 DiffMx= 0.00D+00
 G2DrvN: will do    14 centers at a time, making    1 passes.
 Calling FoFCou, ICntrl=  3107 FMM=F I1Cent=   0 AccDes= 0.00D+00.
 End of G2Drv F.D. properties file   721 does not exist.
 End of G2Drv F.D. properties file   722 does not exist.
 End of G2Drv F.D. properties file   788 does not exist.
          IDoAtm=1111111111111
          Differentiating once with respect to nuclear coordinates.
 Keep R1 ints in memory in canonical form, NReq=211019331.
          There are    42 degrees of freedom in the 1st order CPHF.  IDoFFX=6 NUNeed=     0.
     36 vectors produced by pass  0 Test12= 1.05D-14 2.38D-09 XBig12= 1.31D-01 7.58D-02.
 AX will form    36 AO Fock derivatives at one time.
     36 vectors produced by pass  1 Test12= 1.05D-14 2.38D-09 XBig12= 1.71D-02 3.44D-02.
     36 vectors produced by pass  2 Test12= 1.05D-14 2.38D-09 XBig12= 3.95D-04 4.41D-03.
     36 vectors produced by pass  3 Test12= 1.05D-14 2.38D-09 XBig12= 6.70D-06 4.61D-04.
     36 vectors produced by pass  4 Test12= 1.05D-14 2.38D-09 XBig12= 5.84D-08 3.30D-05.
     36 vectors produced by pass  5 Test12= 1.05D-14 2.38D-09 XBig12= 3.16D-10 2.50D-06.
     25 vectors produced by pass  6 Test12= 1.05D-14 2.38D-09 XBig12= 1.29D-12 1.27D-07.
      8 vectors produced by pass  7 Test12= 1.05D-14 2.38D-09 XBig12= 4.20D-15 6.79D-09.
 InvSVY:  IOpt=1 It=  1 EMax= 1.33D-15
 Solved reduced A of dimension   249 with    36 vectors.
 End of Minotr F.D. properties file   721 does not exist.
 End of Minotr F.D. properties file   722 does not exist.
 End of Minotr F.D. properties file   788 does not exist.

 **********************************************************************

            Population analysis using the SCF density.

 **********************************************************************

 Orbital symmetries:
       Occupied  (A) (A) (A) (A) (A) (A) (A) (A) (A) (A) (A) (A)
                 (A) (A) (A) (A) (A) (A) (A) (A) (A) (A) (A) (A)
                 (A) (A)
       Virtual   (A) (A) (A) (A) (A) (A) (A) (A) (A) (A) (A) (A)
                 (A) (A) (A) (A) (A) (A) (A) (A) (A) (A) (A) (A)
                 (A) (A) (A) (A) (A) (A) (A) (A) (A) (A) (A) (A)
                 (A) (A) (A) (A) (A) (A) (A) (A) (A) (A) (A) (A)
                 (A) (A) (A) (A) (A) (A) (A) (A) (A) (A) (A) (A)
                 (A) (A) (A) (A) (A) (A) (A) (A) (A) (A) (A) (A)
                 (A) (A) (A) (A) (A) (A) (A) (A) (A) (A) (A) (A)
                 (A) (A) (A) (A) (A) (A) (A) (A) (A) (A) (A) (A)
                 (A) (A) (A) (A) (A) (A) (A) (A) (A) (A) (A) (A)
                 (A) (A) (A) (A) (A) (A) (A) (A) (A) (A) (A) (A)
                 (A) (A) (A) (A) (A) (A) (A) (A) (A) (A) (A) (A)
                 (A) (A) (A) (A) (A) (A) (A) (A) (A) (A) (A) (A)
                 (A) (A) (A) (A) (A) (A) (A) (A) (A) (A) (A) (A)
                 (A) (A) (A) (A) (A) (A) (A) (A) (A) (A) (A) (A)
                 (A)
 The electronic state is 1-A.
 Alpha  occ. eigenvalues --  -19.68163 -19.63215 -10.70945 -10.60937 -10.57674
 Alpha  occ. eigenvalues --  -10.57231 -10.54295  -1.23784  -1.14576  -0.90389
 Alpha  occ. eigenvalues --   -0.87135  -0.77393  -0.70294  -0.64729  -0.60895
 Alpha  occ. eigenvalues --   -0.58299  -0.56865  -0.51195  -0.48987  -0.47184
 Alpha  occ. eigenvalues --   -0.43987  -0.43486  -0.39084  -0.38440  -0.37127
 Alpha  occ. eigenvalues --   -0.36140
 Alpha virt. eigenvalues --   -0.02350  -0.00247   0.00619   0.02153   0.02264
 Alpha virt. eigenvalues --    0.03134   0.03624   0.05674   0.06165   0.06648
 Alpha virt. eigenvalues --    0.06909   0.08062   0.09059   0.09344   0.11044
 Alpha virt. eigenvalues --    0.12376   0.12957   0.12961   0.13440   0.13918
 Alpha virt. eigenvalues --    0.14338   0.14740   0.15764   0.16885   0.17621
 Alpha virt. eigenvalues --    0.18128   0.19077   0.19811   0.20620   0.22420
 Alpha virt. eigenvalues --    0.23447   0.23591   0.24807   0.26623   0.27976
 Alpha virt. eigenvalues --    0.30754   0.31008   0.31419   0.31963   0.32449
 Alpha virt. eigenvalues --    0.33436   0.35836   0.37376   0.39075   0.42248
 Alpha virt. eigenvalues --    0.43193   0.45645   0.47494   0.49852   0.53030
 Alpha virt. eigenvalues --    0.53591   0.55860   0.56517   0.59630   0.63278
 Alpha virt. eigenvalues --    0.63594   0.67940   0.68536   0.69205   0.69452
 Alpha virt. eigenvalues --    0.69998   0.70611   0.72682   0.74338   0.75440
 Alpha virt. eigenvalues --    0.80243   0.80679   0.85243   0.89458   0.90213
 Alpha virt. eigenvalues --    0.94010   1.02754   1.03282   1.06814   1.10846
 Alpha virt. eigenvalues --    1.14250   1.15663   1.17457   1.18704   1.21756
 Alpha virt. eigenvalues --    1.23425   1.23688   1.28904   1.29596   1.31103
 Alpha virt. eigenvalues --    1.33871   1.36051   1.39287   1.44759   1.49719
 Alpha virt. eigenvalues --    1.50813   1.57702   1.57749   1.57968   1.60329
 Alpha virt. eigenvalues --    1.61956   1.63181   1.65462   1.66999   1.69100
 Alpha virt. eigenvalues --    1.69387   1.75560   1.76259   1.83959   1.84340
 Alpha virt. eigenvalues --    1.86422   1.90458   1.95836   1.98614   2.01886
 Alpha virt. eigenvalues --    2.05455   2.11074   2.13414   2.19527   2.26770
 Alpha virt. eigenvalues --    2.35832   2.41250   2.49040   2.49719   2.51207
 Alpha virt. eigenvalues --    2.53887   2.58334   2.60656   2.63372   2.64730
 Alpha virt. eigenvalues --    2.65485   2.66362   2.68103   2.72148   2.80806
 Alpha virt. eigenvalues --    2.82345   2.86080   2.88314   2.95484   2.96342
 Alpha virt. eigenvalues --    3.02469   3.03112   3.06109   3.10211   3.10594
 Alpha virt. eigenvalues --    3.19410   3.25953   3.27699   3.31678   3.34853
 Alpha virt. eigenvalues --    3.39684   3.53849   3.63875   3.70983   3.82501
 Alpha virt. eigenvalues --    3.84657   3.84923   4.07645   4.12147   4.15820
 Alpha virt. eigenvalues --    4.28854   5.11465   5.15936   5.31431   5.41753
 Alpha virt. eigenvalues --    5.67619   5.92400  23.60789  23.89196  23.92164
 Alpha virt. eigenvalues --   24.04273  25.14201  49.98954  50.08284
          Condensed to atoms (all electrons):
               1          2          3          4          5          6
     1  C    6.323265   0.459786  -1.303652   1.315590  -0.101034  -0.093241
     2  H    0.459786   0.423756  -0.098430   0.038741  -0.003075  -0.004914
     3  C   -1.303652  -0.098430   9.306752  -2.607873   0.115436  -0.232518
     4  C    1.315590   0.038741  -2.607873   7.443188   0.368186   0.048999
     5  O   -0.101034  -0.003075   0.115436   0.368186   8.022988  -0.124938
     6  O   -0.093241  -0.004914  -0.232518   0.048999  -0.124938   8.411104
     7  C    0.063008   0.000511  -0.368259  -0.044238  -0.045031   0.269524
     8  C    0.019737   0.000890  -0.050341   0.096852   0.024744  -0.173745
     9  H   -0.001030  -0.000079  -0.002696  -0.008376  -0.010761  -0.034008
    10  H   -0.001030  -0.000079  -0.002695  -0.008376  -0.010760  -0.034008
    11  H   -0.000574  -0.000013   0.001280  -0.002521   0.001385   0.023162
    12  H   -0.000609  -0.000023   0.004661   0.000090  -0.001130  -0.009821
    13  H   -0.000609  -0.000023   0.004661   0.000090  -0.001130  -0.009821
               7          8          9         10         11         12
     1  C    0.063008   0.019737  -0.001030  -0.001030  -0.000574  -0.000609
     2  H    0.000511   0.000890  -0.000079  -0.000079  -0.000013  -0.000023
     3  C   -0.368259  -0.050341  -0.002696  -0.002695   0.001280   0.004661
     4  C   -0.044238   0.096852  -0.008376  -0.008376  -0.002521   0.000090
     5  O   -0.045031   0.024744  -0.010761  -0.010760   0.001385  -0.001130
     6  O    0.269524  -0.173745  -0.034008  -0.034008   0.023162  -0.009821
     7  C    5.440931   0.090349   0.428857   0.428856  -0.038924  -0.033333
     8  C    0.090349   5.487761  -0.051477  -0.051477   0.399638   0.399879
     9  H    0.428857  -0.051477   0.533268  -0.049850  -0.004096  -0.010017
    10  H    0.428856  -0.051477  -0.049850   0.533268  -0.004096   0.007059
    11  H   -0.038924   0.399638  -0.004096  -0.004096   0.525871  -0.032607
    12  H   -0.033333   0.399879  -0.010017   0.007059  -0.032607   0.537653
    13  H   -0.033333   0.399879   0.007059  -0.010017  -0.032607  -0.039340
              13
     1  C   -0.000609
     2  H   -0.000023
     3  C    0.004661
     4  C    0.000090
     5  O   -0.001130
     6  O   -0.009821
     7  C   -0.033333
     8  C    0.399879
     9  H    0.007059
    10  H   -0.010017
    11  H   -0.032607
    12  H   -0.039340
    13  H    0.537653
 Mulliken charges:
               1
     1  C   -0.679608
     2  H    0.182953
     3  C    1.233674
     4  C   -0.640350
     5  O   -0.234881
     6  O   -0.035774
     7  C   -0.158918
     8  C   -0.592689
     9  H    0.203208
    10  H    0.203208
    11  H    0.164101
    12  H    0.177538
    13  H    0.177538
 Sum of Mulliken charges =  -0.00000
 Mulliken charges with hydrogens summed into heavy atoms:
               1
     1  C   -0.496655
     3  C    1.233674
     4  C   -0.640350
     5  O   -0.234881
     6  O   -0.035774
     7  C    0.247498
     8  C   -0.073512
 APT charges:
               1
     1  C    0.405094
     2  H    0.985898
     3  C   -0.803839
     4  C   -0.533092
     5  O   -0.156956
     6  O    0.003560
     7  C   -0.636001
     8  C   -1.391779
     9  H    0.396429
    10  H    0.396431
    11  H    0.647477
    12  H    0.343390
    13  H    0.343389
 Sum of APT charges =  -0.00000
 APT charges with hydrogens summed into heavy atoms:
               1
     1  C    1.390992
     3  C   -0.803839
     4  C   -0.533092
     5  O   -0.156956
     6  O    0.003560
     7  C    0.156859
     8  C   -0.057523
 Electronic spatial extent (au):  <R**2>=            945.2151
 Charge=             -0.0000 electrons
 Dipole moment (field-independent basis, Debye):
    X=             -0.8261    Y=             -2.0233    Z=              0.0000  Tot=              2.1855
 Quadrupole moment (field-independent basis, Debye-Ang):
   XX=            -28.8120   YY=            -46.1667   ZZ=            -41.1270
   XY=             -6.4056   XZ=              0.0000   YZ=             -0.0000
 Traceless Quadrupole moment (field-independent basis, Debye-Ang):
   XX=              9.8899   YY=             -7.4648   ZZ=             -2.4251
   XY=             -6.4056   XZ=              0.0000   YZ=             -0.0000
 Octapole moment (field-independent basis, Debye-Ang**2):
  XXX=             22.7166  YYY=             -6.5439  ZZZ=              0.0000  XYY=             -0.8565
  XXY=            -18.8791  XXZ=              0.0002  XZZ=             -5.0026  YZZ=              2.6693
  YYZ=              0.0000  XYZ=             -0.0001
 Hexadecapole moment (field-independent basis, Debye-Ang**3):
 XXXX=           -802.9831 YYYY=           -253.7471 ZZZZ=            -55.4796 XXXY=            -87.7275
 XXXZ=              0.0009 YYYX=            -11.9477 YYYZ=             -0.0001 ZZZX=              0.0000
 ZZZY=             -0.0000 XXYY=           -180.2673 XXZZ=           -183.8594 YYZZ=            -47.0682
 XXYZ=             -0.0003 YYXZ=              0.0001 ZZXY=              3.6208
 N-N= 2.705397975909D+02 E-N=-1.346159151996D+03  KE= 3.430014339165D+02
  Exact polarizability:   0.000   0.000   0.000   0.000   0.000   0.000
 Approx polarizability:  88.891 -15.728  79.746   0.000  -0.000  50.847
 Calling FoFJK, ICntrl=    100147 FMM=F ISym2X=0 I1Cent= 0 IOpClX= 0 NMat=1 NMatS=1 NMatT=0.
 ***** Axes restored to original set *****
 -------------------------------------------------------------------
 Center     Atomic                   Forces (Hartrees/Bohr)
 Number     Number              X              Y              Z
 -------------------------------------------------------------------
      1        6           0.017377760    0.010260002    0.000000166
      2        1           0.000802029    0.000313556    0.000000099
      3        6          -0.020619492   -0.011927877   -0.000000295
      4        6           0.031984861    0.040471014   -0.000000582
      5        8          -0.005517110   -0.047207894    0.000000395
      6        8          -0.006783655    0.012756406   -0.000000020
      7        6          -0.014656798   -0.003991107    0.000000030
      8        6          -0.000503454   -0.000219191   -0.000000038
      9        1          -0.000393670   -0.001030442   -0.001152133
     10        1          -0.000394049   -0.001030598    0.001152301
     11        1          -0.001641097   -0.000193679   -0.000000034
     12        1           0.000172302    0.000899878   -0.000842921
     13        1           0.000172372    0.000899931    0.000843031
 -------------------------------------------------------------------
 Cartesian Forces:  Max     0.047207894 RMS     0.012756203
 FormGI is forming the generalized inverse of G from B-inverse, IUseBI=4.

 GradGradGradGradGradGradGradGradGradGradGradGradGradGradGradGradGradGrad
 Berny optimization.
 Internal  Forces:  Max     0.047406122 RMS     0.008965881
 Search for a local minimum.
 Step number   1 out of a maximum of   57
 All quantities printed in internal units (Hartrees-Bohrs-Radians)
 Mixed Optimization -- RFO/linear search
 Second derivative matrix not updated -- analytic derivatives used.
 ITU=  0
     Eigenvalues ---    0.00245   0.00303   0.01866   0.02011   0.03416
     Eigenvalues ---    0.04317   0.04425   0.04587   0.04690   0.05799
     Eigenvalues ---    0.06048   0.08435   0.09252   0.11826   0.12492
     Eigenvalues ---    0.13391   0.16541   0.17396   0.22244   0.23911
     Eigenvalues ---    0.25620   0.29903   0.32598   0.33717   0.34217
     Eigenvalues ---    0.34304   0.34884   0.35262   0.38899   0.41183
     Eigenvalues ---    0.42933   0.76306   1.07624
 RFO step:  Lambda=-6.31654694D-03 EMin= 2.45303962D-03
 Linear search not attempted -- first point.
 Iteration  1 RMS(Cart)=  0.02749325 RMS(Int)=  0.00020846
 Iteration  2 RMS(Cart)=  0.00026253 RMS(Int)=  0.00003945
 Iteration  3 RMS(Cart)=  0.00000007 RMS(Int)=  0.00003945
 Variable       Old X    -DE/DX   Delta X   Delta X   Delta X     New X
                                 (Linear)    (Quad)   (Total)
    R1        2.01480  -0.00085   0.00000  -0.00265  -0.00265   2.01216
    R2        2.28281  -0.02103   0.00000  -0.01947  -0.01947   2.26334
    R3        2.72678   0.00279   0.00000   0.02538   0.02538   2.75216
    R4        2.32458  -0.04741   0.00000  -0.06439  -0.06439   2.26018
    R5        2.56442  -0.02423   0.00000  -0.04755  -0.04755   2.51687
    R6        2.77934  -0.01745   0.00000  -0.06165  -0.06165   2.71769
    R7        2.85819  -0.00225   0.00000  -0.00274  -0.00274   2.85545
    R8        2.06594  -0.00155   0.00000  -0.00264  -0.00264   2.06330
    R9        2.06594  -0.00155   0.00000  -0.00264  -0.00264   2.06330
   R10        2.06671  -0.00158   0.00000  -0.00464  -0.00464   2.06207
   R11        2.06413  -0.00122   0.00000  -0.00320  -0.00320   2.06093
   R12        2.06413  -0.00122   0.00000  -0.00320  -0.00320   2.06093
    A1        2.17865  -0.00273   0.00000  -0.01594  -0.01594   2.16271
    A2        1.95435  -0.00249   0.00000  -0.01474  -0.01474   1.93961
    A3        2.15018   0.00522   0.00000   0.03068   0.03068   2.18086
    A4        2.03908  -0.01142   0.00000  -0.02505  -0.02505   2.01402
    A5        1.85590   0.00042   0.00000   0.01389   0.01390   1.86981
    A6        1.88664  -0.00034   0.00000   0.00664   0.00667   1.89332
    A7        1.88664  -0.00034   0.00000   0.00663   0.00667   1.89332
    A8        1.96956   0.00007   0.00000  -0.00928  -0.00939   1.96017
    A9        1.96956   0.00007   0.00000  -0.00928  -0.00939   1.96017
   A10        1.89198   0.00009   0.00000  -0.00672  -0.00688   1.88511
   A11        1.91853  -0.00075   0.00000  -0.00362  -0.00362   1.91491
   A12        1.92977   0.00002   0.00000   0.00082   0.00082   1.93059
   A13        1.92977   0.00002   0.00000   0.00082   0.00082   1.93059
   A14        1.89580   0.00025   0.00000  -0.00021  -0.00021   1.89559
   A15        1.89580   0.00025   0.00000  -0.00021  -0.00021   1.89559
   A16        1.89339   0.00023   0.00000   0.00244   0.00244   1.89582
   A17        3.14528  -0.00025   0.00000  -0.00330  -0.00330   3.14199
   A18        3.17844  -0.00019   0.00000   0.00149   0.00149   3.17993
   A19        3.13984   0.00004   0.00000   0.00130   0.00130   3.14114
   A20        3.12757   0.00004   0.00000  -0.00064  -0.00064   3.12693
    D1       -3.14159  -0.00000   0.00000  -0.00000  -0.00000   3.14159
    D2        3.14159   0.00000   0.00000   0.00000   0.00000  -3.14159
    D3        0.00000  -0.00000   0.00000  -0.00000  -0.00000   0.00000
    D4        3.14159  -0.00000   0.00000  -0.00000  -0.00000   3.14159
    D5        1.02225  -0.00013   0.00000  -0.00042  -0.00047   1.02179
    D6       -1.02226   0.00013   0.00000   0.00042   0.00046  -1.02180
    D7       -3.14159  -0.00000   0.00000  -0.00000  -0.00000  -3.14159
    D8       -1.04862  -0.00015   0.00000  -0.00206  -0.00206  -1.05068
    D9        1.04862   0.00015   0.00000   0.00206   0.00206   1.05068
   D10       -1.07613  -0.00011   0.00000   0.01175   0.01169  -1.06445
   D11        1.01684  -0.00027   0.00000   0.00968   0.00963   1.02647
   D12        3.11408   0.00004   0.00000   0.01381   0.01375   3.12783
   D13        1.07614   0.00011   0.00000  -0.01175  -0.01169   1.06445
   D14       -3.11407  -0.00004   0.00000  -0.01381  -0.01375  -3.12783
   D15       -1.01684   0.00027   0.00000  -0.00968  -0.00963  -1.02647
         Item               Value     Threshold  Converged?
 Maximum Force            0.047406     0.000015     NO 
 RMS     Force            0.008966     0.000010     NO 
 Maximum Displacement     0.069009     0.000060     NO 
 RMS     Displacement     0.027516     0.000040     NO 
 Predicted change in Energy=-3.204794D-03
 GradGradGradGradGradGradGradGradGradGradGradGradGradGradGradGradGradGrad

                          Input orientation:                          
 ---------------------------------------------------------------------
 Center     Atomic      Atomic             Coordinates (Angstroms)
 Number     Number       Type             X           Y           Z
 ---------------------------------------------------------------------
      1          6           0       -2.939871   -0.925845    0.000061
      2          1           0       -3.865385   -1.452338   -0.000001
      3          6           0       -1.899090   -0.333160   -0.000045
      4          6           0       -0.663139    0.437206   -0.000023
      5          8           0       -0.621838    1.632531   -0.000005
      6          8           0        0.401474   -0.363090   -0.000023
      7          6           0        1.675120    0.304793   -0.000001
      8          6           0        2.739921   -0.767323    0.000002
      9          1           0        1.730634    0.944084    0.883379
     10          1           0        1.730655    0.944101   -0.883367
     11          1           0        3.728177   -0.304648    0.000019
     12          1           0        2.650550   -1.397256    0.885775
     13          1           0        2.650573   -1.397240   -0.885785
 ---------------------------------------------------------------------
                    Distance matrix (angstroms):
                    1          2          3          4          5
     1  C    0.000000
     2  H    1.064787   0.000000
     3  C    1.197706   2.262493   0.000000
     4  C    2.653567   3.718166   1.456379   0.000000
     5  O    3.452327   4.476272   2.344208   1.196038   0.000000
     6  O    3.388404   4.403697   2.300759   1.331869   2.242693
     7  C    4.776255   5.812461   3.630697   2.342005   2.653094
     8  C    5.682004   6.640731   4.659283   3.609945   4.130462
     9  H    5.107886   6.151310   3.947997   2.601436   2.605465
    10  H    5.107931   6.151334   3.948000   2.601440   2.605473
    11  H    6.696922   7.679803   5.627340   4.453539   4.761858
    12  H    5.679747   6.576096   4.755650   3.889785   4.546729
    13  H    5.679789   6.576119   4.755653   3.889788   4.546733
                    6          7          8          9         10
     6  O    0.000000
     7  C    1.438139   0.000000
     8  C    2.373128   1.511037   0.000000
     9  H    2.062951   1.091849   2.174380   0.000000
    10  H    2.062951   1.091849   2.174380   1.766746   0.000000
    11  H    3.327217   2.141602   1.091201   2.515917   2.515917
    12  H    2.629160   2.152448   1.090595   2.515577   3.075390
    13  H    2.629160   2.152449   1.090595   3.075390   2.515577
                   11         12         13
    11  H    0.000000
    12  H    1.771902   0.000000
    13  H    1.771902   1.771560   0.000000
 Stoichiometry    C5H6O2
 Framework group  C1[X(C5H6O2)]
 Deg. of freedom    33
 Full point group                 C1      NOp   1
 Largest Abelian subgroup         C1      NOp   1
 Largest concise Abelian subgroup C1      NOp   1
                         Standard orientation:                         
 ---------------------------------------------------------------------
 Center     Atomic      Atomic             Coordinates (Angstroms)
 Number     Number       Type             X           Y           Z
 ---------------------------------------------------------------------
      1          6           0        2.945729   -0.923905   -0.000066
      2          1           0        3.870854   -1.451080   -0.000004
      3          6           0        1.905384   -0.330453    0.000041
      4          6           0        0.670001    0.440823    0.000018
      5          8           0        0.629581    1.636178    0.000001
      6          8           0       -0.395201   -0.358689    0.000018
      7          6           0       -1.668355    0.310133   -0.000004
      8          6           0       -2.733945   -0.761198   -0.000007
      9          1           0       -1.723397    0.949464   -0.883384
     10          1           0       -1.723419    0.949481    0.883362
     11          1           0       -3.721861   -0.297795   -0.000023
     12          1           0       -2.645039   -1.391197   -0.885779
     13          1           0       -2.645061   -1.391181    0.885780
 ---------------------------------------------------------------------
 Rotational constants (GHZ):           6.4887871           1.5015242           1.2382082
 Standard basis: 6-311++G(d,p) (5D, 7F)
 There are   203 symmetry adapted cartesian basis functions of A   symmetry.
 There are   196 symmetry adapted basis functions of A   symmetry.
   196 basis functions,   306 primitive gaussians,   203 cartesian basis functions
    26 alpha electrons       26 beta electrons
       nuclear repulsion energy       273.6719429426 Hartrees.
 NAtoms=   13 NActive=   13 NUniq=   13 SFac= 1.00D+00 NAtFMM=   60 NAOKFM=F Big=F
 Integral buffers will be    131072 words long.
 Raffenetti 2 integral format.
 Two-electron integral symmetry is turned on.
 One-electron integrals computed using PRISM.
 NBasis=   196 RedAO= T EigKep=  7.00D-06  NBF=   196
 NBsUse=   195 1.00D-06 EigRej=  8.32D-07 NBFU=   195
 Initial guess from the checkpoint file:  "ethyl_propiolate_planar.chk"
 B after Tr=    -0.000000   -0.000000   -0.000000
         Rot=    1.000000   -0.000003   -0.000001   -0.000498 Ang=  -0.06 deg.
 ExpMin= 3.60D-02 ExpMax= 8.59D+03 ExpMxC= 1.30D+03 IAcc=3 IRadAn=         5 AccDes= 0.00D+00
 Harris functional with IExCor= 1009 and IRadAn=       5 diagonalized for initial guess.
 HarFok:  IExCor= 1009 AccDes= 0.00D+00 IRadAn=         5 IDoV= 1 UseB2=F ITyADJ=14
 ICtDFT=  3500011 ScaDFX=  1.000000  1.000000  1.000000  1.000000
 FoFCou: FMM=F IPFlag=           0 FMFlag=      100000 FMFlg1=           0
         NFxFlg=           0 DoJE=T BraDBF=F KetDBF=T FulRan=T
         wScrn=  0.000000 ICntrl=       500 IOpCl=  0 I1Cent=   200000004 NGrid=           0
         NMat0=    1 NMatS0=      1 NMatT0=    0 NMatD0=    1 NMtDS0=    0 NMtDT0=    0
 Petite list used in FoFCou.
 Requested convergence on RMS density matrix=1.00D-08 within 128 cycles.
 Requested convergence on MAX density matrix=1.00D-06.
 Requested convergence on             energy=1.00D-06.
 No special actions if energy rises.
 SCF Done:  E(RM062X) =  -344.477680058     A.U. after   12 cycles
            NFock= 12  Conv=0.39D-08     -V/T= 2.0034
 Calling FoFJK, ICntrl=      2127 FMM=F ISym2X=0 I1Cent= 0 IOpClX= 0 NMat=1 NMatS=1 NMatT=0.
 ***** Axes restored to original set *****
 -------------------------------------------------------------------
 Center     Atomic                   Forces (Hartrees/Bohr)
 Number     Number              X              Y              Z
 -------------------------------------------------------------------
      1        6          -0.000567727   -0.000290004   -0.000009633
      2        1           0.000009141   -0.000003413    0.000004247
      3        6          -0.000013870   -0.000106208    0.000006779
      4        6          -0.001129144   -0.004474517   -0.000001593
      5        8           0.000118582    0.005773238    0.000000172
      6        8           0.000050151   -0.001388583   -0.000000018
      7        6           0.001168467    0.000264029    0.000000052
      8        6           0.000033594    0.000016370    0.000000002
      9        1           0.000155091    0.000081199   -0.000046605
     10        1           0.000155094    0.000081198    0.000046607
     11        1          -0.000010961    0.000003390   -0.000000006
     12        1           0.000015797    0.000021651    0.000005655
     13        1           0.000015786    0.000021651   -0.000005660
 -------------------------------------------------------------------
 Cartesian Forces:  Max     0.005773238 RMS     0.001224673

 GradGradGradGradGradGradGradGradGradGradGradGradGradGradGradGradGradGrad
 Berny optimization.
 Using GEDIIS/GDIIS optimizer.
 FormGI is forming the generalized inverse of G from B-inverse, IUseBI=4.
 Internal  Forces:  Max     0.005773916 RMS     0.000931648
 Search for a local minimum.
 Step number   2 out of a maximum of   57
 All quantities printed in internal units (Hartrees-Bohrs-Radians)
 Mixed Optimization -- En-DIIS/RFO-DIIS
 Update second derivatives using D2CorX and points    1    2
 DE= -2.99D-03 DEPred=-3.20D-03 R= 9.34D-01
 TightC=F SS=  1.41D+00  RLast= 1.21D-01 DXNew= 5.0454D-01 3.6410D-01
 Trust test= 9.34D-01 RLast= 1.21D-01 DXMaxT set to 3.64D-01
 ITU=  1  0
 Use linear search instead of GDIIS.
     Eigenvalues ---    0.00245   0.00303   0.01866   0.02011   0.03416
     Eigenvalues ---    0.04318   0.04425   0.04596   0.04690   0.05799
     Eigenvalues ---    0.06048   0.08435   0.09260   0.11825   0.12492
     Eigenvalues ---    0.13392   0.16541   0.17385   0.22274   0.23946
     Eigenvalues ---    0.25538   0.30265   0.32654   0.33717   0.34217
     Eigenvalues ---    0.34304   0.34893   0.35313   0.38890   0.41182
     Eigenvalues ---    0.43078   0.82630   1.07456
 RFO step:  Lambda=-1.18403636D-05 EMin= 2.45303959D-03
 Quartic linear search produced a step of -0.07401.
 Iteration  1 RMS(Cart)=  0.00229766 RMS(Int)=  0.00000287
 Iteration  2 RMS(Cart)=  0.00000111 RMS(Int)=  0.00000281
 Iteration  3 RMS(Cart)=  0.00000000 RMS(Int)=  0.00000281
 Variable       Old X    -DE/DX   Delta X   Delta X   Delta X     New X
                                 (Linear)    (Quad)   (Total)
    R1        2.01216  -0.00001   0.00020  -0.00022  -0.00003   2.01213
    R2        2.26334   0.00063   0.00144  -0.00098   0.00047   2.26380
    R3        2.75216   0.00070  -0.00188   0.00268   0.00081   2.75296
    R4        2.26018   0.00577   0.00477   0.00201   0.00677   2.26696
    R5        2.51687   0.00181   0.00352  -0.00174   0.00178   2.51865
    R6        2.71769   0.00158   0.00456  -0.00046   0.00411   2.72180
    R7        2.85545  -0.00001   0.00020  -0.00056  -0.00035   2.85509
    R8        2.06330   0.00002   0.00020  -0.00025  -0.00006   2.06324
    R9        2.06330   0.00002   0.00020  -0.00025  -0.00006   2.06324
   R10        2.06207  -0.00001   0.00034  -0.00036  -0.00002   2.06206
   R11        2.06093  -0.00001   0.00024  -0.00033  -0.00009   2.06083
   R12        2.06093  -0.00001   0.00024  -0.00033  -0.00009   2.06083
    A1        2.16271  -0.00004   0.00118  -0.00173  -0.00055   2.16216
    A2        1.93961  -0.00010   0.00109  -0.00060   0.00049   1.94010
    A3        2.18086   0.00014  -0.00227   0.00233   0.00006   2.18092
    A4        2.01402   0.00083   0.00185  -0.00047   0.00138   2.01541
    A5        1.86981   0.00003  -0.00103   0.00145   0.00042   1.87023
    A6        1.89332   0.00009  -0.00049   0.00122   0.00072   1.89403
    A7        1.89332   0.00009  -0.00049   0.00122   0.00072   1.89404
    A8        1.96017  -0.00008   0.00070  -0.00096  -0.00026   1.95991
    A9        1.96017  -0.00008   0.00069  -0.00096  -0.00026   1.95991
   A10        1.88511  -0.00003   0.00051  -0.00176  -0.00124   1.88386
   A11        1.91491  -0.00002   0.00027  -0.00125  -0.00099   1.91392
   A12        1.93059   0.00000  -0.00006   0.00047   0.00041   1.93100
   A13        1.93059   0.00000  -0.00006   0.00047   0.00041   1.93099
   A14        1.89559  -0.00000   0.00002  -0.00024  -0.00022   1.89537
   A15        1.89559  -0.00000   0.00002  -0.00024  -0.00022   1.89537
   A16        1.89582   0.00001  -0.00018   0.00079   0.00061   1.89643
   A17        3.14199  -0.00001   0.00024  -0.00076  -0.00052   3.14147
   A18        3.17993   0.00003  -0.00011   0.00050   0.00039   3.18032
   A19        3.14114   0.00001  -0.00010   0.00073   0.00063   3.14178
   A20        3.12693  -0.00001   0.00005  -0.00042  -0.00037   3.12656
    D1        3.14159  -0.00000   0.00000  -0.00000  -0.00000   3.14159
    D2       -3.14159   0.00000  -0.00000   0.00000   0.00000  -3.14159
    D3        0.00000  -0.00000   0.00000  -0.00000  -0.00000  -0.00000
    D4        3.14159  -0.00000   0.00000   0.00001   0.00001  -3.14159
    D5        1.02179   0.00003   0.00003  -0.00038  -0.00034   1.02145
    D6       -1.02180  -0.00003  -0.00003   0.00039   0.00035  -1.02144
    D7       -3.14159  -0.00000   0.00000  -0.00000  -0.00000   3.14159
    D8       -1.05068  -0.00001   0.00015  -0.00080  -0.00065  -1.05133
    D9        1.05068   0.00001  -0.00015   0.00080   0.00065   1.05133
   D10       -1.06445   0.00008  -0.00087   0.00186   0.00100  -1.06344
   D11        1.02647   0.00007  -0.00071   0.00107   0.00036   1.02682
   D12        3.12783   0.00009  -0.00102   0.00266   0.00165   3.12948
   D13        1.06445  -0.00008   0.00087  -0.00187  -0.00101   1.06344
   D14       -3.12783  -0.00009   0.00102  -0.00267  -0.00165  -3.12948
   D15       -1.02647  -0.00007   0.00071  -0.00107  -0.00036  -1.02682
         Item               Value     Threshold  Converged?
 Maximum Force            0.005774     0.000015     NO 
 RMS     Force            0.000932     0.000010     NO 
 Maximum Displacement     0.006184     0.000060     NO 
 RMS     Displacement     0.002298     0.000040     NO 
 Predicted change in Energy=-2.686296D-05
 GradGradGradGradGradGradGradGradGradGradGradGradGradGradGradGradGradGrad

                          Input orientation:                          
 ---------------------------------------------------------------------
 Center     Atomic      Atomic             Coordinates (Angstroms)
 Number     Number       Type             X           Y           Z
 ---------------------------------------------------------------------
      1          6           0       -2.942530   -0.926333   -0.000031
      2          1           0       -3.867887   -1.453073    0.000001
      3          6           0       -1.901341   -0.333866    0.000014
      4          6           0       -0.665117    0.436870    0.000005
      5          8           0       -0.624492    1.635803   -0.000002
      6          8           0        0.400732   -0.363349    0.000007
      7          6           0        1.676824    0.304549   -0.000000
      8          6           0        2.741110   -0.767814   -0.000001
      9          1           0        1.733427    0.944291    0.882946
     10          1           0        1.733420    0.944285   -0.882952
     11          1           0        3.729068   -0.304520   -0.000006
     12          1           0        2.652287   -1.397511    0.885935
     13          1           0        2.652280   -1.397518   -0.885930
 ---------------------------------------------------------------------
                    Distance matrix (angstroms):
                    1          2          3          4          5
     1  C    0.000000
     2  H    1.064773   0.000000
     3  C    1.197953   2.262725   0.000000
     4  C    2.654228   3.718819   1.456806   0.000000
     5  O    3.455118   4.478925   2.347326   1.199621   0.000000
     6  O    3.390331   4.405519   2.302261   1.332810   2.246707
     7  C    4.780533   5.816618   3.634672   2.345677   2.658626
     8  C    5.685850   6.644427   4.662688   3.612983   4.135777
     9  H    5.113067   6.156433   3.952821   2.605778   2.611047
    10  H    5.113049   6.156425   3.952820   2.605775   2.611043
    11  H    6.700512   7.683286   5.630485   4.456290   4.766376
    12  H    5.684094   6.580322   4.759383   3.892942   4.552270
    13  H    5.684076   6.580314   4.759382   3.892941   4.552268
                    6          7          8          9         10
     6  O    0.000000
     7  C    1.440312   0.000000
     8  C    2.375071   1.510850   0.000000
     9  H    2.065328   1.091819   2.174011   0.000000
    10  H    2.065328   1.091819   2.174011   1.765898   0.000000
    11  H    3.328856   2.140717   1.091193   2.514302   2.514302
    12  H    2.631324   2.152538   1.090546   2.515622   3.075270
    13  H    2.631323   2.152538   1.090546   3.075270   2.515622
                   11         12         13
    11  H    0.000000
    12  H    1.771716   0.000000
    13  H    1.771716   1.771865   0.000000
 Stoichiometry    C5H6O2
 Framework group  C1[X(C5H6O2)]
 Deg. of freedom    33
 Full point group                 C1      NOp   1
 Largest Abelian subgroup         C1      NOp   1
 Largest concise Abelian subgroup C1      NOp   1
                         Standard orientation:                         
 ---------------------------------------------------------------------
 Center     Atomic      Atomic             Coordinates (Angstroms)
 Number     Number       Type             X           Y           Z
 ---------------------------------------------------------------------
      1          6           0        2.947396   -0.925057    0.000030
      2          1           0        3.872280   -1.452628   -0.000002
      3          6           0        1.906740   -0.331655   -0.000015
      4          6           0        0.671209    0.440190   -0.000006
      5          8           0        0.631660    1.639159    0.000001
      6          8           0       -0.395358   -0.359071   -0.000008
      7          6           0       -1.670850    0.309971   -0.000001
      8          6           0       -2.736099   -0.761435   -0.000000
      9          1           0       -1.726879    0.949764   -0.882947
     10          1           0       -1.726872    0.949758    0.882951
     11          1           0       -3.723640   -0.297255    0.000006
     12          1           0       -2.647841   -1.391212   -0.885936
     13          1           0       -2.647834   -1.391219    0.885929
 ---------------------------------------------------------------------
 Rotational constants (GHZ):           6.4724487           1.4990308           1.2359118
 Standard basis: 6-311++G(d,p) (5D, 7F)
 There are   203 symmetry adapted cartesian basis functions of A   symmetry.
 There are   196 symmetry adapted basis functions of A   symmetry.
   196 basis functions,   306 primitive gaussians,   203 cartesian basis functions
    26 alpha electrons       26 beta electrons
       nuclear repulsion energy       273.4041153492 Hartrees.
 NAtoms=   13 NActive=   13 NUniq=   13 SFac= 1.00D+00 NAtFMM=   60 NAOKFM=F Big=F
 Integral buffers will be    131072 words long.
 Raffenetti 2 integral format.
 Two-electron integral symmetry is turned on.
 One-electron integrals computed using PRISM.
 NBasis=   196 RedAO= T EigKep=  7.01D-06  NBF=   196
 NBsUse=   195 1.00D-06 EigRej=  8.34D-07 NBFU=   195
 Initial guess from the checkpoint file:  "ethyl_propiolate_planar.chk"
 B after Tr=    -0.000000    0.000000    0.000000
         Rot=    1.000000    0.000004    0.000002    0.000102 Ang=   0.01 deg.
 Requested convergence on RMS density matrix=1.00D-08 within 128 cycles.
 Requested convergence on MAX density matrix=1.00D-06.
 Requested convergence on             energy=1.00D-06.
 No special actions if energy rises.
 SCF Done:  E(RM062X) =  -344.477704113     A.U. after    9 cycles
            NFock=  9  Conv=0.84D-08     -V/T= 2.0035
 Calling FoFJK, ICntrl=      2127 FMM=F ISym2X=0 I1Cent= 0 IOpClX= 0 NMat=1 NMatS=1 NMatT=0.
 ***** Axes restored to original set *****
 -------------------------------------------------------------------
 Center     Atomic                   Forces (Hartrees/Bohr)
 Number     Number              X              Y              Z
 -------------------------------------------------------------------
      1        6          -0.000071717   -0.000059541    0.000004445
      2        1          -0.000011822    0.000000665   -0.000002013
      3        6           0.000132867    0.000095686   -0.000003010
      4        6          -0.000259167    0.000505358    0.000000699
      5        8           0.000056867   -0.000533649   -0.000000075
      6        8           0.000054300   -0.000048981   -0.000000026
      7        6           0.000255780    0.000157073   -0.000000020
      8        6          -0.000023923   -0.000012849   -0.000000001
      9        1          -0.000067229   -0.000036120    0.000039825
     10        1          -0.000067218   -0.000036123   -0.000039829
     11        1           0.000018596    0.000001099    0.000000002
     12        1          -0.000008672   -0.000016313    0.000002715
     13        1          -0.000008665   -0.000016307   -0.000002714
 -------------------------------------------------------------------
 Cartesian Forces:  Max     0.000533649 RMS     0.000139439

 GradGradGradGradGradGradGradGradGradGradGradGradGradGradGradGradGradGrad
 Berny optimization.
 Using GEDIIS/GDIIS optimizer.
 FormGI is forming the generalized inverse of G from B-inverse, IUseBI=4.
 Internal  Forces:  Max     0.000531393 RMS     0.000087962
 Search for a local minimum.
 Step number   3 out of a maximum of   57
 All quantities printed in internal units (Hartrees-Bohrs-Radians)
 Mixed Optimization -- En-DIIS/RFO-DIIS
 Swapping is turned off.
 Update second derivatives using D2CorX and points    1    2    3
 DE= -2.41D-05 DEPred=-2.69D-05 R= 8.95D-01
 TightC=F SS=  1.41D+00  RLast= 9.15D-03 DXNew= 6.1234D-01 2.7463D-02
 Trust test= 8.95D-01 RLast= 9.15D-03 DXMaxT set to 3.64D-01
 ITU=  1  1  0
     Eigenvalues ---    0.00245   0.00303   0.01866   0.02011   0.03416
     Eigenvalues ---    0.04315   0.04425   0.04592   0.04690   0.05799
     Eigenvalues ---    0.06048   0.08435   0.09261   0.11825   0.12492
     Eigenvalues ---    0.13396   0.16541   0.17437   0.22234   0.23959
     Eigenvalues ---    0.25527   0.30445   0.32722   0.33717   0.34217
     Eigenvalues ---    0.34304   0.34898   0.35351   0.38906   0.41182
     Eigenvalues ---    0.42688   0.91975   1.07380
 En-DIIS/RFO-DIIS/Sim-DIIS IScMMF=       -3 using points:     3    2
 RFO step:  Lambda=-9.12294947D-07.
 DidBck=F Rises=F RFO-DIIS coefs:    0.87949    0.12051
 Iteration  1 RMS(Cart)=  0.00045242 RMS(Int)=  0.00000021
 Iteration  2 RMS(Cart)=  0.00000022 RMS(Int)=  0.00000012
 Variable       Old X    -DE/DX   Delta X   Delta X   Delta X     New X
                                 (Linear)    (Quad)   (Total)
    R1        2.01213   0.00001   0.00000   0.00002   0.00003   2.01216
    R2        2.26380   0.00010  -0.00006   0.00015   0.00009   2.26390
    R3        2.75296  -0.00006  -0.00010  -0.00006  -0.00015   2.75281
    R4        2.26696  -0.00053  -0.00082   0.00016  -0.00065   2.26630
    R5        2.51865   0.00013  -0.00021   0.00075   0.00053   2.51918
    R6        2.72180   0.00011  -0.00049   0.00124   0.00074   2.72254
    R7        2.85509   0.00002   0.00004  -0.00004   0.00001   2.85510
    R8        2.06324   0.00001   0.00001  -0.00003  -0.00002   2.06322
    R9        2.06324   0.00001   0.00001  -0.00003  -0.00002   2.06322
   R10        2.06206   0.00002   0.00000   0.00004   0.00005   2.06210
   R11        2.06083   0.00001   0.00001   0.00002   0.00003   2.06087
   R12        2.06083   0.00001   0.00001   0.00002   0.00003   2.06087
    A1        2.16216   0.00005   0.00007   0.00031   0.00038   2.16254
    A2        1.94010   0.00006  -0.00006   0.00003  -0.00003   1.94008
    A3        2.18092  -0.00012  -0.00001  -0.00035  -0.00036   2.18057
    A4        2.01541   0.00004  -0.00017   0.00018   0.00002   2.01542
    A5        1.87023  -0.00004  -0.00005  -0.00055  -0.00060   1.86963
    A6        1.89403  -0.00003  -0.00009  -0.00051  -0.00060   1.89344
    A7        1.89404  -0.00003  -0.00009  -0.00051  -0.00060   1.89344
    A8        1.95991   0.00004   0.00003   0.00041   0.00044   1.96034
    A9        1.95991   0.00004   0.00003   0.00041   0.00044   1.96034
   A10        1.88386   0.00002   0.00015   0.00068   0.00083   1.88469
   A11        1.91392   0.00001   0.00012   0.00017   0.00029   1.91421
   A12        1.93100  -0.00000  -0.00005  -0.00008  -0.00013   1.93086
   A13        1.93099  -0.00000  -0.00005  -0.00008  -0.00013   1.93086
   A14        1.89537  -0.00000   0.00003   0.00005   0.00007   1.89544
   A15        1.89537  -0.00000   0.00003   0.00005   0.00007   1.89544
   A16        1.89643  -0.00001  -0.00007  -0.00010  -0.00017   1.89626
   A17        3.14147   0.00001   0.00006   0.00016   0.00022   3.14169
   A18        3.18032  -0.00001  -0.00005  -0.00013  -0.00017   3.18014
   A19        3.14178  -0.00000  -0.00008  -0.00015  -0.00023   3.14155
   A20        3.12656   0.00000   0.00004   0.00009   0.00014   3.12670
    D1        3.14159   0.00000   0.00000   0.00000   0.00000  -3.14159
    D2       -3.14159  -0.00000  -0.00000  -0.00000  -0.00000   3.14159
    D3       -0.00000   0.00000   0.00000   0.00000   0.00000  -0.00000
    D4       -3.14159   0.00000  -0.00000  -0.00000  -0.00000   3.14159
    D5        1.02145  -0.00000   0.00004   0.00012   0.00016   1.02161
    D6       -1.02144   0.00000  -0.00004  -0.00012  -0.00017  -1.02161
    D7        3.14159   0.00000   0.00000   0.00000   0.00000  -3.14159
    D8       -1.05133   0.00001   0.00008   0.00012   0.00019  -1.05113
    D9        1.05133  -0.00001  -0.00008  -0.00012  -0.00019   1.05113
   D10       -1.06344  -0.00004  -0.00012  -0.00074  -0.00086  -1.06431
   D11        1.02682  -0.00003  -0.00004  -0.00063  -0.00067   1.02615
   D12        3.12948  -0.00005  -0.00020  -0.00086  -0.00106   3.12842
   D13        1.06344   0.00004   0.00012   0.00074   0.00087   1.06431
   D14       -3.12948   0.00005   0.00020   0.00086   0.00106  -3.12842
   D15       -1.02682   0.00003   0.00004   0.00063   0.00067  -1.02615
         Item               Value     Threshold  Converged?
 Maximum Force            0.000531     0.000015     NO 
 RMS     Force            0.000088     0.000010     NO 
 Maximum Displacement     0.001418     0.000060     NO 
 RMS     Displacement     0.000452     0.000040     NO 
 Predicted change in Energy=-4.561489D-07
 GradGradGradGradGradGradGradGradGradGradGradGradGradGradGradGradGradGrad

                          Input orientation:                          
 ---------------------------------------------------------------------
 Center     Atomic      Atomic             Coordinates (Angstroms)
 Number     Number       Type             X           Y           Z
 ---------------------------------------------------------------------
      1          6           0       -2.942314   -0.926618   -0.000003
      2          1           0       -3.867632   -1.453456   -0.000004
      3          6           0       -1.901288   -0.333766   -0.000002
      4          6           0       -0.665250    0.437115   -0.000001
      5          8           0       -0.624362    1.635693   -0.000002
      6          8           0        0.400926   -0.363137   -0.000001
      7          6           0        1.677293    0.305082   -0.000001
      8          6           0        2.741058   -0.767803    0.000000
      9          1           0        1.733289    0.944501    0.883204
     10          1           0        1.733289    0.944499   -0.883207
     11          1           0        3.729399   -0.305270    0.000000
     12          1           0        2.651686   -1.397512    0.885893
     13          1           0        2.651687   -1.397513   -0.885892
 ---------------------------------------------------------------------
                    Distance matrix (angstroms):
                    1          2          3          4          5
     1  C    0.000000
     2  H    1.064787   0.000000
     3  C    1.198002   2.262789   0.000000
     4  C    2.654202   3.718805   1.456725   0.000000
     5  O    3.455191   4.479023   2.347192   1.199276   0.000000
     6  O    3.390393   4.405608   2.302401   1.333092   2.246450
     7  C    4.780988   5.817099   3.635157   2.346260   2.658597
     8  C    5.685590   6.644163   4.662591   3.613137   4.135558
     9  H    5.112964   6.156344   3.952742   2.605855   2.610808
    10  H    5.112964   6.156343   3.952741   2.605855   2.610808
    11  H    6.700584   7.683307   5.630758   4.456913   4.766819
    12  H    5.683256   6.579472   4.758775   3.892651   4.551663
    13  H    5.683255   6.579472   4.758774   3.892651   4.551663
                    6          7          8          9         10
     6  O    0.000000
     7  C    1.440704   0.000000
     8  C    2.374862   1.510853   0.000000
     9  H    2.065226   1.091807   2.174311   0.000000
    10  H    2.065226   1.091807   2.174311   1.766411   0.000000
    11  H    3.328976   2.140950   1.091217   2.515240   2.515240
    12  H    2.630715   2.152458   1.090563   2.515648   3.075416
    13  H    2.630715   2.152458   1.090563   3.075416   2.515648
                   11         12         13
    11  H    0.000000
    12  H    1.771796   0.000000
    13  H    1.771796   1.771786   0.000000
 Stoichiometry    C5H6O2
 Framework group  C1[X(C5H6O2)]
 Deg. of freedom    33
 Full point group                 C1      NOp   1
 Largest Abelian subgroup         C1      NOp   1
 Largest concise Abelian subgroup C1      NOp   1
                         Standard orientation:                         
 ---------------------------------------------------------------------
 Center     Atomic      Atomic             Coordinates (Angstroms)
 Number     Number       Type             X           Y           Z
 ---------------------------------------------------------------------
      1          6           0        2.947343   -0.925204    0.000002
      2          1           0        3.872225   -1.452808    0.000002
      3          6           0        1.906807   -0.331492    0.000000
      4          6           0        0.671407    0.440411    0.000000
      5          8           0        0.631510    1.639023    0.000001
      6          8           0       -0.395430   -0.358960   -0.000001
      7          6           0       -1.671244    0.310315   -0.000000
      8          6           0       -2.735896   -0.761690   -0.000001
      9          1           0       -1.726711    0.949780   -0.883205
     10          1           0       -1.726712    0.949778    0.883206
     11          1           0       -3.723854   -0.298340   -0.000001
     12          1           0       -2.647045   -1.391473   -0.885895
     13          1           0       -2.647046   -1.391474    0.885891
 ---------------------------------------------------------------------
 Rotational constants (GHZ):           6.4719141           1.4990511           1.2359107
 Standard basis: 6-311++G(d,p) (5D, 7F)
 There are   203 symmetry adapted cartesian basis functions of A   symmetry.
 There are   196 symmetry adapted basis functions of A   symmetry.
   196 basis functions,   306 primitive gaussians,   203 cartesian basis functions
    26 alpha electrons       26 beta electrons
       nuclear repulsion energy       273.4018783578 Hartrees.
 NAtoms=   13 NActive=   13 NUniq=   13 SFac= 1.00D+00 NAtFMM=   60 NAOKFM=F Big=F
 Integral buffers will be    131072 words long.
 Raffenetti 2 integral format.
 Two-electron integral symmetry is turned on.
 One-electron integrals computed using PRISM.
 NBasis=   196 RedAO= T EigKep=  7.02D-06  NBF=   196
 NBsUse=   195 1.00D-06 EigRej=  8.34D-07 NBFU=   195
 Initial guess from the checkpoint file:  "ethyl_propiolate_planar.chk"
 B after Tr=    -0.000000    0.000000   -0.000000
         Rot=    1.000000   -0.000001   -0.000001   -0.000019 Ang=  -0.00 deg.
 Requested convergence on RMS density matrix=1.00D-08 within 128 cycles.
 Requested convergence on MAX density matrix=1.00D-06.
 Requested convergence on             energy=1.00D-06.
 No special actions if energy rises.
 SCF Done:  E(RM062X) =  -344.477704519     A.U. after    8 cycles
            NFock=  8  Conv=0.47D-08     -V/T= 2.0035
 Calling FoFJK, ICntrl=      2127 FMM=F ISym2X=0 I1Cent= 0 IOpClX= 0 NMat=1 NMatS=1 NMatT=0.
 ***** Axes restored to original set *****
 -------------------------------------------------------------------
 Center     Atomic                   Forces (Hartrees/Bohr)
 Number     Number              X              Y              Z
 -------------------------------------------------------------------
      1        6           0.000006391    0.000004094    0.000000050
      2        1           0.000000211   -0.000000104   -0.000000016
      3        6          -0.000003220   -0.000002883   -0.000000039
      4        6           0.000036451   -0.000062160   -0.000000016
      5        8           0.000000316    0.000040776    0.000000010
      6        8           0.000007879    0.000038117    0.000000007
      7        6          -0.000051925   -0.000019686    0.000000000
      8        6           0.000000959    0.000001460    0.000000000
      9        1           0.000001830   -0.000000085   -0.000000881
     10        1           0.000001828   -0.000000083    0.000000883
     11        1          -0.000000421    0.000000029    0.000000000
     12        1          -0.000000149    0.000000263   -0.000000180
     13        1          -0.000000150    0.000000261    0.000000180
 -------------------------------------------------------------------
 Cartesian Forces:  Max     0.000062160 RMS     0.000017203

 GradGradGradGradGradGradGradGradGradGradGradGradGradGradGradGradGradGrad
 Berny optimization.
 Using GEDIIS/GDIIS optimizer.
 FormGI is forming the generalized inverse of G from B-inverse, IUseBI=4.
 Internal  Forces:  Max     0.000050928 RMS     0.000011828
 Search for a local minimum.
 Step number   4 out of a maximum of   57
 All quantities printed in internal units (Hartrees-Bohrs-Radians)
 Mixed Optimization -- En-DIIS/RFO-DIIS
 Swapping is turned off.
 Update second derivatives using D2CorX and points    1    2    3    4
 DE= -4.06D-07 DEPred=-4.56D-07 R= 8.90D-01
 Trust test= 8.90D-01 RLast= 2.96D-03 DXMaxT set to 3.64D-01
 ITU=  0  1  1  0
     Eigenvalues ---    0.00245   0.00303   0.01866   0.02011   0.03416
     Eigenvalues ---    0.04299   0.04425   0.04637   0.04690   0.05799
     Eigenvalues ---    0.06048   0.08436   0.09321   0.11825   0.12492
     Eigenvalues ---    0.13392   0.16541   0.17626   0.22416   0.23998
     Eigenvalues ---    0.25305   0.30734   0.32724   0.33717   0.34218
     Eigenvalues ---    0.34304   0.34899   0.35437   0.39011   0.41181
     Eigenvalues ---    0.45583   0.92665   1.07934
 En-DIIS/RFO-DIIS/Sim-DIIS IScMMF=       -3 using points:     4    3    2
 RFO step:  Lambda=-1.43399787D-08.
 DidBck=F Rises=F RFO-DIIS coefs:    0.92044    0.06774    0.01182
 Iteration  1 RMS(Cart)=  0.00004904 RMS(Int)=  0.00000001
 Iteration  2 RMS(Cart)=  0.00000000 RMS(Int)=  0.00000001
 Variable       Old X    -DE/DX   Delta X   Delta X   Delta X     New X
                                 (Linear)    (Quad)   (Total)
    R1        2.01216  -0.00000  -0.00000   0.00000  -0.00000   2.01216
    R2        2.26390  -0.00001  -0.00001   0.00001  -0.00001   2.26389
    R3        2.75281  -0.00000   0.00000  -0.00001  -0.00001   2.75280
    R4        2.26630   0.00004  -0.00003   0.00009   0.00006   2.26636
    R5        2.51918  -0.00004  -0.00006  -0.00004  -0.00010   2.51907
    R6        2.72254  -0.00005  -0.00011  -0.00007  -0.00018   2.72236
    R7        2.85510  -0.00000   0.00000   0.00001   0.00001   2.85511
    R8        2.06322  -0.00000   0.00000   0.00000   0.00000   2.06322
    R9        2.06322  -0.00000   0.00000   0.00000   0.00000   2.06322
   R10        2.06210  -0.00000  -0.00000   0.00000  -0.00000   2.06210
   R11        2.06087  -0.00000  -0.00000   0.00000   0.00000   2.06087
   R12        2.06087  -0.00000  -0.00000   0.00000   0.00000   2.06087
    A1        2.16254  -0.00000  -0.00002  -0.00000  -0.00003   2.16251
    A2        1.94008  -0.00000  -0.00000   0.00003   0.00003   1.94010
    A3        2.18057   0.00000   0.00003  -0.00003   0.00000   2.18057
    A4        2.01542  -0.00002  -0.00002   0.00001  -0.00001   2.01541
    A5        1.86963   0.00000   0.00004  -0.00001   0.00003   1.86966
    A6        1.89344   0.00000   0.00004  -0.00000   0.00004   1.89347
    A7        1.89344   0.00000   0.00004  -0.00000   0.00004   1.89347
    A8        1.96034  -0.00000  -0.00003  -0.00000  -0.00003   1.96031
    A9        1.96034  -0.00000  -0.00003  -0.00000  -0.00003   1.96031
   A10        1.88469   0.00000  -0.00005   0.00002  -0.00003   1.88466
   A11        1.91421  -0.00000  -0.00001   0.00001   0.00000   1.91422
   A12        1.93086  -0.00000   0.00001  -0.00001  -0.00000   1.93086
   A13        1.93086  -0.00000   0.00001  -0.00001  -0.00000   1.93086
   A14        1.89544   0.00000  -0.00000   0.00000   0.00000   1.89544
   A15        1.89544   0.00000  -0.00000   0.00000   0.00000   1.89544
   A16        1.89626   0.00000   0.00001  -0.00001  -0.00000   1.89626
   A17        3.14169  -0.00000  -0.00001   0.00001  -0.00000   3.14168
   A18        3.18014   0.00000   0.00001  -0.00000   0.00001   3.18015
   A19        3.14155   0.00000   0.00001  -0.00001  -0.00000   3.14155
   A20        3.12670  -0.00000  -0.00001   0.00001  -0.00000   3.12670
    D1       -3.14159  -0.00000  -0.00000  -0.00000  -0.00000  -3.14159
    D2        3.14159   0.00000   0.00000   0.00000   0.00000   3.14159
    D3       -0.00000  -0.00000  -0.00000   0.00000   0.00000   0.00000
    D4        3.14159   0.00000   0.00000   0.00000   0.00000  -3.14159
    D5        1.02161   0.00000  -0.00001   0.00001   0.00000   1.02161
    D6       -1.02161  -0.00000   0.00001  -0.00001  -0.00000  -1.02161
    D7       -3.14159   0.00000  -0.00000   0.00000  -0.00000  -3.14159
    D8       -1.05113   0.00000  -0.00001   0.00001   0.00000  -1.05113
    D9        1.05113  -0.00000   0.00001  -0.00001  -0.00000   1.05113
   D10       -1.06431   0.00000   0.00006  -0.00001   0.00004  -1.06426
   D11        1.02615   0.00000   0.00005  -0.00000   0.00005   1.02620
   D12        3.12842   0.00000   0.00006  -0.00002   0.00004   3.12846
   D13        1.06431  -0.00000  -0.00006   0.00001  -0.00004   1.06426
   D14       -3.12842  -0.00000  -0.00006   0.00002  -0.00004  -3.12846
   D15       -1.02615  -0.00000  -0.00005   0.00000  -0.00005  -1.02620
         Item               Value     Threshold  Converged?
 Maximum Force            0.000051     0.000015     NO 
 RMS     Force            0.000012     0.000010     NO 
 Maximum Displacement     0.000139     0.000060     NO 
 RMS     Displacement     0.000049     0.000040     NO 
 Predicted change in Energy=-8.344046D-09
 GradGradGradGradGradGradGradGradGradGradGradGradGradGradGradGradGradGrad

                          Input orientation:                          
 ---------------------------------------------------------------------
 Center     Atomic      Atomic             Coordinates (Angstroms)
 Number     Number       Type             X           Y           Z
 ---------------------------------------------------------------------
      1          6           0       -2.942284   -0.926597   -0.000002
      2          1           0       -3.867616   -1.453410   -0.000003
      3          6           0       -1.901243   -0.333777   -0.000002
      4          6           0       -0.665191    0.437072   -0.000002
      5          8           0       -0.624308    1.635682   -0.000003
      6          8           0        0.400943   -0.363143   -0.000001
      7          6           0        1.677219    0.305049   -0.000001
      8          6           0        2.741036   -0.767791    0.000000
      9          1           0        1.733243    0.944480    0.883196
     10          1           0        1.733244    0.944479   -0.883198
     11          1           0        3.729356   -0.305217    0.000000
     12          1           0        2.651691   -1.397506    0.885892
     13          1           0        2.651692   -1.397507   -0.885892
 ---------------------------------------------------------------------
                    Distance matrix (angstroms):
                    1          2          3          4          5
     1  C    0.000000
     2  H    1.064787   0.000000
     3  C    1.197999   2.262786   0.000000
     4  C    2.654193   3.718796   1.456719   0.000000
     5  O    3.455182   4.479010   2.347196   1.199306   0.000000
     6  O    3.390376   4.405596   2.302373   1.333037   2.246428
     7  C    4.780874   5.816990   3.635036   2.346128   2.658497
     8  C    5.685538   6.644121   4.662522   3.613043   4.135483
     9  H    5.112877   6.156260   3.952653   2.605761   2.610717
    10  H    5.112877   6.156260   3.952653   2.605761   2.610717
    11  H    6.700514   7.683250   5.630671   4.456797   4.766704
    12  H    5.683231   6.579460   4.758732   3.892582   4.551616
    13  H    5.683231   6.579460   4.758732   3.892582   4.551615
                    6          7          8          9         10
     6  O    0.000000
     7  C    1.440611   0.000000
     8  C    2.374821   1.510858   0.000000
     9  H    2.065172   1.091809   2.174294   0.000000
    10  H    2.065172   1.091809   2.174294   1.766394   0.000000
    11  H    3.328916   2.140955   1.091216   2.515202   2.515202
    12  H    2.630699   2.152463   1.090563   2.515642   3.075406
    13  H    2.630699   2.152463   1.090563   3.075406   2.515642
                   11         12         13
    11  H    0.000000
    12  H    1.771796   0.000000
    13  H    1.771796   1.771784   0.000000
 Stoichiometry    C5H6O2
 Framework group  C1[X(C5H6O2)]
 Deg. of freedom    33
 Full point group                 C1      NOp   1
 Largest Abelian subgroup         C1      NOp   1
 Largest concise Abelian subgroup C1      NOp   1
                         Standard orientation:                         
 ---------------------------------------------------------------------
 Center     Atomic      Atomic             Coordinates (Angstroms)
 Number     Number       Type             X           Y           Z
 ---------------------------------------------------------------------
      1          6           0        2.947327   -0.925172    0.000001
      2          1           0        3.872224   -1.452749    0.000001
      3          6           0        1.906776   -0.331493    0.000001
      4          6           0        0.671361    0.440377    0.000001
      5          8           0        0.631467    1.639019    0.000001
      6          8           0       -0.395434   -0.358958   -0.000000
      7          6           0       -1.671157    0.310287   -0.000001
      8          6           0       -2.735859   -0.761675   -0.000002
      9          1           0       -1.726653    0.949764   -0.883197
     10          1           0       -1.726654    0.949763    0.883197
     11          1           0       -3.723797   -0.298285   -0.000002
     12          1           0       -2.647034   -1.391463   -0.885894
     13          1           0       -2.647035   -1.391464    0.885890
 ---------------------------------------------------------------------
 Rotational constants (GHZ):           6.4720895           1.4990997           1.2359499
 Standard basis: 6-311++G(d,p) (5D, 7F)
 There are   203 symmetry adapted cartesian basis functions of A   symmetry.
 There are   196 symmetry adapted basis functions of A   symmetry.
   196 basis functions,   306 primitive gaussians,   203 cartesian basis functions
    26 alpha electrons       26 beta electrons
       nuclear repulsion energy       273.4058500767 Hartrees.
 NAtoms=   13 NActive=   13 NUniq=   13 SFac= 1.00D+00 NAtFMM=   60 NAOKFM=F Big=F
 Integral buffers will be    131072 words long.
 Raffenetti 2 integral format.
 Two-electron integral symmetry is turned on.
 One-electron integrals computed using PRISM.
 NBasis=   196 RedAO= T EigKep=  7.01D-06  NBF=   196
 NBsUse=   195 1.00D-06 EigRej=  8.34D-07 NBFU=   195
 Initial guess from the checkpoint file:  "ethyl_propiolate_planar.chk"
 B after Tr=     0.000000   -0.000000    0.000000
         Rot=    1.000000   -0.000000    0.000000   -0.000002 Ang=  -0.00 deg.
 Requested convergence on RMS density matrix=1.00D-08 within 128 cycles.
 Requested convergence on MAX density matrix=1.00D-06.
 Requested convergence on             energy=1.00D-06.
 No special actions if energy rises.
 SCF Done:  E(RM062X) =  -344.477704527     A.U. after    6 cycles
            NFock=  6  Conv=0.47D-08     -V/T= 2.0035
 Calling FoFJK, ICntrl=      2127 FMM=F ISym2X=0 I1Cent= 0 IOpClX= 0 NMat=1 NMatS=1 NMatT=0.
 ***** Axes restored to original set *****
 -------------------------------------------------------------------
 Center     Atomic                   Forces (Hartrees/Bohr)
 Number     Number              X              Y              Z
 -------------------------------------------------------------------
      1        6           0.000000894    0.000000577   -0.000000028
      2        1           0.000000076   -0.000000117    0.000000014
      3        6          -0.000000902   -0.000000593    0.000000018
      4        6          -0.000000218    0.000002988   -0.000000011
      5        8          -0.000000955   -0.000001925    0.000000004
      6        8          -0.000001352   -0.000002060    0.000000003
      7        6           0.000000883    0.000000028    0.000000000
      8        6           0.000000213    0.000000220    0.000000000
      9        1           0.000000687    0.000000261   -0.000000270
     10        1           0.000000686    0.000000260    0.000000270
     11        1          -0.000000138    0.000000059   -0.000000000
[...]
    D9        1.05113   0.00000   0.00000   0.00000   0.00000   1.05113
   D10       -1.06426   0.00000   0.00000   0.00000   0.00000  -1.06426
   D11        1.02620   0.00000   0.00000   0.00000   0.00000   1.02620
   D12        3.12846   0.00000   0.00000   0.00001   0.00001   3.12847
   D13        1.06426  -0.00000   0.00000  -0.00000  -0.00000   1.06426
   D14       -3.12846  -0.00000   0.00000  -0.00001  -0.00001  -3.12847
   D15       -1.02620  -0.00000   0.00000  -0.00000  -0.00000  -1.02620
         Item               Value     Threshold  Converged?
 Maximum Force            0.000003     0.000015     YES
 RMS     Force            0.000001     0.000010     YES
 Maximum Displacement     0.000014     0.000060     YES
 RMS     Displacement     0.000004     0.000040     YES
 Predicted change in Energy=-2.714779D-11
 Optimization completed.
    -- Stationary point found.
                           ----------------------------
                           !   Optimized Parameters   !
                           ! (Angstroms and Degrees)  !
 --------------------------                            --------------------------
 ! Name  Definition              Value          Derivative Info.                !
 --------------------------------------------------------------------------------
 ! R1    R(1,2)                  1.0648         -DE/DX =    0.0                 !
 ! R2    R(1,3)                  1.198          -DE/DX =    0.0                 !
 ! R3    R(3,4)                  1.4567         -DE/DX =    0.0                 !
 ! R4    R(4,5)                  1.1993         -DE/DX =    0.0                 !
 ! R5    R(4,6)                  1.333          -DE/DX =    0.0                 !
 ! R6    R(6,7)                  1.4406         -DE/DX =    0.0                 !
 ! R7    R(7,8)                  1.5109         -DE/DX =    0.0                 !
 ! R8    R(7,9)                  1.0918         -DE/DX =    0.0                 !
 ! R9    R(7,10)                 1.0918         -DE/DX =    0.0                 !
 ! R10   R(8,11)                 1.0912         -DE/DX =    0.0                 !
 ! R11   R(8,12)                 1.0906         -DE/DX =    0.0                 !
 ! R12   R(8,13)                 1.0906         -DE/DX =    0.0                 !
 ! A1    A(3,4,5)              123.9028         -DE/DX =    0.0                 !
 ! A2    A(3,4,6)              111.1597         -DE/DX =    0.0                 !
 ! A3    A(5,4,6)              124.9374         -DE/DX =    0.0                 !
 ! A4    A(4,6,7)              115.4748         -DE/DX =    0.0                 !
 ! A5    A(6,7,8)              107.1238         -DE/DX =    0.0                 !
 ! A6    A(6,7,9)              108.4879         -DE/DX =    0.0                 !
 ! A7    A(6,7,10)             108.4879         -DE/DX =    0.0                 !
 ! A8    A(8,7,9)              112.3176         -DE/DX =    0.0                 !
 ! A9    A(8,7,10)             112.3176         -DE/DX =    0.0                 !
 ! A10   A(9,7,10)             107.983          -DE/DX =    0.0                 !
 ! A11   A(7,8,11)             109.6765         -DE/DX =    0.0                 !
 ! A12   A(7,8,12)             110.6302         -DE/DX =    0.0                 !
 ! A13   A(7,8,13)             110.6302         -DE/DX =    0.0                 !
 ! A14   A(11,8,12)            108.6009         -DE/DX =    0.0                 !
 ! A15   A(11,8,13)            108.6009         -DE/DX =    0.0                 !
 ! A16   A(12,8,13)            108.6474         -DE/DX =    0.0                 !
 ! A17   L(2,1,3,13,-1)        180.0052         -DE/DX =    0.0                 !
 ! A18   L(1,3,4,13,-1)        182.2091         -DE/DX =    0.0                 !
 ! A19   L(2,1,3,13,-2)        179.9974         -DE/DX =    0.0                 !
 ! A20   L(1,3,4,13,-2)        179.1465         -DE/DX =    0.0                 !
 ! D1    D(3,4,5,6)            180.0            -DE/DX =    0.0                 !
 ! D2    D(3,4,6,7)            180.0            -DE/DX =    0.0                 !
 ! D3    D(5,4,6,7)              0.0            -DE/DX =    0.0                 !
 ! D4    D(4,6,7,8)            180.0            -DE/DX =    0.0                 !
 ! D5    D(4,6,7,9)             58.534          -DE/DX =    0.0                 !
 ! D6    D(4,6,7,10)           -58.534          -DE/DX =    0.0                 !
 ! D7    D(6,7,8,11)           180.0            -DE/DX =    0.0                 !
 ! D8    D(6,7,8,12)           -60.2254         -DE/DX =    0.0                 !
 ! D9    D(6,7,8,13)            60.2254         -DE/DX =    0.0                 !
 ! D10   D(9,7,8,11)           -60.9777         -DE/DX =    0.0                 !
 ! D11   D(9,7,8,12)            58.797          -DE/DX =    0.0                 !
 ! D12   D(9,7,8,13)           179.2477         -DE/DX =    0.0                 !
 ! D13   D(10,7,8,11)           60.9777         -DE/DX =    0.0                 !
 ! D14   D(10,7,8,12)         -179.2477         -DE/DX =    0.0                 !
 ! D15   D(10,7,8,13)          -58.797          -DE/DX =    0.0                 !
 --------------------------------------------------------------------------------
 GradGradGradGradGradGradGradGradGradGradGradGradGradGradGradGradGradGrad


 ----------------------------------------------------------------------

 Electric dipole moment (input orientation):
 (Debye = 10**-18 statcoulomb cm , SI units = C m)
                  (au)            (Debye)         (10**-30 SI)
   Tot        0.819317D+00      0.208250D+01      0.694646D+01
   x          0.365273D+00      0.928432D+00      0.309691D+01
   y         -0.733386D+00     -0.186408D+01     -0.621791D+01
   z          0.000000D+00      0.000000D+00      0.000000D+00

 Dipole polarizability, Alpha (input orientation).
 (esu units = cm**3 , SI units = C**2 m**2 J**-1)
 Alpha(0;0):
               (au)            (10**-24 esu)      (10**-40 SI)
   iso        0.620627D+02      0.919674D+01      0.102328D+02
   aniso      0.388662D+02      0.575938D+01      0.640817D+01
   xx         0.834346D+02      0.123637D+02      0.137565D+02
   yx         0.888418D+01      0.131650D+01      0.146480D+01
   yy         0.604338D+02      0.895536D+01      0.996419D+01
   zx         0.133310D-04      0.197546D-05      0.219799D-05
   zy         0.000000D+00      0.000000D+00      0.000000D+00
   zz         0.423197D+02      0.627113D+01      0.697758D+01

 ----------------------------------------------------------------------

 Dipole orientation:
     6         -5.15374760         -2.56689922         -0.91147795
     1         -6.95209772         -3.46259341         -0.79994068
     6         -3.13042195         -1.55915386         -1.03718388
     6         -0.67757041         -0.33747672         -1.29973849
     8          0.28823878          0.14355773         -3.29277812
     8          0.33322160          0.16596269          0.95205770
     6          2.76956080          1.37941556          0.89704033
     6          3.57124872          1.77870754          3.60803741
     1          2.59251669          3.15579266         -0.13737576
     1          4.08068663          0.16788372         -0.13737568
     1          5.41652610          2.69777390          3.65822863
     1          2.21472796          2.97331911          4.59794855
     1          3.70743890         -0.02370683          4.59794857

 Electric dipole moment (dipole orientation):
 (Debye = 10**-18 statcoulomb cm , SI units = C m)
                  (au)            (Debye)         (10**-30 SI)
   Tot        0.819317D+00      0.208250D+01      0.694646D+01
   x          0.000000D+00      0.000000D+00      0.000000D+00
   y          0.000000D+00      0.000000D+00      0.000000D+00
   z          0.819317D+00      0.208250D+01      0.694646D+01

 Dipole polarizability, Alpha (dipole orientation).
 (esu units = cm**3 , SI units = C**2 m**2 J**-1)
 Alpha(0;0):
               (au)            (10**-24 esu)      (10**-40 SI)
   iso        0.620627D+02      0.919674D+01      0.102328D+02
   aniso      0.388662D+02      0.575938D+01      0.640817D+01
   xx         0.772810D+02      0.114519D+02      0.127419D+02
   yx         0.174129D+02      0.258033D+01      0.287101D+01
   yy         0.509925D+02      0.755630D+01      0.840752D+01
   zx         0.342506D+01      0.507542D+00      0.564716D+00
   zy         0.170590D+01      0.252789D+00      0.281265D+00
   zz         0.579147D+02      0.858207D+01      0.954884D+01

 ----------------------------------------------------------------------
 1\1\GINC-AJ\Freq\RM062X\6-311++G(d,p)\C5H6O2\AAYUSH\23-May-2025\0\\#N 
 Geom=AllCheck Guess=TCheck SCRF=Check GenChk RM062X/6-311++G(d,p) Freq
 \\Title Card Required\\0,1\C,-2.9422837137,-0.9265967502,-0.000002359\
 H,-3.8676158586,-1.4534098067,-0.0000028997\C,-1.901242543,-0.33377698
 63,-0.0000022917\C,-0.6651914554,0.4370724281,-0.0000020187\O,-0.62430
 76148,1.6356815304,-0.0000026361\O,0.4009432856,-0.3631427256,-0.00000
 11022\C,1.6772188413,0.3050490535,-0.0000008006\C,2.7410356471,-0.7677
 912278,0.0000001226\H,1.7332428648,0.9444798423,0.8831959514\H,1.73324
 36724,0.9444791186,-0.8831980244\H,3.729355689,-0.3052169334,0.0000004
 242\H,2.6516906635,-1.3975064369,0.8858922198\H,2.6516915217,-1.397507
 106,-0.8858915856\\Version=ES64L-G16RevA.03\State=1-A\HF=-344.4777045\
 RMSD=3.598e-09\RMSF=7.888e-07\ZeroPoint=0.100864\Thermal=0.1084413\Dip
 ole=0.3652731,-0.7333862,0.0000004\DipoleDeriv=-0.2585324,-0.0407878,0
 .,-0.0474859,-0.183539,0.,0.0000002,0.0000001,-0.1532507,0.2626177,0.0
 149703,0.,0.021145,0.2376464,0.,0.,0.,0.2097033,-0.5464199,-0.1969486,
 -0.0000001,-0.2067259,-0.2468309,0.,-0.0000002,0.,-0.0962856,2.3612273
 ,0.0372557,0.0000009,-0.3706096,1.8071813,-0.0000009,0.0000011,-0.0000
 007,0.3899281,-0.7912565,-0.1369169,-0.0000001,0.1325008,-1.2393174,0.
 0000005,-0.0000003,0.0000004,-0.3541136,-1.9515415,0.2788337,-0.000000
 9,0.3340451,-0.7331882,0.0000004,-0.000001,0.0000003,-0.2823755,1.0249
 05,-0.0113105,0.0000004,0.1550972,0.3087386,0.,0.0000003,0.,0.3098229,
 -0.0466866,0.0457319,0.,0.0587478,0.0100825,0.,0.,0.,0.0622487,-0.0477
 482,0.0355616,0.0313789,-0.042146,0.0033142,-0.0575569,-0.0096139,-0.0
 740058,-0.0441353,-0.0477482,0.0355615,-0.0313789,-0.0421461,0.0033143
 ,0.0575568,0.009614,0.0740058,-0.0441354,-0.0945651,-0.0407902,0.,-0.0
 678265,0.0212387,0.,0.,0.,0.0896031,0.0678742,-0.0105804,0.0359156,0.0
 377021,0.0056797,0.0630741,0.0068343,0.085939,-0.043505,0.0678743,-0.0
 105803,-0.0359155,0.0377021,0.0056796,-0.0630741,-0.0068342,-0.085939,
 -0.043505\Polar=83.434612,8.88418,60.4337858,0.0000133,-0.0000061,42.3
 197001\Quadrupole=6.8272318,-5.2579808,-1.569251,4.4389823,0.0000028,0
 .0000044\PG=C01 [X(C5H6O2)]\NImag=0\\1.19811500,0.65171067,0.42741332,
 0.00000026,0.00000015,0.05962791,-0.32665478,-0.17103577,-0.00000016,0
 .31720740,-0.17089168,-0.12370460,-0.00000009,0.17136474,0.11377302,-0
 .00000019,-0.00000011,-0.02912214,0.00000017,0.00000009,0.01745477,-0.
 87239127,-0.47751364,-0.00000010,0.00825942,0.00237466,0.00000002,1.14
 842966,-0.47965333,-0.30730810,-0.00000006,0.00212030,0.00578652,0.000
 00001,0.59500647,0.45228520,-0.00000009,-0.00000005,-0.03376367,0.,0.,
 0.00743494,0.00000016,0.00000005,0.06153512,0.00786880,0.00115818,0.,0
 .00026910,-0.00357043,0.,-0.22052109,-0.09309702,-0.00000003,0.6251921
 0,0.00107125,0.00284031,0.,-0.00254895,0.00390940,0.,-0.08119206,-0.10
 728780,-0.00000002,0.04500748,1.01992395,0.00000002,0.,0.00261070,0.,0
 .,0.00591315,-0.00000005,-0.00000004,-0.07352070,0.00000019,-0.0000004
 0,0.21242362,-0.00358759,-0.00163272,0.,-0.00018463,0.00146348,0.,0.00
 108797,-0.04052238,0.00000001,-0.11196771,-0.04494402,0.,0.10849932,-0
 .00062991,0.00146927,0.,-0.00018787,0.00090001,0.,-0.03374558,-0.05595
 655,0.00000002,-0.03366779,-0.76170305,0.00000034,0.01811517,0.9009004
 2,0.,0.,0.00023502,0.,0.,-0.00100337,0.,0.00000002,0.02173818,0.,0.000
 00034,-0.08135959,0.00000003,-0.00000045,0.03381093,-0.00386058,-0.002
 84932,0.,0.00124770,-0.00049038,0.,-0.06402597,0.01281545,-0.00000004,
 -0.24087174,0.09453161,-0.00000014,0.00158863,0.05981588,-0.00000005,0
 .54216337,-0.00232451,-0.00152305,0.,0.00040465,-0.00080295,0.,-0.0089
 2436,0.01412354,0.,0.06697879,-0.17443409,0.00000009,0.06061498,-0.082
 19275,0.00000009,-0.05394676,0.38533043,0.,0.,0.00040934,0.,0.,-0.0003
 8270,-0.00000003,0.,0.01138582,-0.00000012,0.00000010,-0.06945054,-0.0
 0000005,0.00000009,0.03158658,0.00000026,-0.00000018,0.08117856,0.0012
 0748,0.00067262,0.,-0.00031172,-0.00022134,0.,0.00191598,0.00225359,0.
 ,-0.06551971,0.01118675,-0.00000004,0.00359285,-0.01888280,0.00000002,
 -0.14825635,-0.04353380,-0.00000002,0.45353553,0.00090715,0.00095747,0
 .,-0.00017538,0.00015103,0.,0.00546190,-0.00187132,0.,0.01221729,0.023
 99455,0.,0.00534138,-0.00769746,0.,-0.06883520,-0.13048521,0.,-0.03676
 995,0.57193658,0.,0.,-0.00010547,0.,0.,-0.00032519,0.,0.,0.00628293,-0
 .00000004,0.,0.00174980,0.,0.,-0.00637545,0.,0.,-0.06984818,-0.0000000
 6,0.,0.62578535,-0.00030793,-0.00025435,0.,0.00006667,-0.00005192,0.,-
 0.00157573,0.00079982,0.,-0.00227481,-0.00701184,0.,0.00149695,0.00240
 406,0.,-0.04742274,0.02423126,-0.00000003,-0.13366317,0.06746770,-0.00
 000005,0.54741514,-0.00028826,-0.00032181,0.,0.00004858,-0.00001578,0.
 ,-0.00113852,0.00074797,0.,-0.00195368,-0.00610010,0.,0.00165892,0.002
 46880,0.,-0.02028604,0.01553789,-0.00000002,0.08363835,-0.16603716,0.0
 0000007,0.04459803,0.54926814,0.,0.,0.00004035,0.,0.,-0.00000919,0.,0.
 ,-0.00008803,0.,0.,-0.00006048,0.,0.,0.00108311,-0.00000001,0.,0.00160
 908,-0.00000006,0.00000006,-0.08656586,-0.00000004,0.00000003,0.588147
 78,-0.00013859,-0.00005922,0.00000379,0.00004982,0.00000415,-0.0000780
 0,-0.00045503,0.00007244,0.00118877,0.00402527,-0.00819008,-0.00157067
 ,0.00012155,0.00362510,-0.00016592,-0.02074091,-0.02339278,-0.02796597
 ,-0.04814324,-0.00136633,-0.00083072,0.00242014,0.01398261,0.02103600,
 0.06278540,-0.00006186,-0.00001721,0.00003823,0.00001870,0.00000484,-0
 .00000312,-0.00044344,-0.00011684,-0.00001459,0.00321371,-0.00107395,0
 .00004657,-0.00024451,0.00088016,0.00028000,-0.01262919,-0.01250374,-0
 .01216567,-0.00526452,-0.13564900,-0.12180310,0.00003963,-0.01190458,-
 0.01817142,0.01100934,0.14964012,0.00008793,0.00007012,0.00005365,0.00
 000877,-0.00001830,0.00001643,-0.00019159,0.00015955,-0.00053243,0.001
 41631,-0.00307217,0.00060359,0.00129050,0.00148500,0.00027110,-0.00428
 600,0.00181549,0.00613738,-0.00883930,-0.12424170,-0.23548191,0.000871
 47,0.00226681,0.00297518,0.00951106,0.13637475,0.24479533,-0.00013859,
 -0.00005922,-0.00000379,0.00004982,0.00000415,0.00007800,-0.00045503,0
 .00007244,-0.00118877,0.00402527,-0.00819009,0.00157068,0.00012155,0.0
 0362511,0.00016592,-0.02074094,-0.02339275,0.02796596,-0.04814325,-0.0
 0136644,0.00083089,0.00242016,0.01398259,-0.02103601,0.00205195,0.0019
 3576,-0.00034607,0.06278542,-0.00006186,-0.00001721,-0.00003823,0.0000
 1870,0.00000484,0.00000312,-0.00044344,-0.00011684,0.00001459,0.003213
 71,-0.00107394,-0.00004657,-0.00024451,0.00088015,-0.00028000,-0.01262
 920,-0.01250373,0.01216568,-0.00526463,-0.13564880,0.12180302,0.000039
 62,-0.01190457,0.01817143,0.00193577,0.01169318,-0.01508520,0.01100946
 ,0.14963990,-0.00008793,-0.00007012,0.00005365,-0.00000877,0.00001830,
 0.00001643,0.00019159,-0.00015955,-0.00053243,-0.00141631,0.00307217,0
 .00060359,-0.00129050,-0.00148500,0.00027110,0.00428598,-0.00181550,0.
 00613740,0.00883947,0.12424162,-0.23548211,-0.00087147,-0.00226679,0.0
 0297515,0.00034609,0.01508517,-0.02101260,-0.00951124,-0.13637466,0.24
 479554,-0.00013885,-0.00009352,0.,0.00003668,0.00000233,0.,-0.00044792
 ,0.00015388,0.,0.00078707,-0.00225441,0.,0.00003083,0.00101009,0.,-0.0
 0531480,0.00517167,0.,-0.01752871,-0.01399816,0.,-0.27030445,-0.103482
 00,-0.00000007,0.00050276,0.00013572,0.00054961,0.00050276,0.00013572,
 -0.00054961,0.29387888,0.00012179,0.00013803,0.,-0.00001102,0.00000646
 ,0.,0.00046983,-0.00031522,0.,0.00081072,0.00187557,0.,-0.00034257,-0.
 00046880,0.,0.00686335,-0.00372931,0.,0.01880256,0.01246117,0.,-0.1063
 0172,-0.09861116,-0.00000003,-0.00084822,0.00063657,-0.00054887,-0.000
 84822,0.00063657,0.00054886,0.11351601,0.10304049,0.,0.,-0.00003048,0.
 ,0.,0.00000837,0.,0.,0.00002161,0.,0.,0.00042482,0.,0.,-0.00014912,0.,
 0.,0.00098325,-0.00000001,-0.00000001,-0.00241468,-0.00000007,-0.00000
 003,-0.04639644,-0.00007366,0.00004102,-0.00004356,0.00007366,-0.00004
 102,-0.00004357,0.00000008,0.00000003,0.04560034,0.00001345,-0.0000218
 6,0.00001765,-0.00001773,0.00000612,-0.00000748,0.00008950,-0.00001082
 ,0.00002278,-0.00050628,0.00126717,0.00002870,-0.00039987,-0.00074074,
 0.00013166,0.00311717,-0.00094319,0.00002764,0.00065717,0.01555800,-0.
 02246982,-0.04913514,-0.01538034,0.02127821,0.00083513,-0.00102119,0.0
 0038520,-0.00331425,0.00331185,0.00045789,-0.00100213,-0.01611625,0.02
 496262,0.05054174,0.00005028,0.00003678,-0.00003518,-0.00000834,-0.000
 00641,0.00000727,0.00004409,0.00001472,0.00010693,-0.00015548,-0.00043
 543,-0.00008773,0.00036838,0.00025990,-0.00018143,-0.00118011,0.001591
 48,-0.00108283,-0.00330843,-0.01605593,0.02193283,-0.01298020,-0.13656
 372,0.12588909,-0.00072616,0.00049769,-0.00020625,0.00395339,-0.002087
 24,-0.00100076,-0.00014868,-0.00783518,0.00988178,0.01195926,0.1483271
 2,-0.00002374,-0.00002917,-0.00000443,-0.00000415,0.00000702,-0.000000
 74,-0.00003278,0.00000379,0.00001933,-0.00016986,0.00010660,0.00003102
 ,0.00007632,-0.00029113,-0.00005424,-0.00043590,-0.00027490,0.00012701
 ,-0.00026758,-0.00089951,0.00139036,0.01968464,0.12758380,-0.23185540,
 -0.00065742,0.00000413,0.00076071,0.00074334,-0.00028803,0.00145715,0.
 00013976,-0.00192753,0.00101974,-0.02194385,-0.13960938,0.24680747,0.0
 0001345,-0.00002186,-0.00001765,-0.00001773,0.00000612,0.00000748,0.00
 008950,-0.00001082,-0.00002278,-0.00050628,0.00126717,-0.00002870,-0.0
 0039987,-0.00074074,-0.00013166,0.00311717,-0.00094320,-0.00002763,0.0
 0065715,0.01555802,0.02246981,-0.04913509,-0.01538023,-0.02127802,-0.0
 0331425,0.00331185,-0.00045790,0.00083513,-0.00102119,-0.00038520,-0.0
 0100211,-0.01611627,-0.02496261,-0.00087877,0.00213199,0.00289122,0.05
 054170,0.00005028,0.00003678,0.00003518,-0.00000834,-0.00000641,-0.000
 00727,0.00004409,0.00001472,-0.00010693,-0.00015548,-0.00043543,0.0000
 8773,0.00036838,0.00025990,0.00018143,-0.00118011,0.00159148,0.0010828
 3,-0.00330841,-0.01605594,-0.02193282,-0.01298009,-0.13656391,-0.12588
 917,0.00395338,-0.00208724,0.00100077,-0.00072616,0.00049769,0.0002062
 5,-0.00014867,-0.00783518,-0.00988177,0.00213197,0.01225621,0.01561431
 ,0.01195914,0.14832733,0.00002374,0.00002917,-0.00000443,0.00000415,-0
 .00000702,-0.00000074,0.00003278,-0.00000379,0.00001933,0.00016985,-0.
 00010660,0.00003102,-0.00007632,0.00029113,-0.00005424,0.00043591,0.00
 027490,0.00012701,0.00026758,0.00089954,0.00139040,-0.01968445,-0.1275
 8388,-0.23185525,-0.00074334,0.00028803,0.00145714,0.00065742,-0.00000
 414,0.00076071,-0.00013976,0.00192752,0.00101972,-0.00289121,-0.015614
 33,-0.01969796,0.02194365,0.13960947,0.24680730\\-0.00000079,-0.000000
 51,0.00000003,-0.00000016,0.00000007,-0.00000001,0.00000092,0.00000062
 ,-0.00000002,0.00000021,-0.00000302,0.00000001,0.00000093,0.00000188,0
 .,0.00000136,0.00000211,0.,-0.00000092,-0.00000002,0.,-0.00000023,-0.0
 0000021,0.,-0.00000068,-0.00000027,0.00000025,-0.00000068,-0.00000027,
 -0.00000025,0.00000015,-0.00000006,0.,-0.00000006,-0.00000015,0.000000
 02,-0.00000006,-0.00000015,-0.00000002\\\@


 Just remember, when you're over the hill, you begin to pick up speed.
 -- Charles Schulz
 Job cpu time:       0 days  0 hours 19 minutes 33.9 seconds.
 Elapsed time:       0 days  0 hours  0 minutes 49.0 seconds.
 File lengths (MBytes):  RWF=     56 Int=      0 D2E=      0 Chk=      5 Scr=      1
 Normal termination of Gaussian 16 at Fri May 23 12:42:51 2025.
