 Entering Gaussian System, Link 0=g16
 Initial command:
 /opt/g16/l1.exe "/home/aayush/scratches/g16/Gau-3769.inp" -scrdir="/home/aayush/scratches/g16/"
 Entering Link 1 = /opt/g16/l1.exe PID=      3772.
  
 Copyright (c) 1988,1990,1992,1993,1995,1998,2003,2009,2016,
            Gaussian, Inc.  All Rights Reserved.
  
 This is part of the Gaussian(R) 16 program.  It is based on
 the Gaussian(R) 09 system (copyright 2009, Gaussian, Inc.),
 the Gaussian(R) 03 system (copyright 2003, Gaussian, Inc.),
 the Gaussian(R) 98 system (copyright 1998, Gaussian, Inc.),
 the Gaussian(R) 94 system (copyright 1995, Gaussian, Inc.),
 the Gaussian 92(TM) system (copyright 1992, Gaussian, Inc.),
 the Gaussian 90(TM) system (copyright 1990, Gaussian, Inc.),
 the Gaussian 88(TM) system (copyright 1988, Gaussian, Inc.),
 the Gaussian 86(TM) system (copyright 1986, Carnegie Mellon
 University), and the Gaussian 82(TM) system (copyright 1983,
 Carnegie Mellon University). Gaussian is a federally registered
 trademark of Gaussian, Inc.
  
 This software contains proprietary and confidential information,
 including trade secrets, belonging to Gaussian, Inc.
  
 This software is provided under written license and may be
 used, copied, transmitted, or stored only in accord with that
 written license.
  
 The following legend is applicable only to US Government
 contracts under FAR:
  
                    RESTRICTED RIGHTS LEGEND
  
 Use, reproduction and disclosure by the US Government is
 subject to restrictions as set forth in subparagraphs (a)
 and (c) of the Commercial Computer Software - Restricted
 Rights clause in FAR 52.227-19.
  
 Gaussian, Inc.
 340 Quinnipiac St., Bldg. 40, Wallingford CT 06492
  
  
 ---------------------------------------------------------------
 Warning -- This program may not be used in any manner that
 competes with the business of Gaussian, Inc. or will provide
 assistance to any competitor of Gaussian, Inc.  The licensee
 of this program is prohibited from giving any competitor of
 Gaussian, Inc. access to this program.  By using this program,
 the user acknowledges that Gaussian, Inc. is engaged in the
 business of creating and licensing software in the field of
 computational chemistry and represents and warrants to the
 licensee that it is not a competitor of Gaussian, Inc. and that
 it will not use this program in any manner prohibited above.
 ---------------------------------------------------------------
  

 Cite this work as:
 Gaussian 16, Revision A.03,
 M. J. Frisch, G. W. Trucks, H. B. Schlegel, G. E. Scuseria, 
 M. A. Robb, J. R. Cheeseman, G. Scalmani, V. Barone, 
 G. A. Petersson, H. Nakatsuji, X. Li, M. Caricato, A. V. Marenich, 
 J. Bloino, B. G. Janesko, R. Gomperts, B. Mennucci, H. P. Hratchian, 
 J. V. Ortiz, A. F. Izmaylov, J. L. Sonnenberg, D. Williams-Young, 
 F. Ding, F. Lipparini, F. Egidi, J. Goings, B. Peng, A. Petrone, 
 T. Henderson, D. Ranasinghe, V. G. Zakrzewski, J. Gao, N. Rega, 
 G. Zheng, W. Liang, M. Hada, M. Ehara, K. Toyota, R. Fukuda, 
 J. Hasegawa, M. Ishida, T. Nakajima, Y. Honda, O. Kitao, H. Nakai, 
 T. Vreven, K. Throssell, J. A. Montgomery, Jr., J. E. Peralta, 
 F. Ogliaro, M. J. Bearpark, J. J. Heyd, E. N. Brothers, K. N. Kudin, 
 V. N. Staroverov, T. A. Keith, R. Kobayashi, J. Normand, 
 K. Raghavachari, A. P. Rendell, J. C. Burant, S. S. Iyengar, 
 J. Tomasi, M. Cossi, J. M. Millam, M. Klene, C. Adamo, R. Cammi, 
 J. W. Ochterski, R. L. Martin, K. Morokuma, O. Farkas, 
 J. B. Foresman, and D. J. Fox, Gaussian, Inc., Wallingford CT, 2016.
 
 ******************************************
 Gaussian 16:  ES64L-G16RevA.03 25-Dec-2016
                22-May-2025 
 ******************************************
 %nprocshared=24
 Will use up to   24 processors via shared memory.
 %mem=12GB
 %chk=ethyl_propiolate.chk
 --------------------------
 # ccsd(t)/6-311++g(d,p) sp
 --------------------------
 1/38=1,172=1/1;
 2/12=2,17=6,18=5,40=1/2;
 3/5=4,6=6,7=1111,11=9,25=1,30=1/1,2,3;
 4//1;
 5/5=2,38=5/2;
 8/6=4,9=120000,10=2/1,4;
 9/5=7,14=2/13;
 6/7=2,8=2,9=2,10=2/1;
 99/5=1,9=1/99;
 -------------------
 Title Card Required
 -------------------
 Symbolic Z-matrix:
 Charge =  0 Multiplicity = 1
 C                    -2.94733  -0.92517   0.00001 
 H                    -3.87222  -1.45275   0.00001 
 C                    -1.90678  -0.33149   0. 
 C                    -0.67136   0.44038  0. 
 O                    -0.63147   1.63902  -0.00001 
 O                     0.39543  -0.35896   0. 
 C                     1.67116   0.31029  0. 
 C                     2.73586  -0.76167   0.00001 
 H                     1.72666   0.94976  -0.8832 
 H                     1.72666   0.94977   0.88319 
 H                     2.64704  -1.39146   0.8859 
 H                     2.64704  -1.39147  -0.88588 
 H                     3.7238   -0.29829   0. 
 
                          Input orientation:                          
 ---------------------------------------------------------------------
 Center     Atomic      Atomic             Coordinates (Angstroms)
 Number     Number       Type             X           Y           Z
 ---------------------------------------------------------------------
      1          6           0       -2.947326   -0.925173    0.000005
      2          1           0       -3.872221   -1.452754    0.000007
      3          6           0       -1.906776   -0.331494    0.000001
      4          6           0       -0.671363    0.440378   -0.000003
      5          8           0       -0.631473    1.639019   -0.000009
      6          8           0        0.395433   -0.358958    0.000002
      7          6           0        1.671160    0.310287   -0.000001
      8          6           0        2.735862   -0.761674    0.000005
      9          1           0        1.726661    0.949761   -0.883200
     10          1           0        1.726660    0.949770    0.883191
     11          1           0        2.647036   -1.391458    0.885900
     12          1           0        2.647036   -1.391467   -0.885884
     13          1           0        3.723800   -0.298285    0.000003
 ---------------------------------------------------------------------
                    Distance matrix (angstroms):
                    1          2          3          4          5
     1  C    0.000000
     2  H    1.064788   0.000000
     3  C    1.197998   2.262785   0.000000
     4  C    2.654192   3.718796   1.456719   0.000000
     5  O    3.455178   4.479007   2.347194   1.199305   0.000000
     6  O    3.390374   4.405594   2.302373   1.333039   2.246430
     7  C    4.780876   5.816991   3.635039   2.346132   2.658505
     8  C    5.685539   6.644122   4.662525   3.613047   4.135489
     9  H    5.112884   6.156266   3.952660   2.605768   2.610728
    10  H    5.112883   6.156265   3.952660   2.605768   2.610727
    11  H    5.683231   6.579459   4.758733   3.892585   4.551620
    12  H    5.683231   6.579458   4.758733   3.892584   4.551620
    13  H    6.700516   7.683250   5.630674   4.456802   4.766713
                    6          7          8          9         10
     6  O    0.000000
     7  C    1.440614   0.000000
     8  C    2.374824   1.510858   0.000000
     9  H    2.065178   1.091809   2.174292   0.000000
    10  H    2.065177   1.091809   2.174292   1.766391   0.000000
    11  H    2.630701   2.152462   1.090563   3.075404   2.515641
    12  H    2.630700   2.152461   1.090563   2.515640   3.075404
    13  H    3.328920   2.140956   1.091215   2.515200   2.515200
                   11         12         13
    11  H    0.000000
    12  H    1.771784   0.000000
    13  H    1.771796   1.771797   0.000000
 Stoichiometry    C5H6O2
 Framework group  C1[X(C5H6O2)]
 Deg. of freedom    33
 Full point group                 C1      NOp   1
 Largest Abelian subgroup         C1      NOp   1
 Largest concise Abelian subgroup C1      NOp   1
                         Standard orientation:                         
 ---------------------------------------------------------------------
 Center     Atomic      Atomic             Coordinates (Angstroms)
 Number     Number       Type             X           Y           Z
 ---------------------------------------------------------------------
      1          6           0       -2.947326   -0.925173    0.000005
      2          1           0       -3.872221   -1.452754    0.000007
      3          6           0       -1.906776   -0.331494    0.000001
      4          6           0       -0.671363    0.440378   -0.000003
      5          8           0       -0.631473    1.639019   -0.000009
      6          8           0        0.395433   -0.358958    0.000002
      7          6           0        1.671160    0.310287   -0.000001
      8          6           0        2.735862   -0.761674    0.000005
      9          1           0        1.726661    0.949761   -0.883200
     10          1           0        1.726660    0.949770    0.883191
     11          1           0        2.647036   -1.391458    0.885900
     12          1           0        2.647036   -1.391467   -0.885884
     13          1           0        3.723800   -0.298285    0.000003
 ---------------------------------------------------------------------
 Rotational constants (GHZ):           6.4720861           1.4990978           1.2359485
 Standard basis: 6-311++G(d,p) (5D, 7F)
 There are   203 symmetry adapted cartesian basis functions of A   symmetry.
 There are   196 symmetry adapted basis functions of A   symmetry.
   196 basis functions,   306 primitive gaussians,   203 cartesian basis functions
    26 alpha electrons       26 beta electrons
       nuclear repulsion energy       273.4057268072 Hartrees.
 NAtoms=   13 NActive=   13 NUniq=   13 SFac= 1.00D+00 NAtFMM=   60 NAOKFM=F Big=F
 Integral buffers will be    131072 words long.
 Raffenetti 1 integral format.
 Two-electron integral symmetry is turned on.
 One-electron integrals computed using PRISM.
 NBasis=   196 RedAO= T EigKep=  7.01D-06  NBF=   196
 NBsUse=   195 1.00D-06 EigRej=  8.34D-07 NBFU=   195
 ExpMin= 3.60D-02 ExpMax= 8.59D+03 ExpMxC= 1.30D+03 IAcc=3 IRadAn=         5 AccDes= 0.00D+00
 Harris functional with IExCor=  205 and IRadAn=       5 diagonalized for initial guess.
 HarFok:  IExCor=  205 AccDes= 0.00D+00 IRadAn=         5 IDoV= 1 UseB2=F ITyADJ=14
 ICtDFT=  3500011 ScaDFX=  1.000000  1.000000  1.000000  1.000000
 FoFCou: FMM=F IPFlag=           0 FMFlag=      100000 FMFlg1=           0
         NFxFlg=           0 DoJE=T BraDBF=F KetDBF=T FulRan=T
         wScrn=  0.000000 ICntrl=       500 IOpCl=  0 I1Cent=   200000004 NGrid=           0
         NMat0=    1 NMatS0=      1 NMatT0=    0 NMatD0=    1 NMtDS0=    0 NMtDT0=    0
 Petite list used in FoFCou.
 Requested convergence on RMS density matrix=1.00D-08 within 128 cycles.
 Requested convergence on MAX density matrix=1.00D-06.
 Requested convergence on             energy=1.00D-06.
 No special actions if energy rises.
 Initial convergence to 1.0D-05 achieved.  Increase integral accuracy.
 SCF Done:  E(RHF) =  -342.588879812     A.U. after   17 cycles
            NFock= 17  Conv=0.42D-08     -V/T= 2.0010
 ExpMin= 3.60D-02 ExpMax= 8.59D+03 ExpMxC= 1.30D+03 IAcc=3 IRadAn=         5 AccDes= 0.00D+00
 HarFok:  IExCor=  205 AccDes= 0.00D+00 IRadAn=         5 IDoV=-2 UseB2=F ITyADJ=14
 ICtDFT= 12500011 ScaDFX=  1.000000  1.000000  1.000000  1.000000
 Range of M.O.s used for correlation:     8   195
 NBasis=   196 NAE=    26 NBE=    26 NFC=     7 NFV=     0
 NROrb=    188 NOA=    19 NOB=    19 NVA=   169 NVB=   169

 **** Warning!!: The largest alpha MO coefficient is  0.15686837D+03

 Semi-Direct transformation.
 ModeAB=           4 MOrb=            19 LenV=    1609633359
 LASXX=     58885180 LTotXX=    58885180 LenRXX=   118697256
 LTotAB=    59812076 MaxLAS=    70032632 LenRXY=           0
 NonZer=   177582436 LenScr=   267418624 LnRSAI=    70032632
 LnScr1=   105822720 LExtra=           0 Total=    561971232
 MaxDsk=          -1 SrtSym=           T ITran=            4
 JobTyp=0 Pass  1:  I=   1 to  19.
 (rs|ai) integrals will be sorted in core.
 SymMOI:  orbitals are not symmetric.
 Spin components of T(2) and E(2):
     alpha-alpha T2 =       0.4565742459D-01 E2=     -0.1402073501D+00
     alpha-beta  T2 =       0.2575055408D+00 E2=     -0.8087257596D+00
     beta-beta   T2 =       0.4565742459D-01 E2=     -0.1402073501D+00
 ANorm=    0.1161387270D+01
 E2 =    -0.1089140460D+01 EUMP2 =    -0.34367802027133D+03
 Keep R2 and R3 ints in memory in canonical form, NReq=377990604.
 CIDS: In Core Option IDoMem=           1.
 Iterations=  50 Convergence= 0.100D-06
 Produce multiple copies of IABC intergrals
 Iteration Nr.   1
 **********************
 DD1Dir will call FoFMem   1 times, MxPair=       380
 NAB=   190 NAA=     0 NBB=     0.
 MP4(R+Q)=  0.22910234D-01
 E3=       -0.17165787D-01        EUMP3=      -0.34369518606D+03
 E4(DQ)=   -0.50281838D-02        UMP4(DQ)=   -0.34370021424D+03
 E4(SDQ)=  -0.21015952D-01        UMP4(SDQ)=  -0.34371620201D+03
 DE(Corr)=  -1.0826491     E(Corr)=     -343.67152896    
 NORM(A)=   0.11645977D+01
 Iteration Nr.   2
 **********************
 DD1Dir will call FoFMem   1 times, MxPair=       380
 NAB=   190 NAA=     0 NBB=     0.
 DE(Corr)=  -1.1198000     E(CORR)=     -343.70867978     Delta=-3.72D-02
 NORM(A)=   0.11796597D+01
 Iteration Nr.   3
 **********************
 DD1Dir will call FoFMem   1 times, MxPair=       380
 NAB=   190 NAA=     0 NBB=     0.
 DE(Corr)=  -1.1203331     E(CORR)=     -343.70921287     Delta=-5.33D-04
 NORM(A)=   0.11839170D+01
 Iteration Nr.   4
 **********************
 DD1Dir will call FoFMem   1 times, MxPair=       380
 NAB=   190 NAA=     0 NBB=     0.
 DE(Corr)=  -1.1239853     E(CORR)=     -343.71286515     Delta=-3.65D-03
 NORM(A)=   0.11852076D+01
 Iteration Nr.   5
 **********************
 DD1Dir will call FoFMem   1 times, MxPair=       380
 NAB=   190 NAA=     0 NBB=     0.
 DE(Corr)=  -1.1244431     E(CORR)=     -343.71332293     Delta=-4.58D-04
 NORM(A)=   0.11856953D+01
 Iteration Nr.   6
 **********************
 DD1Dir will call FoFMem   1 times, MxPair=       380
 NAB=   190 NAA=     0 NBB=     0.
 DE(Corr)=  -1.1245156     E(CORR)=     -343.71339537     Delta=-7.24D-05
 NORM(A)=   0.11857627D+01
 Iteration Nr.   7
 **********************
 DD1Dir will call FoFMem   1 times, MxPair=       380
 NAB=   190 NAA=     0 NBB=     0.
 DE(Corr)=  -1.1245219     E(CORR)=     -343.71340171     Delta=-6.34D-06
 NORM(A)=   0.11857583D+01
 Iteration Nr.   8
 **********************
 DD1Dir will call FoFMem   1 times, MxPair=       380
 NAB=   190 NAA=     0 NBB=     0.
 DE(Corr)=  -1.1245209     E(CORR)=     -343.71340072     Delta= 9.94D-07
 NORM(A)=   0.11857690D+01
 Iteration Nr.   9
 **********************
 DD1Dir will call FoFMem   1 times, MxPair=       380
 NAB=   190 NAA=     0 NBB=     0.
 DE(Corr)=  -1.1245186     E(CORR)=     -343.71339841     Delta= 2.30D-06
 NORM(A)=   0.11857689D+01
 Iteration Nr.  10
 **********************
 DD1Dir will call FoFMem   1 times, MxPair=       380
 NAB=   190 NAA=     0 NBB=     0.
 DE(Corr)=  -1.1245203     E(CORR)=     -343.71340009     Delta=-1.67D-06
 NORM(A)=   0.11857704D+01
 Iteration Nr.  11
 **********************
 DD1Dir will call FoFMem   1 times, MxPair=       380
 NAB=   190 NAA=     0 NBB=     0.
 DE(Corr)=  -1.1245205     E(CORR)=     -343.71340035     Delta=-2.70D-07
 NORM(A)=   0.11857715D+01
 Iteration Nr.  12
 **********************
 DD1Dir will call FoFMem   1 times, MxPair=       380
 NAB=   190 NAA=     0 NBB=     0.
 DE(Corr)=  -1.1245211     E(CORR)=     -343.71340090     Delta=-5.49D-07
 NORM(A)=   0.11857720D+01
 Iteration Nr.  13
 **********************
 DD1Dir will call FoFMem   1 times, MxPair=       380
 NAB=   190 NAA=     0 NBB=     0.
 DE(Corr)=  -1.1245212     E(CORR)=     -343.71340105     Delta=-1.44D-07
 NORM(A)=   0.11857724D+01
 Iteration Nr.  14
 **********************
 DD1Dir will call FoFMem   1 times, MxPair=       380
 NAB=   190 NAA=     0 NBB=     0.
 DE(Corr)=  -1.1245214     E(CORR)=     -343.71340117     Delta=-1.21D-07
 NORM(A)=   0.11857725D+01
 Iteration Nr.  15
 **********************
 DD1Dir will call FoFMem   1 times, MxPair=       380
 NAB=   190 NAA=     0 NBB=     0.
 DE(Corr)=  -1.1245214     E(CORR)=     -343.71340120     Delta=-2.92D-08
 NORM(A)=   0.11857726D+01
 Wavefunction amplitudes converged. E(Corr)=     -343.71340120    
 Largest amplitude= 4.74D-02
 T4(AAA)= -0.13586253D-02
 T4(AAB)= -0.23744492D-01
 T5(AAA)=  0.10466231D-03
 T5(AAB)=  0.13519060D-02
 Time for triples=     5258.36 seconds.
 T4(CCSD)= -0.50206234D-01
 T5(CCSD)=  0.29131367D-02
 CCSD(T)= -0.34376069430D+03
 Discarding MO integrals.

 **********************************************************************

            Population analysis using the SCF density.

 **********************************************************************

 Orbital symmetries:
       Occupied  (A) (A) (A) (A) (A) (A) (A) (A) (A) (A) (A) (A)
                 (A) (A) (A) (A) (A) (A) (A) (A) (A) (A) (A) (A)
                 (A) (A)
       Virtual   (A) (A) (A) (A) (A) (A) (A) (A) (A) (A) (A) (A)
                 (A) (A) (A) (A) (A) (A) (A) (A) (A) (A) (A) (A)
                 (A) (A) (A) (A) (A) (A) (A) (A) (A) (A) (A) (A)
                 (A) (A) (A) (A) (A) (A) (A) (A) (A) (A) (A) (A)
                 (A) (A) (A) (A) (A) (A) (A) (A) (A) (A) (A) (A)
                 (A) (A) (A) (A) (A) (A) (A) (A) (A) (A) (A) (A)
                 (A) (A) (A) (A) (A) (A) (A) (A) (A) (A) (A) (A)
                 (A) (A) (A) (A) (A) (A) (A) (A) (A) (A) (A) (A)
                 (A) (A) (A) (A) (A) (A) (A) (A) (A) (A) (A) (A)
                 (A) (A) (A) (A) (A) (A) (A) (A) (A) (A) (A) (A)
                 (A) (A) (A) (A) (A) (A) (A) (A) (A) (A) (A) (A)
                 (A) (A) (A) (A) (A) (A) (A) (A) (A) (A) (A) (A)
                 (A) (A) (A) (A) (A) (A) (A) (A) (A) (A) (A) (A)
                 (A) (A) (A) (A) (A) (A) (A) (A) (A) (A) (A) (A)
                 (A)
 The electronic state is 1-A.
 Alpha  occ. eigenvalues --  -20.61636 -20.56334 -11.41687 -11.29930 -11.26676
 Alpha  occ. eigenvalues --  -11.25991 -11.23112  -1.48524  -1.38320  -1.08011
 Alpha  occ. eigenvalues --   -1.04421  -0.92063  -0.83550  -0.77409  -0.72726
 Alpha  occ. eigenvalues --   -0.69740  -0.69322  -0.60286  -0.59236  -0.56060
 Alpha  occ. eigenvalues --   -0.52521  -0.52352  -0.48496  -0.47168  -0.42639
 Alpha  occ. eigenvalues --   -0.42559
 Alpha virt. eigenvalues --    0.03824   0.04322   0.06294   0.06480   0.07579
 Alpha virt. eigenvalues --    0.08432   0.09761   0.10460   0.11729   0.12445
 Alpha virt. eigenvalues --    0.12823   0.13959   0.15494   0.16193   0.16707
 Alpha virt. eigenvalues --    0.17766   0.18400   0.19163   0.19687   0.19700
 Alpha virt. eigenvalues --    0.20486   0.22128   0.22246   0.23330   0.24570
 Alpha virt. eigenvalues --    0.26054   0.29034   0.29472   0.29839   0.30809
 Alpha virt. eigenvalues --    0.32380   0.33932   0.34809   0.37284   0.37564
 Alpha virt. eigenvalues --    0.38990   0.39980   0.41336   0.41467   0.43224
 Alpha virt. eigenvalues --    0.45397   0.45734   0.46483   0.49213   0.54505
 Alpha virt. eigenvalues --    0.56890   0.57075   0.59337   0.63471   0.64924
 Alpha virt. eigenvalues --    0.67843   0.70647   0.70759   0.75071   0.78913
 Alpha virt. eigenvalues --    0.81325   0.82748   0.84175   0.85661   0.86205
 Alpha virt. eigenvalues --    0.86446   0.86556   0.87836   0.89760   0.91173
 Alpha virt. eigenvalues --    0.96584   0.97256   1.01171   1.06970   1.08492
 Alpha virt. eigenvalues --    1.10762   1.20685   1.21686   1.27681   1.30125
 Alpha virt. eigenvalues --    1.32176   1.35974   1.36622   1.38131   1.40582
 Alpha virt. eigenvalues --    1.42276   1.42504   1.49049   1.49371   1.50510
 Alpha virt. eigenvalues --    1.52555   1.55707   1.60302   1.65664   1.71447
 Alpha virt. eigenvalues --    1.72131   1.80008   1.80325   1.81021   1.84155
 Alpha virt. eigenvalues --    1.84604   1.87385   1.88792   1.91503   1.92437
 Alpha virt. eigenvalues --    1.94511   2.00317   2.00837   2.09118   2.09544
 Alpha virt. eigenvalues --    2.12529   2.17494   2.19585   2.27077   2.28547
 Alpha virt. eigenvalues --    2.34380   2.40833   2.41626   2.47932   2.56007
 Alpha virt. eigenvalues --    2.64784   2.71027   2.77807   2.80627   2.81967
 Alpha virt. eigenvalues --    2.85849   2.88183   2.91392   2.93358   2.95037
 Alpha virt. eigenvalues --    2.95140   2.96205   2.98610   3.04222   3.13680
 Alpha virt. eigenvalues --    3.13687   3.17372   3.20703   3.28416   3.30764
 Alpha virt. eigenvalues --    3.36780   3.37084   3.40313   3.44683   3.47058
 Alpha virt. eigenvalues --    3.55630   3.60822   3.64748   3.68595   3.71400
 Alpha virt. eigenvalues --    3.78022   3.92481   4.02994   4.11630   4.19737
 Alpha virt. eigenvalues --    4.21609   4.21746   4.44429   4.52129   4.53776
 Alpha virt. eigenvalues --    4.69409   5.56126   5.61572   5.76780   5.90875
 Alpha virt. eigenvalues --    6.21186   6.42663  24.69346  24.99694  25.01786
 Alpha virt. eigenvalues --   25.13667  26.29403  51.59657  51.71178
          Condensed to atoms (all electrons):
               1          2          3          4          5          6
     1  C    6.361461   0.482417  -1.568991   1.572607  -0.098579  -0.134781
     2  H    0.482417   0.402650  -0.137906   0.056783  -0.003388  -0.006252
     3  C   -1.568991  -0.137906  10.294110  -3.466222   0.117555  -0.083392
     4  C    1.572607   0.056783  -3.466222   8.018412   0.375994  -0.006868
     5  O   -0.098579  -0.003388   0.117555   0.375994   8.064822  -0.099037
     6  O   -0.134781  -0.006252  -0.083392  -0.006868  -0.099037   8.445180
     7  C    0.072936   0.000514  -0.452528  -0.008208  -0.047184   0.237171
     8  C    0.035609   0.001352  -0.126237   0.119139   0.026252  -0.184673
     9  H   -0.001942  -0.000151  -0.000443  -0.007441  -0.013164  -0.034471
    10  H   -0.001942  -0.000151  -0.000443  -0.007441  -0.013164  -0.034471
    11  H   -0.000963  -0.000016   0.008365   0.001455  -0.001092  -0.009604
    12  H   -0.000963  -0.000016   0.008365   0.001455  -0.001092  -0.009604
    13  H   -0.000643  -0.000025   0.001382  -0.002213   0.001527   0.024321
               7          8          9         10         11         12
     1  C    0.072936   0.035609  -0.001942  -0.001942  -0.000963  -0.000963
     2  H    0.000514   0.001352  -0.000151  -0.000151  -0.000016  -0.000016
     3  C   -0.452528  -0.126237  -0.000443  -0.000443   0.008365   0.008365
     4  C   -0.008208   0.119139  -0.007441  -0.007441   0.001455   0.001455
     5  O   -0.047184   0.026252  -0.013164  -0.013164  -0.001092  -0.001092
     6  O    0.237171  -0.184673  -0.034471  -0.034471  -0.009604  -0.009604
     7  C    5.427849   0.045247   0.446579   0.446579  -0.039712  -0.039712
     8  C    0.045247   5.583110  -0.059062  -0.059063   0.400236   0.400236
     9  H    0.446579  -0.059062   0.546665  -0.048918   0.004588  -0.006279
    10  H    0.446579  -0.059063  -0.048918   0.546665  -0.006279   0.004588
    11  H   -0.039712   0.400236   0.004588  -0.006279   0.565048  -0.040610
    12  H   -0.039712   0.400236  -0.006279   0.004588  -0.040610   0.565049
    13  H   -0.048950   0.413299  -0.004065  -0.004065  -0.034462  -0.034462
              13
     1  C   -0.000643
     2  H   -0.000025
     3  C    0.001382
     4  C   -0.002213
     5  O    0.001527
     6  O    0.024321
     7  C   -0.048950
     8  C    0.413299
     9  H   -0.004065
    10  H   -0.004065
    11  H   -0.034462
    12  H   -0.034462
    13  H    0.548559
 Mulliken charges:
               1
     1  C   -0.716226
     2  H    0.204190
     3  C    1.406386
     4  C   -0.647451
     5  O   -0.309451
     6  O   -0.103518
     7  C   -0.040580
     8  C   -0.595446
     9  H    0.178104
    10  H    0.178104
    11  H    0.153046
    12  H    0.153046
    13  H    0.139796
 Sum of Mulliken charges =  -0.00000
 Mulliken charges with hydrogens summed into heavy atoms:
               1
     1  C   -0.512036
     3  C    1.406386
     4  C   -0.647451
     5  O   -0.309451
     6  O   -0.103518
     7  C    0.315628
     8  C   -0.149558
 Electronic spatial extent (au):  <R**2>=            930.2995
 Charge=             -0.0000 electrons
 Dipole moment (field-independent basis, Debye):
    X=              0.8062    Y=             -2.0525    Z=              0.0000  Tot=              2.2051
 Quadrupole moment (field-independent basis, Debye-Ang):
   XX=            -29.3656   YY=            -46.6574   ZZ=            -41.0881
   XY=              6.5888   XZ=             -0.0000   YZ=              0.0000
 Traceless Quadrupole moment (field-independent basis, Debye-Ang):
   XX=              9.6714   YY=             -7.6204   ZZ=             -2.0510
   XY=              6.5888   XZ=             -0.0000   YZ=              0.0000
 Octapole moment (field-independent basis, Debye-Ang**2):
  XXX=            -23.6943  YYY=             -6.4817  ZZZ=             -0.0000  XYY=              1.2177
  XXY=            -18.6938  XXZ=              0.0001  XZZ=              5.3926  YZZ=              2.8354
  YYZ=              0.0001  XYZ=              0.0000
 Hexadecapole moment (field-independent basis, Debye-Ang**3):
 XXXX=           -793.2523 YYYY=           -248.0411 ZZZZ=            -54.7010 XXXY=             90.0930
 XXXZ=             -0.0005 YYYX=             11.5674 YYYZ=              0.0006 ZZZX=             -0.0001
 ZZZY=              0.0005 XXYY=           -177.0870 XXZZ=           -181.8440 YYZZ=            -46.1702
 XXYZ=             -0.0000 YYXZ=             -0.0001 ZZXY=             -3.6932
 N-N= 2.734057268072D+02 E-N=-1.350410438339D+03  KE= 3.422366109495D+02
 1\1\GINC-AJ\SP\RCCSD(T)-FC\6-311++G(d,p)\C5H6O2\AAYUSH\22-May-2025\0\\
 # ccsd(t)/6-311++g(d,p) sp\\Title Card Required\\0,1\C,0,-2.947326,-0.
 925173,0.000005\H,0,-3.872221,-1.452754,0.000007\C,0,-1.906776,-0.3314
 94,0.000001\C,0,-0.671363,0.440378,-0.000003\O,0,-0.631473,1.639019,-0
 .000009\O,0,0.395433,-0.358958,0.000002\C,0,1.67116,0.310287,-0.000001
 \C,0,2.735862,-0.761674,0.000005\H,0,1.726661,0.949761,-0.8832\H,0,1.7
 2666,0.94977,0.883191\H,0,2.647036,-1.391458,0.8859\H,0,2.647036,-1.39
 1467,-0.885884\H,0,3.7238,-0.298285,0.000003\\Version=ES64L-G16RevA.03
 \State=1-A\HF=-342.5888798\MP2=-343.6780203\MP3=-343.6951861\MP4D=-343
 .7231245\MP4DQ=-343.7002142\MP4SDQ=-343.716202\CCSD=-343.7134012\CCSD(
 T)=-343.7606943\RMSD=4.175e-09\PG=C01 [X(C5H6O2)]\\@


 CHINESE FORTUNE COOKIE OF JAN 1 1967 SAY....
 ALL THINGS ARE DIFFICULT BEFORE THEY ARE EASY.
 WE LEARN SO LITTLE AND FORGET SO MUCH.
 YOU WILL OVERCOME OBSTACLES TO ACHIEVE SUCCESS.
 AH SO.
 Job cpu time:       0 days  2 hours 34 minutes 34.3 seconds.
 Elapsed time:       0 days  0 hours  6 minutes 27.9 seconds.
 File lengths (MBytes):  RWF=  16160 Int=      0 D2E=      0 Chk=      4 Scr=      1
 Normal termination of Gaussian 16 at Thu May 22 20:09:24 2025.
