 Entering Gaussian System, Link 0=g16
 Initial command:
 /opt/g16/l1.exe "/home/aayush/scratches/g16/Gau-8801.inp" -scrdir="/home/aayush/scratches/g16/"
 Entering Link 1 = /opt/g16/l1.exe PID=      8804.
  
 Copyright (c) 1988,1990,1992,1993,1995,1998,2003,2009,2016,
            Gaussian, Inc.  All Rights Reserved.
  
 This is part of the Gaussian(R) 16 program.  It is based on
 the Gaussian(R) 09 system (copyright 2009, Gaussian, Inc.),
 the Gaussian(R) 03 system (copyright 2003, Gaussian, Inc.),
 the Gaussian(R) 98 system (copyright 1998, Gaussian, Inc.),
 the Gaussian(R) 94 system (copyright 1995, Gaussian, Inc.),
 the Gaussian 92(TM) system (copyright 1992, Gaussian, Inc.),
 the Gaussian 90(TM) system (copyright 1990, Gaussian, Inc.),
 the Gaussian 88(TM) system (copyright 1988, Gaussian, Inc.),
 the Gaussian 86(TM) system (copyright 1986, Carnegie Mellon
 University), and the Gaussian 82(TM) system (copyright 1983,
 Carnegie Mellon University). Gaussian is a federally registered
 trademark of Gaussian, Inc.
  
 This software contains proprietary and confidential information,
 including trade secrets, belonging to Gaussian, Inc.
  
 This software is provided under written license and may be
 used, copied, transmitted, or stored only in accord with that
 written license.
  
 The following legend is applicable only to US Government
 contracts under FAR:
  
                    RESTRICTED RIGHTS LEGEND
  
 Use, reproduction and disclosure by the US Government is
 subject to restrictions as set forth in subparagraphs (a)
 and (c) of the Commercial Computer Software - Restricted
 Rights clause in FAR 52.227-19.
  
 Gaussian, Inc.
 340 Quinnipiac St., Bldg. 40, Wallingford CT 06492
  
  
 ---------------------------------------------------------------
 Warning -- This program may not be used in any manner that
 competes with the business of Gaussian, Inc. or will provide
 assistance to any competitor of Gaussian, Inc.  The licensee
 of this program is prohibited from giving any competitor of
 Gaussian, Inc. access to this program.  By using this program,
 the user acknowledges that Gaussian, Inc. is engaged in the
 business of creating and licensing software in the field of
 computational chemistry and represents and warrants to the
 licensee that it is not a competitor of Gaussian, Inc. and that
 it will not use this program in any manner prohibited above.
 ---------------------------------------------------------------
  

 Cite this work as:
 Gaussian 16, Revision A.03,
 M. J. Frisch, G. W. Trucks, H. B. Schlegel, G. E. Scuseria, 
 M. A. Robb, J. R. Cheeseman, G. Scalmani, V. Barone, 
 G. A. Petersson, H. Nakatsuji, X. Li, M. Caricato, A. V. Marenich, 
 J. Bloino, B. G. Janesko, R. Gomperts, B. Mennucci, H. P. Hratchian, 
 J. V. Ortiz, A. F. Izmaylov, J. L. Sonnenberg, D. Williams-Young, 
 F. Ding, F. Lipparini, F. Egidi, J. Goings, B. Peng, A. Petrone, 
 T. Henderson, D. Ranasinghe, V. G. Zakrzewski, J. Gao, N. Rega, 
 G. Zheng, W. Liang, M. Hada, M. Ehara, K. Toyota, R. Fukuda, 
 J. Hasegawa, M. Ishida, T. Nakajima, Y. Honda, O. Kitao, H. Nakai, 
 T. Vreven, K. Throssell, J. A. Montgomery, Jr., J. E. Peralta, 
 F. Ogliaro, M. J. Bearpark, J. J. Heyd, E. N. Brothers, K. N. Kudin, 
 V. N. Staroverov, T. A. Keith, R. Kobayashi, J. Normand, 
 K. Raghavachari, A. P. Rendell, J. C. Burant, S. S. Iyengar, 
 J. Tomasi, M. Cossi, J. M. Millam, M. Klene, C. Adamo, R. Cammi, 
 J. W. Ochterski, R. L. Martin, K. Morokuma, O. Farkas, 
 J. B. Foresman, and D. J. Fox, Gaussian, Inc., Wallingford CT, 2016.
 
 ******************************************
 Gaussian 16:  ES64L-G16RevA.03 25-Dec-2016
                21-Apr-2025 
 ******************************************
 %chk=ethyl_propiolate.chk
 %nprocshared=24
 Will use up to   24 processors via shared memory.
 %mem=12GB
 --------------------------
 # ccsd(t)/6-311++g(d,p) sp
 --------------------------
 1/38=1,172=1/1;
 2/12=2,17=6,18=5,40=1/2;
 3/5=4,6=6,7=1111,11=9,25=1,30=1/1,2,3;
 4//1;
 5/5=2,38=5/2;
 8/6=4,9=120000,10=2/1,4;
 9/5=7,14=2/13;
 6/7=2,8=2,9=2,10=2/1;
 99/5=1,9=1/99;
 -------------------
 Title Card Required
 -------------------
 Symbolic Z-matrix:
 Charge =  0 Multiplicity = 2
 C                     2.9146    1.31167   0.31917 
 H                     3.67801   2.03812   0.47387 
 C                     2.05827   0.4922    0.14456 
 C                     1.05009  -0.53019  -0.09337 
 O                     1.27989  -1.61046  -0.55541 
 O                    -0.16433  -0.09911   0.26987 
 C                    -1.24448  -1.03261   0.04956 
 C                    -2.49612  -0.4086    0.6059 
 H                    -1.3187   -1.2222   -1.02317 
 H                    -0.99672  -1.97124   0.54889 
 H                    -2.41694  -0.21373   1.6753 
 H                    -2.72552   0.54819   0.1052 
 H                    -3.36188  -1.04141   0.40504 
 O                    -2.29238   1.83806  -0.601 
 H                    -1.35726   1.81523  -0.3281 
 
                          Input orientation:                          
 ---------------------------------------------------------------------
 Center     Atomic      Atomic             Coordinates (Angstroms)
 Number     Number       Type             X           Y           Z
 ---------------------------------------------------------------------
      1          6           0        2.914597    1.311666    0.319172
      2          1           0        3.678011    2.038116    0.473867
      3          6           0        2.058273    0.492202    0.144556
      4          6           0        1.050088   -0.530185   -0.093370
      5          8           0        1.279887   -1.610461   -0.555406
      6          8           0       -0.164332   -0.099112    0.269871
      7          6           0       -1.244475   -1.032607    0.049555
      8          6           0       -2.496123   -0.408600    0.605901
      9          1           0       -1.318696   -1.222195   -1.023167
     10          1           0       -0.996715   -1.971239    0.548894
     11          1           0       -2.416943   -0.213725    1.675297
     12          1           0       -2.725521    0.548188    0.105200
     13          1           0       -3.361878   -1.041415    0.405042
     14          8           0       -2.292381    1.838059   -0.600997
     15          1           0       -1.357259    1.815232   -0.328096
 ---------------------------------------------------------------------
                    Distance matrix (angstroms):
                    1          2          3          4          5
     1  C    0.000000
     2  H    1.065111   0.000000
     3  C    1.198041   2.263150   0.000000
     4  C    2.653111   3.718052   1.455445   0.000000
     5  O    3.460634   4.485813   2.348834   1.197197   0.000000
     6  O    3.387112   4.401472   2.303330   1.338874   2.247449
     7  C    4.781860   5.817237   3.638985   2.353269   2.659379
     8  C    5.684841   6.642574   4.665491   3.616542   4.129329
     9  H    5.113032   6.151245   3.963162   2.637146   2.668742
    10  H    5.111614   6.159027   3.945248   2.584288   2.555887
    11  H    5.708871   6.607775   4.782161   3.904950   4.538002
    12  H    5.695578   6.584909   4.784283   3.931608   4.597767
    13  H    6.703619   7.684288   5.638960   4.469364   4.774124
    14  O    5.313795   6.069673   4.614691   4.127755   4.965427
    15  H    4.349861   5.103603   3.693192   3.369183   4.329155
                    6          7          8          9         10
     6  O    0.000000
     7  C    1.444528   0.000000
     8  C    2.376120   1.505167   0.000000
     9  H    2.065386   1.091872   2.168440   0.000000
    10  H    2.067746   1.091675   2.166406   1.770908   0.000000
    11  H    2.657558   2.165245   1.089887   3.082996   2.524814
    12  H    2.646848   2.166912   1.103978   2.527177   3.087579
    13  H    3.336241   2.147055   1.091023   2.499411   2.545439
    14  O    3.006599   3.124428   2.558435   3.239050   4.184704
    15  H    2.333528   2.874983   2.667356   3.116179   3.903392
                   11         12         13         14         15
    11  H    0.000000
    12  H    1.772269   0.000000
    13  H    1.786483   1.738302   0.000000
    14  O    3.067058   1.533001   3.232230   0.000000
    15  H    3.041904   1.914494   3.566009   0.974397   0.000000
 Stoichiometry    C5H7O3(2)
 Framework group  C1[X(C5H7O3)]
 Deg. of freedom    39
 Full point group                 C1      NOp   1
 Largest Abelian subgroup         C1      NOp   1
 Largest concise Abelian subgroup C1      NOp   1
                         Standard orientation:                         
 ---------------------------------------------------------------------
 Center     Atomic      Atomic             Coordinates (Angstroms)
 Number     Number       Type             X           Y           Z
 ---------------------------------------------------------------------
      1          6           0        2.988446    1.297406    0.320604
      2          1           0        3.754480    2.019383    0.483093
      3          6           0        2.129168    0.482969    0.137204
      4          6           0        1.117327   -0.533201   -0.111589
      5          8           0        1.343579   -1.610112   -0.583135
      6          8           0       -0.095945   -0.100660    0.253737
      7          6           0       -1.179419   -1.027819    0.023256
      8          6           0       -2.429458   -0.403971    0.583387
      9          1           0       -1.252723   -1.207301   -1.051266
     10          1           0       -0.936140   -1.971948    0.514366
     11          1           0       -2.351170   -0.219191    1.654639
     12          1           0       -2.654301    0.558254    0.091108
     13          1           0       -3.297390   -1.031491    0.375437
     14          8           0       -2.214979    1.852799   -0.602607
     15          1           0       -1.280380    1.823777   -0.328508
 ---------------------------------------------------------------------
 Rotational constants (GHZ):           2.9048029           1.1591045           0.8947156
 Standard basis: 6-311++G(d,p) (5D, 7F)
 There are   233 symmetry adapted cartesian basis functions of A   symmetry.
 There are   225 symmetry adapted basis functions of A   symmetry.
   225 basis functions,   351 primitive gaussians,   233 cartesian basis functions
    31 alpha electrons       30 beta electrons
       nuclear repulsion energy       347.2128960304 Hartrees.
 NAtoms=   15 NActive=   15 NUniq=   15 SFac= 1.00D+00 NAtFMM=   60 NAOKFM=F Big=F
 Integral buffers will be    131072 words long.
 Raffenetti 2 integral format.
 Two-electron integral symmetry is turned on.
 One-electron integrals computed using PRISM.
 NBasis=   225 RedAO= T EigKep=  6.74D-06  NBF=   225
 NBsUse=   224 1.00D-06 EigRej=  7.98D-07 NBFU=   224
 ExpMin= 3.60D-02 ExpMax= 8.59D+03 ExpMxC= 1.30D+03 IAcc=3 IRadAn=         5 AccDes= 0.00D+00
 Harris functional with IExCor=  205 and IRadAn=       5 diagonalized for initial guess.
 HarFok:  IExCor=  205 AccDes= 0.00D+00 IRadAn=         5 IDoV= 1 UseB2=F ITyADJ=14
 ICtDFT=  3500011 ScaDFX=  1.000000  1.000000  1.000000  1.000000
 FoFCou: FMM=F IPFlag=           0 FMFlag=      100000 FMFlg1=           0
         NFxFlg=           0 DoJE=T BraDBF=F KetDBF=T FulRan=T
         wScrn=  0.000000 ICntrl=       500 IOpCl=  0 I1Cent=   200000004 NGrid=           0
         NMat0=    1 NMatS0=      1 NMatT0=    0 NMatD0=    1 NMtDS0=    0 NMtDT0=    0
 Petite list used in FoFCou.
 Initial guess <Sx>= 0.0000 <Sy>= 0.0000 <Sz>= 0.5000 <S**2>= 0.7500 S= 0.5000
 Requested convergence on RMS density matrix=1.00D-08 within 128 cycles.
 Requested convergence on MAX density matrix=1.00D-06.
 Requested convergence on             energy=1.00D-06.
 No special actions if energy rises.
 Initial convergence to 1.0D-05 achieved.  Increase integral accuracy.
 SCF Done:  E(UHF) =  -417.983991587     A.U. after   27 cycles
            NFock= 27  Conv=0.93D-08     -V/T= 2.0006
 <Sx>= 0.0000 <Sy>= 0.0000 <Sz>= 0.5000 <S**2>= 0.7617 S= 0.5058
 <L.S>=  0.00000000000    
 Annihilation of the first spin contaminant:
 S**2 before annihilation     0.7617,   after     0.7501
 ExpMin= 3.60D-02 ExpMax= 8.59D+03 ExpMxC= 1.30D+03 IAcc=3 IRadAn=         5 AccDes= 0.00D+00
 HarFok:  IExCor=  205 AccDes= 0.00D+00 IRadAn=         5 IDoV=-2 UseB2=F ITyADJ=14
 ICtDFT= 12500011 ScaDFX=  1.000000  1.000000  1.000000  1.000000
 Range of M.O.s used for correlation:     9   224
 NBasis=   225 NAE=    31 NBE=    30 NFC=     8 NFV=     0
 NROrb=    216 NOA=    23 NOB=    22 NVA=   193 NVB=   194

 **** Warning!!: The largest alpha MO coefficient is  0.15380245D+03


 **** Warning!!: The largest beta MO coefficient is  0.17862502D+03

 Semi-Direct transformation.
 ModeAB=           4 MOrb=            23 LenV=    1609186699
 LASXX=    107793295 LTotXX=   107793295 LenRXX=   218294035
 LTotAB=   110500740 MaxLAS=   126023256 LenRXY=           0
 NonZer=   326087330 LenScr=   491049984 LnRSAI=   126023256
 LnScr1=   189790720 LExtra=           0 Total=   1025157995
 MaxDsk=          -1 SrtSym=           T ITran=            4
 JobTyp=1 Pass  1:  I=   1 to  23.
 (rs|ai) integrals will be sorted in core.
 ModeAB=           4 MOrb=            22 LenV=    1609186699
 LASXX=    103454307 LTotXX=   103454307 LenRXX=   188091948
 LTotAB=    84637641 MaxLAS=   120543984 LenRXY=           0
 NonZer=   291546255 LenScr=   439034880 LnRSAI=   120543984
 LnScr1=   181568512 LExtra=           0 Total=    929239324
 MaxDsk=          -1 SrtSym=           T ITran=            4
 JobTyp=2 Pass  1:  I=   1 to  22.
 (rs|ai) integrals will be sorted in core.
 SymMOI:  orbitals are not symmetric.
 Spin components of T(2) and E(2):
     alpha-alpha T2 =       0.5257745260D-01 E2=     -0.1702715862D+00
     alpha-beta  T2 =       0.2893599692D+00 E2=     -0.9406986487D+00
     beta-beta   T2 =       0.5040060056D-01 E2=     -0.1566948620D+00
 ANorm=    0.1179973738D+01
 E2 =    -0.1267665097D+01 EUMP2 =    -0.41925165668355D+03
 (S**2,0)=  0.76169D+00           (S**2,1)=  0.75321D+00
 E(PUHF)=      -0.41798795651D+03        E(PMP2)=      -0.41925419082D+03
 Keep R2 and R3 ints in memory in canonical form, NReq=652883968.
 CIDS: In Core Option IDoMem=           1.
 Iterations=  50 Convergence= 0.100D-06
 Produce multiple copies of IABC intergrals
 Iteration Nr.   1
 **********************
 DD1Dir will call FoFMem   1 times, MxPair=      1496
 NAB=   506 NAA=   253 NBB=   231.
 E(PMP3)=      -0.41927880959D+03
 MP4(R+Q)=  0.25338620D-01
 E3=       -0.25580947D-01        EUMP3=      -0.41927723763D+03
 E4(DQ)=   -0.57031007D-02        UMP4(DQ)=   -0.41928294073D+03
 E4(SDQ)=  -0.24189206D-01        UMP4(SDQ)=  -0.41930142684D+03
 DE(Corr)=  -1.2671794     E(Corr)=     -419.25117102    
 NORM(A)=   0.11852933D+01
 Iteration Nr.   2
 **********************
 DD1Dir will call FoFMem   1 times, MxPair=      1496
 NAB=   506 NAA=   253 NBB=   231.
 DE(Corr)=  -1.3090928     E(CORR)=     -419.29308439     Delta=-4.19D-02
 NORM(A)=   0.12025787D+01
 Iteration Nr.   3
 **********************
 DD1Dir will call FoFMem   1 times, MxPair=      1496
 NAB=   506 NAA=   253 NBB=   231.
 DE(Corr)=  -1.3103684     E(CORR)=     -419.29436000     Delta=-1.28D-03
 NORM(A)=   0.12083109D+01
 Iteration Nr.   4
 **********************
 DD1Dir will call FoFMem   1 times, MxPair=      1496
 NAB=   506 NAA=   253 NBB=   231.
 DE(Corr)=  -1.3150408     E(CORR)=     -419.29903234     Delta=-4.67D-03
 NORM(A)=   0.12105461D+01
 Iteration Nr.   5
 **********************
 DD1Dir will call FoFMem   1 times, MxPair=      1496
 NAB=   506 NAA=   253 NBB=   231.
 DE(Corr)=  -1.3157899     E(CORR)=     -419.29978149     Delta=-7.49D-04
 NORM(A)=   0.12116796D+01
 Iteration Nr.   6
 **********************
 DD1Dir will call FoFMem   1 times, MxPair=      1496
 NAB=   506 NAA=   253 NBB=   231.
 DE(Corr)=  -1.3159813     E(CORR)=     -419.29997285     Delta=-1.91D-04
 NORM(A)=   0.12119187D+01
 Iteration Nr.   7
 **********************
 DD1Dir will call FoFMem   1 times, MxPair=      1496
 NAB=   506 NAA=   253 NBB=   231.
 DE(Corr)=  -1.3160207     E(CORR)=     -419.30001227     Delta=-3.94D-05
 NORM(A)=   0.12119654D+01
 Iteration Nr.   8
 **********************
 DD1Dir will call FoFMem   1 times, MxPair=      1496
 NAB=   506 NAA=   253 NBB=   231.
 DE(Corr)=  -1.3160086     E(CORR)=     -419.30000020     Delta= 1.21D-05
 NORM(A)=   0.12119990D+01
 Iteration Nr.   9
 **********************
 DD1Dir will call FoFMem   1 times, MxPair=      1496
 NAB=   506 NAA=   253 NBB=   231.
 DE(Corr)=  -1.3160175     E(CORR)=     -419.30000909     Delta=-8.89D-06
 NORM(A)=   0.12120050D+01
 Iteration Nr.  10
 **********************
 DD1Dir will call FoFMem   1 times, MxPair=      1496
 NAB=   506 NAA=   253 NBB=   231.
 DE(Corr)=  -1.3160191     E(CORR)=     -419.30001068     Delta=-1.59D-06
 NORM(A)=   0.12120141D+01
 Iteration Nr.  11
 **********************
 DD1Dir will call FoFMem   1 times, MxPair=      1496
 NAB=   506 NAA=   253 NBB=   231.
 DE(Corr)=  -1.3160263     E(CORR)=     -419.30001789     Delta=-7.21D-06
 NORM(A)=   0.12120217D+01
 Iteration Nr.  12
 **********************
 DD1Dir will call FoFMem   1 times, MxPair=      1496
 NAB=   506 NAA=   253 NBB=   231.
 DE(Corr)=  -1.3160275     E(CORR)=     -419.30001905     Delta=-1.16D-06
 NORM(A)=   0.12120279D+01
 Iteration Nr.  13
 **********************
 DD1Dir will call FoFMem   1 times, MxPair=      1496
 NAB=   506 NAA=   253 NBB=   231.
 DE(Corr)=  -1.3160299     E(CORR)=     -419.30002150     Delta=-2.45D-06
 NORM(A)=   0.12120323D+01
 Iteration Nr.  14
 **********************
 DD1Dir will call FoFMem   1 times, MxPair=      1496
 NAB=   506 NAA=   253 NBB=   231.
 DE(Corr)=  -1.3160306     E(CORR)=     -419.30002217     Delta=-6.74D-07
 NORM(A)=   0.12120352D+01
 Iteration Nr.  15
 **********************
 DD1Dir will call FoFMem   1 times, MxPair=      1496
 NAB=   506 NAA=   253 NBB=   231.
 DE(Corr)=  -1.3160305     E(CORR)=     -419.30002209     Delta= 8.60D-08
 NORM(A)=   0.12120376D+01
 Iteration Nr.  16
 **********************
 DD1Dir will call FoFMem   1 times, MxPair=      1496
 NAB=   506 NAA=   253 NBB=   231.
 DE(Corr)=  -1.3160313     E(CORR)=     -419.30002292     Delta=-8.34D-07
 NORM(A)=   0.12120391D+01
 Iteration Nr.  17
 **********************
 DD1Dir will call FoFMem   1 times, MxPair=      1496
 NAB=   506 NAA=   253 NBB=   231.
 DE(Corr)=  -1.3160306     E(CORR)=     -419.30002222     Delta= 7.06D-07
 NORM(A)=   0.12120398D+01
 Iteration Nr.  18
 **********************
 DD1Dir will call FoFMem   1 times, MxPair=      1496
 NAB=   506 NAA=   253 NBB=   231.
 DE(Corr)=  -1.3160314     E(CORR)=     -419.30002299     Delta=-7.75D-07
 NORM(A)=   0.12120393D+01
 Iteration Nr.  19
 **********************
 DD1Dir will call FoFMem   1 times, MxPair=      1496
 NAB=   506 NAA=   253 NBB=   231.
 DE(Corr)=  -1.3160310     E(CORR)=     -419.30002262     Delta= 3.68D-07
 NORM(A)=   0.12120388D+01
 Iteration Nr.  20
 **********************
 DD1Dir will call FoFMem   1 times, MxPair=      1496
 NAB=   506 NAA=   253 NBB=   231.
 DE(Corr)=  -1.3160310     E(CORR)=     -419.30002259     Delta= 3.82D-08
 NORM(A)=   0.12120384D+01
 Wavefunction amplitudes converged. E(Corr)=     -419.30002259    
 Largest amplitude= 3.54D-02
 Time for triples=    35968.25 seconds.
 T4(CCSD)= -0.56057040D-01
 T5(CCSD)=  0.34422885D-02
 CCSD(T)= -0.41935263734D+03

 S**2, projected HF & approx projected MPn energies after annihilation of
 unwanted spin states (see manual for definitions):

 spins       (S**2,0) (S**2,1)    PUHF        PMP2        PMP3        PMP4
 annihilated
 s+1         0.74994  0.75003 -417.987957 -419.254191 -419.278810
 s+1,s+2     0.75000  0.75000 -417.987941 -419.254176 -419.278796
 s+1 to s+3  0.75000  0.75000 -417.987941 -419.254176 -419.278796
 s+1 to s+4  0.75000  0.75000 -417.987941 -419.254176 -419.278797
 s+1 to s+5  0.75000  0.75000 -417.987941
 s+1 to s+6  0.75000  0.75000 -417.987941

 Discarding MO integrals.

 **********************************************************************

            Population analysis using the SCF density.

 **********************************************************************

 Orbital symmetries:
 Alpha Orbitals:
       Occupied  (A) (A) (A) (A) (A) (A) (A) (A) (A) (A) (A) (A)
                 (A) (A) (A) (A) (A) (A) (A) (A) (A) (A) (A) (A)
                 (A) (A) (A) (A) (A) (A) (A)
       Virtual   (A) (A) (A) (A) (A) (A) (A) (A) (A) (A) (A) (A)
                 (A) (A) (A) (A) (A) (A) (A) (A) (A) (A) (A) (A)
                 (A) (A) (A) (A) (A) (A) (A) (A) (A) (A) (A) (A)
                 (A) (A) (A) (A) (A) (A) (A) (A) (A) (A) (A) (A)
                 (A) (A) (A) (A) (A) (A) (A) (A) (A) (A) (A) (A)
                 (A) (A) (A) (A) (A) (A) (A) (A) (A) (A) (A) (A)
                 (A) (A) (A) (A) (A) (A) (A) (A) (A) (A) (A) (A)
                 (A) (A) (A) (A) (A) (A) (A) (A) (A) (A) (A) (A)
                 (A) (A) (A) (A) (A) (A) (A) (A) (A) (A) (A) (A)
                 (A) (A) (A) (A) (A) (A) (A) (A) (A) (A) (A) (A)
                 (A) (A) (A) (A) (A) (A) (A) (A) (A) (A) (A) (A)
                 (A) (A) (A) (A) (A) (A) (A) (A) (A) (A) (A) (A)
                 (A) (A) (A) (A) (A) (A) (A) (A) (A) (A) (A) (A)
                 (A) (A) (A) (A) (A) (A) (A) (A) (A) (A) (A) (A)
                 (A) (A) (A) (A) (A) (A) (A) (A) (A) (A) (A) (A)
                 (A) (A) (A) (A) (A) (A) (A) (A) (A) (A) (A) (A)
                 (A)
 Beta  Orbitals:
       Occupied  (A) (A) (A) (A) (A) (A) (A) (A) (A) (A) (A) (A)
                 (A) (A) (A) (A) (A) (A) (A) (A) (A) (A) (A) (A)
                 (A) (A) (A) (A) (A) (A)
       Virtual   (A) (A) (A) (A) (A) (A) (A) (A) (A) (A) (A) (A)
                 (A) (A) (A) (A) (A) (A) (A) (A) (A) (A) (A) (A)
                 (A) (A) (A) (A) (A) (A) (A) (A) (A) (A) (A) (A)
                 (A) (A) (A) (A) (A) (A) (A) (A) (A) (A) (A) (A)
                 (A) (A) (A) (A) (A) (A) (A) (A) (A) (A) (A) (A)
                 (A) (A) (A) (A) (A) (A) (A) (A) (A) (A) (A) (A)
                 (A) (A) (A) (A) (A) (A) (A) (A) (A) (A) (A) (A)
                 (A) (A) (A) (A) (A) (A) (A) (A) (A) (A) (A) (A)
                 (A) (A) (A) (A) (A) (A) (A) (A) (A) (A) (A) (A)
                 (A) (A) (A) (A) (A) (A) (A) (A) (A) (A) (A) (A)
                 (A) (A) (A) (A) (A) (A) (A) (A) (A) (A) (A) (A)
                 (A) (A) (A) (A) (A) (A) (A) (A) (A) (A) (A) (A)
                 (A) (A) (A) (A) (A) (A) (A) (A) (A) (A) (A) (A)
                 (A) (A) (A) (A) (A) (A) (A) (A) (A) (A) (A) (A)
                 (A) (A) (A) (A) (A) (A) (A) (A) (A) (A) (A) (A)
                 (A) (A) (A) (A) (A) (A) (A) (A) (A) (A) (A) (A)
                 (A) (A)
 The electronic state is 2-A.
 Alpha  occ. eigenvalues --  -20.63284 -20.62734 -20.57312 -11.42636 -11.30334
 Alpha  occ. eigenvalues --  -11.27651 -11.26883 -11.22880  -1.49406  -1.39632
 Alpha  occ. eigenvalues --   -1.39090  -1.08894  -1.05189  -0.93016  -0.84534
 Alpha  occ. eigenvalues --   -0.78415  -0.73642  -0.71848  -0.70478  -0.69308
 Alpha  occ. eigenvalues --   -0.67209  -0.60743  -0.59107  -0.56084  -0.55840
 Alpha  occ. eigenvalues --   -0.53215  -0.50254  -0.49337  -0.47204  -0.43555
 Alpha  occ. eigenvalues --   -0.43511
 Alpha virt. eigenvalues --    0.03467   0.04545   0.06333   0.06594   0.07078
 Alpha virt. eigenvalues --    0.07635   0.09192   0.10016   0.10874   0.11569
 Alpha virt. eigenvalues --    0.12379   0.13811   0.14770   0.15609   0.16348
 Alpha virt. eigenvalues --    0.17288   0.17406   0.18529   0.19385   0.19721
 Alpha virt. eigenvalues --    0.20629   0.20697   0.21588   0.22509   0.23105
 Alpha virt. eigenvalues --    0.23809   0.25089   0.27941   0.28625   0.29253
 Alpha virt. eigenvalues --    0.29940   0.30910   0.31691   0.34341   0.34569
 Alpha virt. eigenvalues --    0.35200   0.35284   0.36573   0.37941   0.38974
 Alpha virt. eigenvalues --    0.40598   0.41088   0.41879   0.43363   0.44350
 Alpha virt. eigenvalues --    0.45059   0.46691   0.47787   0.48368   0.50243
 Alpha virt. eigenvalues --    0.54487   0.56734   0.57770   0.58843   0.62844
 Alpha virt. eigenvalues --    0.66099   0.68484   0.70019   0.71523   0.73460
 Alpha virt. eigenvalues --    0.75397   0.79841   0.81735   0.83488   0.84521
 Alpha virt. eigenvalues --    0.84883   0.85598   0.86977   0.87901   0.89757
 Alpha virt. eigenvalues --    0.90719   0.91340   0.96195   0.97141   1.00573
 Alpha virt. eigenvalues --    1.06295   1.08495   1.13859   1.20299   1.24902
 Alpha virt. eigenvalues --    1.25699   1.26987   1.28586   1.29000   1.31241
 Alpha virt. eigenvalues --    1.32601   1.35882   1.36630   1.38285   1.40575
 Alpha virt. eigenvalues --    1.41446   1.41679   1.47980   1.48926   1.50383
 Alpha virt. eigenvalues --    1.51725   1.55327   1.58519   1.62593   1.64066
 Alpha virt. eigenvalues --    1.66917   1.69922   1.76206   1.77100   1.80983
 Alpha virt. eigenvalues --    1.83161   1.83560   1.83942   1.86398   1.88928
 Alpha virt. eigenvalues --    1.90869   1.91631   1.93922   1.97866   2.00789
 Alpha virt. eigenvalues --    2.03748   2.08739   2.09551   2.13670   2.16871
 Alpha virt. eigenvalues --    2.19883   2.26024   2.29416   2.32993   2.35153
 Alpha virt. eigenvalues --    2.40768   2.43910   2.48753   2.57550   2.62995
 Alpha virt. eigenvalues --    2.70319   2.73280   2.79769   2.80262   2.84056
 Alpha virt. eigenvalues --    2.86215   2.89788   2.91528   2.93496   2.94866
 Alpha virt. eigenvalues --    2.95662   2.98877   2.99446   3.05052   3.12802
 Alpha virt. eigenvalues --    3.13511   3.14838   3.17301   3.21026   3.28008
 Alpha virt. eigenvalues --    3.30073   3.35754   3.36200   3.39190   3.42413
 Alpha virt. eigenvalues --    3.45025   3.46227   3.48065   3.54840   3.59483
 Alpha virt. eigenvalues --    3.61865   3.66146   3.69323   3.71336   3.77299
 Alpha virt. eigenvalues --    3.91903   4.02411   4.10928   4.15062   4.20804
 Alpha virt. eigenvalues --    4.24407   4.28491   4.43559   4.51355   4.54133
 Alpha virt. eigenvalues --    4.70658   5.49679   5.53756   5.58189   5.61178
 Alpha virt. eigenvalues --    5.75979   5.90759   6.00339   6.19761   6.41500
 Alpha virt. eigenvalues --   24.68675  24.99518  25.01623  25.14803  26.28660
 Alpha virt. eigenvalues --   51.50795  51.58803  51.70297
  Beta  occ. eigenvalues --  -20.62733 -20.59238 -20.57314 -11.42637 -11.30371
  Beta  occ. eigenvalues --  -11.27649 -11.26884 -11.22393  -1.49402  -1.39319
  Beta  occ. eigenvalues --   -1.24287  -1.08773  -1.04647  -0.92404  -0.83893
  Beta  occ. eigenvalues --   -0.78368  -0.73620  -0.70483  -0.70124  -0.64953
  Beta  occ. eigenvalues --   -0.60747  -0.59249  -0.55960  -0.53197  -0.52012
  Beta  occ. eigenvalues --   -0.50929  -0.49349  -0.47990  -0.43563  -0.43511
  Beta virt. eigenvalues --    0.03446   0.04536   0.05532   0.06358   0.07076
  Beta virt. eigenvalues --    0.07596   0.08498   0.09584   0.10626   0.11229
  Beta virt. eigenvalues --    0.11762   0.12599   0.13932   0.14855   0.15672
  Beta virt. eigenvalues --    0.16441   0.17298   0.17469   0.18597   0.19517
  Beta virt. eigenvalues --    0.19837   0.20728   0.20903   0.21658   0.22536
  Beta virt. eigenvalues --    0.23134   0.23854   0.25268   0.28370   0.28763
  Beta virt. eigenvalues --    0.29540   0.30185   0.31315   0.32093   0.34409
  Beta virt. eigenvalues --    0.34856   0.35455   0.35951   0.37294   0.38354
  Beta virt. eigenvalues --    0.39199   0.40638   0.41164   0.41992   0.43547
  Beta virt. eigenvalues --    0.45005   0.45090   0.46952   0.47898   0.50386
  Beta virt. eigenvalues --    0.51392   0.54595   0.56789   0.57855   0.58862
  Beta virt. eigenvalues --    0.62883   0.66263   0.68635   0.70205   0.71785
  Beta virt. eigenvalues --    0.73677   0.75605   0.80044   0.81796   0.83564
  Beta virt. eigenvalues --    0.84613   0.85603   0.86798   0.87368   0.88164
  Beta virt. eigenvalues --    0.89830   0.91015   0.91521   0.96211   0.97376
  Beta virt. eigenvalues --    1.00597   1.06508   1.08559   1.14656   1.20474
  Beta virt. eigenvalues --    1.25405   1.26863   1.27529   1.29167   1.30075
  Beta virt. eigenvalues --    1.32226   1.35327   1.36462   1.37149   1.39715
  Beta virt. eigenvalues --    1.40680   1.41680   1.44730   1.48345   1.48985
  Beta virt. eigenvalues --    1.50857   1.52279   1.55459   1.58776   1.63031
  Beta virt. eigenvalues --    1.64492   1.68613   1.70683   1.77442   1.77584
  Beta virt. eigenvalues --    1.81042   1.83430   1.83933   1.84103   1.86462
  Beta virt. eigenvalues --    1.89123   1.90979   1.91849   1.94077   1.98833
  Beta virt. eigenvalues --    2.00961   2.04389   2.08798   2.09629   2.14136
  Beta virt. eigenvalues --    2.16910   2.20051   2.26096   2.30534   2.33559
  Beta virt. eigenvalues --    2.35628   2.40924   2.44509   2.49070   2.57865
  Beta virt. eigenvalues --    2.63564   2.70536   2.74823   2.80046   2.80257
  Beta virt. eigenvalues --    2.84196   2.86404   2.89807   2.91583   2.93548
  Beta virt. eigenvalues --    2.95014   2.95890   2.98994   3.00572   3.05077
  Beta virt. eigenvalues --    3.13089   3.13537   3.17294   3.20503   3.26284
  Beta virt. eigenvalues --    3.28051   3.30174   3.35880   3.36255   3.39281
  Beta virt. eigenvalues --    3.43750   3.46265   3.49234   3.53678   3.55373
  Beta virt. eigenvalues --    3.59683   3.64025   3.67842   3.70163   3.73727
  Beta virt. eigenvalues --    3.77304   3.91913   4.02422   4.11010   4.16296
  Beta virt. eigenvalues --    4.20883   4.24801   4.31551   4.43574   4.51370
  Beta virt. eigenvalues --    4.54225   4.70999   5.52285   5.55912   5.61129
  Beta virt. eigenvalues --    5.68404   5.75991   5.90776   6.02866   6.19766
  Beta virt. eigenvalues --    6.41501  24.68675  24.99516  25.01616  25.15145
  Beta virt. eigenvalues --   26.28660  51.53111  51.58820  51.70296
          Condensed to atoms (all electrons):
               1          2          3          4          5          6
     1  C    6.272926   0.467930  -1.446325   1.495668  -0.098005  -0.136464
     2  H    0.467930   0.397144  -0.124153   0.047577  -0.003485  -0.006592
     3  C   -1.446325  -0.124153  10.193717  -3.391561   0.129376  -0.084233
     4  C    1.495668   0.047577  -3.391561   7.964161   0.393767  -0.042432
     5  O   -0.098005  -0.003485   0.129376   0.393767   8.025637  -0.098391
     6  O   -0.136464  -0.006592  -0.084233  -0.042432  -0.098391   8.532018
     7  C    0.062907  -0.000516  -0.438501  -0.027990  -0.060627   0.228131
     8  C    0.035493   0.001601  -0.107168   0.129788   0.028552  -0.180148
     9  H   -0.003419  -0.000188   0.004417  -0.014563  -0.013550  -0.042851
    10  H    0.000185  -0.000142  -0.009709   0.005328  -0.010233  -0.032627
    11  H   -0.001354  -0.000069   0.006393  -0.004283  -0.001676  -0.008040
    12  H   -0.001214   0.000073   0.009951   0.007801  -0.000367  -0.001309
    13  H   -0.000869  -0.000026   0.003648  -0.001209   0.001720   0.021247
    14  O    0.000220  -0.000028  -0.006714  -0.002346  -0.000452  -0.007416
    15  H   -0.002001  -0.000417   0.013144  -0.006470   0.000193   0.001701
               7          8          9         10         11         12
     1  C    0.062907   0.035493  -0.003419   0.000185  -0.001354  -0.001214
     2  H   -0.000516   0.001601  -0.000188  -0.000142  -0.000069   0.000073
     3  C   -0.438501  -0.107168   0.004417  -0.009709   0.006393   0.009951
     4  C   -0.027990   0.129788  -0.014563   0.005328  -0.004283   0.007801
     5  O   -0.060627   0.028552  -0.013550  -0.010233  -0.001676  -0.000367
     6  O    0.228131  -0.180148  -0.042851  -0.032627  -0.008040  -0.001309
     7  C    5.650098  -0.108741   0.473134   0.418913   0.002288  -0.075678
     8  C   -0.108741   5.829954  -0.072148  -0.032671   0.345586   0.387353
     9  H    0.473134  -0.072148   0.507286  -0.039426   0.004637  -0.006557
    10  H    0.418913  -0.032671  -0.039426   0.532377  -0.007248   0.007749
    11  H    0.002288   0.345586   0.004637  -0.007248   0.582167  -0.041216
    12  H   -0.075678   0.387353  -0.006557   0.007749  -0.041216   0.602273
    13  H   -0.036980   0.405814  -0.003935  -0.007136  -0.031176  -0.044393
    14  O   -0.005438   0.001990  -0.010015   0.002415  -0.008292  -0.033666
    15  H    0.012934   0.016498   0.002239  -0.000915  -0.001157  -0.028499
              13         14         15
     1  C   -0.000869   0.000220  -0.002001
     2  H   -0.000026  -0.000028  -0.000417
     3  C    0.003648  -0.006714   0.013144
     4  C   -0.001209  -0.002346  -0.006470
     5  O    0.001720  -0.000452   0.000193
     6  O    0.021247  -0.007416   0.001701
     7  C   -0.036980  -0.005438   0.012934
     8  C    0.405814   0.001990   0.016498
     9  H   -0.003935  -0.010015   0.002239
    10  H   -0.007136   0.002415  -0.000915
    11  H   -0.031176  -0.008292  -0.001157
    12  H   -0.044393  -0.033666  -0.028499
    13  H    0.540201   0.001822   0.002393
    14  O    0.001822   7.997473   0.292429
    15  H    0.002393   0.292429   0.453392
          Atomic-Atomic Spin Densities.
               1          2          3          4          5          6
     1  C    0.007954   0.000949  -0.019055   0.010907   0.000153  -0.000377
     2  H    0.000949   0.000362  -0.002500   0.001176   0.000016  -0.000045
     3  C   -0.019055  -0.002500   0.048544  -0.028325  -0.000290   0.001058
     4  C    0.010907   0.001176  -0.028325   0.014967   0.000509   0.000304
     5  O    0.000153   0.000016  -0.000290   0.000509  -0.000570   0.000116
     6  O   -0.000377  -0.000045   0.001058   0.000304   0.000116   0.000962
     7  C   -0.001438  -0.000054   0.008087  -0.001349  -0.000153  -0.001188
     8  C    0.003100   0.000180  -0.011507   0.004698  -0.000095  -0.000716
     9  H   -0.000103   0.000003   0.000125  -0.000497   0.000114   0.000636
    10  H    0.000304   0.000007  -0.001623  -0.000689  -0.000027  -0.001306
    11  H   -0.000337  -0.000011   0.001524  -0.000081   0.000019   0.000423
    12  H   -0.000396  -0.000072  -0.000190  -0.001089  -0.000103  -0.005501
    13  H   -0.000003   0.000002   0.000119   0.000232   0.000023   0.000799
    14  O    0.000130   0.000015   0.000119   0.000933   0.000146   0.003714
    15  H   -0.001527  -0.000145   0.003799  -0.002145  -0.000121   0.000005
               7          8          9         10         11         12
     1  C   -0.001438   0.003100  -0.000103   0.000304  -0.000337  -0.000396
     2  H   -0.000054   0.000180   0.000003   0.000007  -0.000011  -0.000072
     3  C    0.008087  -0.011507   0.000125  -0.001623   0.001524  -0.000190
     4  C   -0.001349   0.004698  -0.000497  -0.000689  -0.000081  -0.001089
     5  O   -0.000153  -0.000095   0.000114  -0.000027   0.000019  -0.000103
     6  O   -0.001188  -0.000716   0.000636  -0.001306   0.000423  -0.005501
     7  C   -0.006929  -0.032761   0.004315   0.003040   0.001636   0.012306
     8  C   -0.032761   0.238974  -0.004635   0.002015  -0.012740   0.011807
     9  H    0.004315  -0.004635   0.002643  -0.001494   0.000999  -0.003145
    10  H    0.003040   0.002015  -0.001494   0.004914  -0.000631  -0.000250
    11  H    0.001636  -0.012740   0.000999  -0.000631  -0.009431   0.007322
    12  H    0.012306   0.011807  -0.003145  -0.000250   0.007322  -0.057572
    13  H    0.001059  -0.009324  -0.000155  -0.000257   0.000781   0.002113
    14  O   -0.007810  -0.014925   0.001519   0.000227  -0.000863  -0.027633
    15  H    0.003566  -0.004236  -0.000329   0.000168   0.000127   0.005699
              13         14         15
     1  C   -0.000003   0.000130  -0.001527
     2  H    0.000002   0.000015  -0.000145
     3  C    0.000119   0.000119   0.003799
     4  C    0.000232   0.000933  -0.002145
     5  O    0.000023   0.000146  -0.000121
     6  O    0.000799   0.003714   0.000005
     7  C    0.001059  -0.007810   0.003566
     8  C   -0.009324  -0.014925  -0.004236
     9  H   -0.000155   0.001519  -0.000329
    10  H   -0.000257   0.000227   0.000168
    11  H    0.000781  -0.000863   0.000127
    12  H    0.002113  -0.027633   0.005699
    13  H   -0.001758   0.002871  -0.000469
    14  O    0.002871   0.982785   0.005011
    15  H   -0.000469   0.005011  -0.038453
 Mulliken charges and spin densities:
               1          2
     1  C   -0.645679   0.000261
     2  H    0.221292  -0.000117
     3  C    1.247718  -0.000114
     4  C   -0.553237  -0.000451
     5  O   -0.292458  -0.000262
     6  O   -0.142596  -0.001117
     7  C   -0.093935  -0.017675
     8  C   -0.681755   0.169834
     9  H    0.214938  -0.000006
    10  H    0.173140   0.004397
    11  H    0.163441  -0.011265
    12  H    0.217700  -0.056704
    13  H    0.148878  -0.003970
    14  O   -0.221983   0.946239
    15  H    0.244535  -0.029050
 Sum of Mulliken charges =  -0.00000   1.00000
 Mulliken charges and spin densities with hydrogens summed into heavy atoms:
               1          2
     1  C   -0.424387   0.000144
     3  C    1.247718  -0.000114
     4  C   -0.553237  -0.000451
     5  O   -0.292458  -0.000262
     6  O   -0.142596  -0.001117
     7  C    0.294143  -0.013283
     8  C   -0.151736   0.097895
    14  O    0.022552   0.917188
 Electronic spatial extent (au):  <R**2>=           1263.2394
 Charge=             -0.0000 electrons
 Dipole moment (field-independent basis, Debye):
    X=              0.6048    Y=              1.3616    Z=              1.2989  Tot=              1.9766
 Quadrupole moment (field-independent basis, Debye-Ang):
   XX=            -45.3071   YY=            -48.6156   ZZ=            -48.9619
   XY=             14.1423   XZ=              1.1054   YZ=             -0.9207
 Traceless Quadrupole moment (field-independent basis, Debye-Ang):
   XX=              2.3211   YY=             -0.9874   ZZ=             -1.3337
   XY=             14.1423   XZ=              1.1054   YZ=             -0.9207
 Octapole moment (field-independent basis, Debye-Ang**2):
  XXX=             25.7670  YYY=             12.8480  ZZZ=             -2.8616  XYY=              7.4432
  XXY=             14.6864  XXZ=             11.5251  XZZ=             -4.7064  YZZ=             -1.1509
  YYZ=              4.9390  XYZ=             -2.3572
 Hexadecapole moment (field-independent basis, Debye-Ang**3):
 XXXX=          -1036.1589 YYYY=           -405.5036 ZZZZ=           -107.3512 XXXY=            130.7417
 XXXZ=             20.9381 YYYX=             36.1509 YYYZ=             -7.3985 ZZZX=             -2.3284
 ZZZY=             -0.8045 XXYY=           -234.1979 XXZZ=           -218.8377 YYZZ=            -89.1325
 XXYZ=             18.4331 YYXZ=             11.9578 ZZXY=             -3.7183
 N-N= 3.472128960304D+02 E-N=-1.677015774232D+03  KE= 4.177142070451D+02
 1\1\GINC-AJ\SP\UCCSD(T)-FC\6-311++G(d,p)\C5H7O3(2)\AAYUSH\21-Apr-2025\
 0\\# ccsd(t)/6-311++g(d,p) sp\\Title Card Required\\0,2\C,0,2.914597,1
 .311666,0.319172\H,0,3.678011,2.038116,0.473867\C,0,2.058273,0.492202,
 0.144556\C,0,1.050088,-0.530185,-0.09337\O,0,1.279887,-1.610461,-0.555
 406\O,0,-0.164332,-0.099112,0.269871\C,0,-1.244475,-1.032607,0.049555\
 C,0,-2.496123,-0.4086,0.605901\H,0,-1.318696,-1.222195,-1.023167\H,0,-
 0.996715,-1.971239,0.548894\H,0,-2.416943,-0.213725,1.675297\H,0,-2.72
 5521,0.548188,0.1052\H,0,-3.361878,-1.041415,0.405042\O,0,-2.292381,1.
 838059,-0.600997\H,0,-1.357259,1.815232,-0.328096\\Version=ES64L-G16Re
 vA.03\State=2-A\HF=-417.9839916\MP2=-419.2516567\MP3=-419.2772376\MP4D
 =-419.3082794\MP4DQ=-419.2829407\PUHF=-417.9879565\PMP2-0=-419.2541908
 \PMP3-0=-419.2788096\MP4SDQ=-419.3014268\CCSD=-419.3000226\CCSD(T)=-41
 9.3526373\S2=0.761693\S2-1=0.753209\S2A=0.750104\RMSD=9.284e-09\PG=C01
  [X(C5H7O3)]\\@


 SUCCESS IS NEVER CERTAIN,
 FAILURE IS NEVER FINAL.
 Job cpu time:       0 days 17 hours 24 minutes  4.1 seconds.
 Elapsed time:       0 days  0 hours 43 minutes 49.2 seconds.
 File lengths (MBytes):  RWF=  44258 Int=      0 D2E=      0 Chk=      5 Scr=      1
 Normal termination of Gaussian 16 at Mon Apr 21 07:13:16 2025.
