 Entering Gaussian System, Link 0=g16
 Initial command:
 /opt/g16/l1.exe "/home/aayush/scratches/g16/Gau-3223.inp" -scrdir="/home/aayush/scratches/g16/"
 Entering Link 1 = /opt/g16/l1.exe PID=      3226.
  
 Copyright (c) 1988,1990,1992,1993,1995,1998,2003,2009,2016,
            Gaussian, Inc.  All Rights Reserved.
  
 This is part of the Gaussian(R) 16 program.  It is based on
 the Gaussian(R) 09 system (copyright 2009, Gaussian, Inc.),
 the Gaussian(R) 03 system (copyright 2003, Gaussian, Inc.),
 the Gaussian(R) 98 system (copyright 1998, Gaussian, Inc.),
 the Gaussian(R) 94 system (copyright 1995, Gaussian, Inc.),
 the Gaussian 92(TM) system (copyright 1992, Gaussian, Inc.),
 the Gaussian 90(TM) system (copyright 1990, Gaussian, Inc.),
 the Gaussian 88(TM) system (copyright 1988, Gaussian, Inc.),
 the Gaussian 86(TM) system (copyright 1986, Carnegie Mellon
 University), and the Gaussian 82(TM) system (copyright 1983,
 Carnegie Mellon University). Gaussian is a federally registered
 trademark of Gaussian, Inc.
  
 This software contains proprietary and confidential information,
 including trade secrets, belonging to Gaussian, Inc.
  
 This software is provided under written license and may be
 used, copied, transmitted, or stored only in accord with that
 written license.
  
 The following legend is applicable only to US Government
 contracts under FAR:
  
                    RESTRICTED RIGHTS LEGEND
  
 Use, reproduction and disclosure by the US Government is
 subject to restrictions as set forth in subparagraphs (a)
 and (c) of the Commercial Computer Software - Restricted
 Rights clause in FAR 52.227-19.
  
 Gaussian, Inc.
 340 Quinnipiac St., Bldg. 40, Wallingford CT 06492
  
  
 ---------------------------------------------------------------
 Warning -- This program may not be used in any manner that
 competes with the business of Gaussian, Inc. or will provide
 assistance to any competitor of Gaussian, Inc.  The licensee
 of this program is prohibited from giving any competitor of
 Gaussian, Inc. access to this program.  By using this program,
 the user acknowledges that Gaussian, Inc. is engaged in the
 business of creating and licensing software in the field of
 computational chemistry and represents and warrants to the
 licensee that it is not a competitor of Gaussian, Inc. and that
 it will not use this program in any manner prohibited above.
 ---------------------------------------------------------------
  

 Cite this work as:
 Gaussian 16, Revision A.03,
 M. J. Frisch, G. W. Trucks, H. B. Schlegel, G. E. Scuseria, 
 M. A. Robb, J. R. Cheeseman, G. Scalmani, V. Barone, 
 G. A. Petersson, H. Nakatsuji, X. Li, M. Caricato, A. V. Marenich, 
 J. Bloino, B. G. Janesko, R. Gomperts, B. Mennucci, H. P. Hratchian, 
 J. V. Ortiz, A. F. Izmaylov, J. L. Sonnenberg, D. Williams-Young, 
 F. Ding, F. Lipparini, F. Egidi, J. Goings, B. Peng, A. Petrone, 
 T. Henderson, D. Ranasinghe, V. G. Zakrzewski, J. Gao, N. Rega, 
 G. Zheng, W. Liang, M. Hada, M. Ehara, K. Toyota, R. Fukuda, 
 J. Hasegawa, M. Ishida, T. Nakajima, Y. Honda, O. Kitao, H. Nakai, 
 T. Vreven, K. Throssell, J. A. Montgomery, Jr., J. E. Peralta, 
 F. Ogliaro, M. J. Bearpark, J. J. Heyd, E. N. Brothers, K. N. Kudin, 
 V. N. Staroverov, T. A. Keith, R. Kobayashi, J. Normand, 
 K. Raghavachari, A. P. Rendell, J. C. Burant, S. S. Iyengar, 
 J. Tomasi, M. Cossi, J. M. Millam, M. Klene, C. Adamo, R. Cammi, 
 J. W. Ochterski, R. L. Martin, K. Morokuma, O. Farkas, 
 J. B. Foresman, and D. J. Fox, Gaussian, Inc., Wallingford CT, 2016.
 
 ******************************************
 Gaussian 16:  ES64L-G16RevA.03 25-Dec-2016
                21-Apr-2025 
 ******************************************
 %chk=ethyl_propiolate.chk
 %nprocshared=24
 Will use up to   24 processors via shared memory.
 %mem=12GB
 --------------------------
 # ccsd(t)/6-311++g(d,p) sp
 --------------------------
 1/38=1,172=1/1;
 2/12=2,17=6,18=5,40=1/2;
 3/5=4,6=6,7=1111,11=9,25=1,30=1/1,2,3;
 4//1;
 5/5=2,38=5/2;
 8/6=4,9=120000,10=2/1,4;
 9/5=7,14=2/13;
 6/7=2,8=2,9=2,10=2/1;
 99/5=1,9=1/99;
 -------------------
 Title Card Required
 -------------------
 Symbolic Z-matrix:
 Charge =  0 Multiplicity = 2
 C                     2.91452   1.31162   0.31916 
 H                     3.67781   2.03822   0.47381 
 C                     2.05821   0.49216   0.14456 
 C                     1.05028  -0.53037  -0.09333 
 O                     1.27981  -1.61062  -0.55547 
 O                    -0.16404  -0.09966   0.27032 
 C                    -1.24432  -1.03203   0.04952 
 C                    -2.49301  -0.39986   0.60081 
 H                    -1.3181   -1.22308  -1.02297 
 H                    -0.99983  -1.9707    0.55086 
 H                    -2.42075  -0.20036   1.66968 
 H                    -2.69427   0.57162   0.09311 
 H                    -3.37047  -1.01105   0.38602 
 O                    -2.29601   1.82739  -0.59527 
 H                    -1.35887   1.82146  -0.32982 
 
                          Input orientation:                          
 ---------------------------------------------------------------------
 Center     Atomic      Atomic             Coordinates (Angstroms)
 Number     Number       Type             X           Y           Z
 ---------------------------------------------------------------------
      1          6           0        2.914523    1.311622    0.319163
      2          1           0        3.677813    2.038219    0.473809
      3          6           0        2.058214    0.492158    0.144555
      4          6           0        1.050282   -0.530368   -0.093331
      5          8           0        1.279810   -1.610621   -0.555474
      6          8           0       -0.164041   -0.099660    0.270318
      7          6           0       -1.244318   -1.032033    0.049521
      8          6           0       -2.493011   -0.399861    0.600808
      9          1           0       -1.318100   -1.223076   -1.022973
     10          1           0       -0.999826   -1.970698    0.550858
     11          1           0       -2.420747   -0.200356    1.669677
     12          1           0       -2.694266    0.571623    0.093114
     13          1           0       -3.370465   -1.011048    0.386020
     14          8           0       -2.296006    1.827386   -0.595268
     15          1           0       -1.358868    1.821460   -0.329823
 ---------------------------------------------------------------------
                    Distance matrix (angstroms):
                    1          2          3          4          5
     1  C    0.000000
     2  H    1.065115   0.000000
     3  C    1.198029   2.263142   0.000000
     4  C    2.653012   3.717957   1.455361   0.000000
     5  O    3.460749   4.485964   2.348964   1.197166   0.000000
     6  O    3.386984   4.401338   2.303146   1.338779   2.247141
     7  C    4.781358   5.816686   3.638531   2.353139   2.659324
     8  C    5.678901   6.636221   4.660205   3.613002   4.127603
     9  H    5.112839   6.151061   3.962909   2.636913   2.667936
    10  H    5.113652   6.160979   3.947449   2.586981   2.559368
    11  H    5.707458   6.605585   4.781910   3.907064   4.542496
    12  H    5.661909   6.549750   4.753423   3.907785   4.579971
    13  H    6.700772   7.680101   5.638128   4.472565   4.782359
    14  O    5.315243   6.072387   4.614044   4.124147   4.960639
    15  H    4.352354   5.104994   3.697097   3.375060   4.335057
                    6          7          8          9         10
     6  O    0.000000
     7  C    1.443977   0.000000
     8  C    2.371381   1.504258   0.000000
     9  H    2.065555   1.091872   2.166740   0.000000
    10  H    2.068338   1.091882   2.167862   1.771209   0.000000
    11  H    2.657267   2.168081   1.089727   3.084177   2.530787
    12  H    2.623749   2.162397   1.114468   2.521989   3.089345
    13  H    3.335441   2.152713   1.090692   2.498483   2.562817
    14  O    3.001336   3.114174   2.535752   3.231803   4.173623
    15  H    2.340616   2.880876   2.662071   3.122710   3.909600
                   11         12         13         14         15
    11  H    0.000000
    12  H    1.776602   0.000000
    13  H    1.790799   1.745820   0.000000
    14  O    3.042577   1.486412   3.189686   0.000000
    15  H    3.035346   1.877300   3.547119   0.974025   0.000000
 Stoichiometry    C5H7O3(2)
 Framework group  C1[X(C5H7O3)]
 Deg. of freedom    39
 Full point group                 C1      NOp   1
 Largest Abelian subgroup         C1      NOp   1
 Largest concise Abelian subgroup C1      NOp   1
                         Standard orientation:                         
 ---------------------------------------------------------------------
 Center     Atomic      Atomic             Coordinates (Angstroms)
 Number     Number       Type             X           Y           Z
 ---------------------------------------------------------------------
      1          6           0        2.986774    1.301504    0.315397
      2          1           0        3.751855    2.025095    0.475200
      3          6           0        2.128445    0.485418    0.134977
      4          6           0        1.118015   -0.532936   -0.110096
      5          8           0        1.345125   -1.611021   -0.578452
      6          8           0       -0.095533   -0.101128    0.254835
      7          6           0       -1.178084   -1.029237    0.027313
      8          6           0       -2.425660   -0.396999    0.581047
      9          1           0       -1.251224   -1.213660   -1.046383
     10          1           0       -0.936667   -1.971543    0.523282
     11          1           0       -2.354011   -0.204089    1.651167
     12          1           0       -2.623745    0.578046    0.078964
     13          1           0       -3.304528   -1.004514    0.361672
     14          8           0       -2.221355    1.836823   -0.601466
     15          1           0       -1.284523    1.826774   -0.335065
 ---------------------------------------------------------------------
 Rotational constants (GHZ):           2.9209076           1.1596710           0.8959154
 Standard basis: 6-311++G(d,p) (5D, 7F)
 There are   233 symmetry adapted cartesian basis functions of A   symmetry.
 There are   225 symmetry adapted basis functions of A   symmetry.
   225 basis functions,   351 primitive gaussians,   233 cartesian basis functions
    31 alpha electrons       30 beta electrons
       nuclear repulsion energy       347.5280538390 Hartrees.
 NAtoms=   15 NActive=   15 NUniq=   15 SFac= 1.00D+00 NAtFMM=   60 NAOKFM=F Big=F
 Integral buffers will be    131072 words long.
 Raffenetti 2 integral format.
 Two-electron integral symmetry is turned on.
 One-electron integrals computed using PRISM.
 NBasis=   225 RedAO= T EigKep=  6.74D-06  NBF=   225
 NBsUse=   224 1.00D-06 EigRej=  7.98D-07 NBFU=   224
 ExpMin= 3.60D-02 ExpMax= 8.59D+03 ExpMxC= 1.30D+03 IAcc=3 IRadAn=         5 AccDes= 0.00D+00
 Harris functional with IExCor=  205 and IRadAn=       5 diagonalized for initial guess.
 HarFok:  IExCor=  205 AccDes= 0.00D+00 IRadAn=         5 IDoV= 1 UseB2=F ITyADJ=14
 ICtDFT=  3500011 ScaDFX=  1.000000  1.000000  1.000000  1.000000
 FoFCou: FMM=F IPFlag=           0 FMFlag=      100000 FMFlg1=           0
         NFxFlg=           0 DoJE=T BraDBF=F KetDBF=T FulRan=T
         wScrn=  0.000000 ICntrl=       500 IOpCl=  0 I1Cent=   200000004 NGrid=           0
         NMat0=    1 NMatS0=      1 NMatT0=    0 NMatD0=    1 NMtDS0=    0 NMtDT0=    0
 Petite list used in FoFCou.
 Initial guess <Sx>= 0.0000 <Sy>= 0.0000 <Sz>= 0.5000 <S**2>= 0.7500 S= 0.5000
 Requested convergence on RMS density matrix=1.00D-08 within 128 cycles.
 Requested convergence on MAX density matrix=1.00D-06.
 Requested convergence on             energy=1.00D-06.
 No special actions if energy rises.
 Initial convergence to 1.0D-05 achieved.  Increase integral accuracy.
 Restarting incremental Fock formation.
 SCF Done:  E(UHF) =  -417.980838497     A.U. after   33 cycles
            NFock= 33  Conv=0.74D-08     -V/T= 2.0006
 <Sx>= 0.0000 <Sy>= 0.0000 <Sz>= 0.5000 <S**2>= 0.7634 S= 0.5067
 <L.S>=  0.00000000000    
 Annihilation of the first spin contaminant:
 S**2 before annihilation     0.7634,   after     0.7501
 ExpMin= 3.60D-02 ExpMax= 8.59D+03 ExpMxC= 1.30D+03 IAcc=3 IRadAn=         5 AccDes= 0.00D+00
 HarFok:  IExCor=  205 AccDes= 0.00D+00 IRadAn=         5 IDoV=-2 UseB2=F ITyADJ=14
 ICtDFT= 12500011 ScaDFX=  1.000000  1.000000  1.000000  1.000000
 Range of M.O.s used for correlation:     9   224
 NBasis=   225 NAE=    31 NBE=    30 NFC=     8 NFV=     0
 NROrb=    216 NOA=    23 NOB=    22 NVA=   193 NVB=   194

 **** Warning!!: The largest alpha MO coefficient is  0.15394441D+03


 **** Warning!!: The largest beta MO coefficient is  0.17827902D+03

 Semi-Direct transformation.
 ModeAB=           4 MOrb=            23 LenV=    1609186629
 LASXX=    107793295 LTotXX=   107793295 LenRXX=   218294035
 LTotAB=   110500740 MaxLAS=   126023256 LenRXY=           0
 NonZer=   326087330 LenScr=   491049984 LnRSAI=   126023256
 LnScr1=   189790720 LExtra=           0 Total=   1025157995
 MaxDsk=          -1 SrtSym=           T ITran=            4
 JobTyp=1 Pass  1:  I=   1 to  23.
 (rs|ai) integrals will be sorted in core.
 ModeAB=           4 MOrb=            22 LenV=    1609186629
 LASXX=    103454307 LTotXX=   103454307 LenRXX=   188091948
 LTotAB=    84637641 MaxLAS=   120543984 LenRXY=           0
 NonZer=   291546255 LenScr=   439034880 LnRSAI=   120543984
 LnScr1=   181568512 LExtra=           0 Total=    929239324
 MaxDsk=          -1 SrtSym=           T ITran=            4
 JobTyp=2 Pass  1:  I=   1 to  22.
 (rs|ai) integrals will be sorted in core.
 SymMOI:  orbitals are not symmetric.
 Spin components of T(2) and E(2):
     alpha-alpha T2 =       0.5266601082D-01 E2=     -0.1705377426D+00
     alpha-beta  T2 =       0.2898201224D+00 E2=     -0.9417164190D+00
     beta-beta   T2 =       0.5063956566D-01 E2=     -0.1572104095D+00
 ANorm=    0.1180307459D+01
 E2 =    -0.1269464571D+01 EUMP2 =    -0.41925030306815D+03
 (S**2,0)=  0.76345D+00           (S**2,1)=  0.75382D+00
 E(PUHF)=      -0.41798516311D+03        E(PMP2)=      -0.41925308810D+03
 Keep R2 and R3 ints in memory in canonical form, NReq=652883968.
 CIDS: In Core Option IDoMem=           1.
 Iterations=  50 Convergence= 0.100D-06
 Produce multiple copies of IABC intergrals
 Iteration Nr.   1
 **********************
 DD1Dir will call FoFMem   1 times, MxPair=      1496
 NAB=   506 NAA=   253 NBB=   231.
 E(PMP3)=      -0.41927725262D+03
 MP4(R+Q)=  0.25400209D-01
 E3=       -0.25232808D-01        EUMP3=      -0.41927553588D+03
 E4(DQ)=   -0.56938833D-02        UMP4(DQ)=   -0.41928122976D+03
 E4(SDQ)=  -0.24393048D-01        UMP4(SDQ)=  -0.41929992892D+03
 DE(Corr)=  -1.2685784     E(Corr)=     -419.24941690    
 NORM(A)=   0.11856218D+01
 Iteration Nr.   2
 **********************
 DD1Dir will call FoFMem   1 times, MxPair=      1496
 NAB=   506 NAA=   253 NBB=   231.
 DE(Corr)=  -1.3106971     E(CORR)=     -419.29153561     Delta=-4.21D-02
 NORM(A)=   0.12030981D+01
 Iteration Nr.   3
 **********************
 DD1Dir will call FoFMem   1 times, MxPair=      1496
 NAB=   506 NAA=   253 NBB=   231.
 DE(Corr)=  -1.3120303     E(CORR)=     -419.29286884     Delta=-1.33D-03
 NORM(A)=   0.12090363D+01
 Iteration Nr.   4
 **********************
 DD1Dir will call FoFMem   1 times, MxPair=      1496
 NAB=   506 NAA=   253 NBB=   231.
 DE(Corr)=  -1.3168010     E(CORR)=     -419.29763953     Delta=-4.77D-03
 NORM(A)=   0.12114389D+01
 Iteration Nr.   5
 **********************
 DD1Dir will call FoFMem   1 times, MxPair=      1496
 NAB=   506 NAA=   253 NBB=   231.
 DE(Corr)=  -1.3175943     E(CORR)=     -419.29843277     Delta=-7.93D-04
 NORM(A)=   0.12126972D+01
 Iteration Nr.   6
 **********************
 DD1Dir will call FoFMem   1 times, MxPair=      1496
 NAB=   506 NAA=   253 NBB=   231.
 DE(Corr)=  -1.3178068     E(CORR)=     -419.29864528     Delta=-2.13D-04
 NORM(A)=   0.12129752D+01
 Iteration Nr.   7
 **********************
 DD1Dir will call FoFMem   1 times, MxPair=      1496
 NAB=   506 NAA=   253 NBB=   231.
 DE(Corr)=  -1.3178520     E(CORR)=     -419.29869055     Delta=-4.53D-05
 NORM(A)=   0.12130354D+01
 Iteration Nr.   8
 **********************
 DD1Dir will call FoFMem   1 times, MxPair=      1496
 NAB=   506 NAA=   253 NBB=   231.
 DE(Corr)=  -1.3178392     E(CORR)=     -419.29867769     Delta= 1.29D-05
 NORM(A)=   0.12130733D+01
 Iteration Nr.   9
 **********************
 DD1Dir will call FoFMem   1 times, MxPair=      1496
 NAB=   506 NAA=   253 NBB=   231.
 DE(Corr)=  -1.3178496     E(CORR)=     -419.29868808     Delta=-1.04D-05
 NORM(A)=   0.12130808D+01
 Iteration Nr.  10
 **********************
 DD1Dir will call FoFMem   1 times, MxPair=      1496
 NAB=   506 NAA=   253 NBB=   231.
 DE(Corr)=  -1.3178510     E(CORR)=     -419.29868948     Delta=-1.40D-06
 NORM(A)=   0.12130906D+01
 Iteration Nr.  11
 **********************
 DD1Dir will call FoFMem   1 times, MxPair=      1496
 NAB=   506 NAA=   253 NBB=   231.
 DE(Corr)=  -1.3178589     E(CORR)=     -419.29869737     Delta=-7.89D-06
 NORM(A)=   0.12130989D+01
 Iteration Nr.  12
 **********************
 DD1Dir will call FoFMem   1 times, MxPair=      1496
 NAB=   506 NAA=   253 NBB=   231.
 DE(Corr)=  -1.3178601     E(CORR)=     -419.29869858     Delta=-1.21D-06
 NORM(A)=   0.12131055D+01
 Iteration Nr.  13
 **********************
 DD1Dir will call FoFMem   1 times, MxPair=      1496
 NAB=   506 NAA=   253 NBB=   231.
 DE(Corr)=  -1.3178626     E(CORR)=     -419.29870108     Delta=-2.50D-06
 NORM(A)=   0.12131103D+01
 Iteration Nr.  14
 **********************
 DD1Dir will call FoFMem   1 times, MxPair=      1496
 NAB=   506 NAA=   253 NBB=   231.
 DE(Corr)=  -1.3178634     E(CORR)=     -419.29870189     Delta=-8.07D-07
 NORM(A)=   0.12131139D+01
 Iteration Nr.  15
 **********************
 DD1Dir will call FoFMem   1 times, MxPair=      1496
 NAB=   506 NAA=   253 NBB=   231.
 DE(Corr)=  -1.3178634     E(CORR)=     -419.29870193     Delta=-3.66D-08
 NORM(A)=   0.12131172D+01
 Iteration Nr.  16
 **********************
 DD1Dir will call FoFMem   1 times, MxPair=      1496
 NAB=   506 NAA=   253 NBB=   231.
 DE(Corr)=  -1.3178645     E(CORR)=     -419.29870298     Delta=-1.06D-06
 NORM(A)=   0.12131193D+01
 Iteration Nr.  17
 **********************
 DD1Dir will call FoFMem   1 times, MxPair=      1496
 NAB=   506 NAA=   253 NBB=   231.
 DE(Corr)=  -1.3178640     E(CORR)=     -419.29870250     Delta= 4.79D-07
 NORM(A)=   0.12131199D+01
 Iteration Nr.  18
 **********************
 DD1Dir will call FoFMem   1 times, MxPair=      1496
 NAB=   506 NAA=   253 NBB=   231.
 DE(Corr)=  -1.3178647     E(CORR)=     -419.29870321     Delta=-7.02D-07
 NORM(A)=   0.12131191D+01
 Iteration Nr.  19
 **********************
 DD1Dir will call FoFMem   1 times, MxPair=      1496
 NAB=   506 NAA=   253 NBB=   231.
 DE(Corr)=  -1.3178643     E(CORR)=     -419.29870281     Delta= 3.94D-07
 NORM(A)=   0.12131182D+01
 Iteration Nr.  20
 **********************
 DD1Dir will call FoFMem   1 times, MxPair=      1496
 NAB=   506 NAA=   253 NBB=   231.
 DE(Corr)=  -1.3178642     E(CORR)=     -419.29870265     Delta= 1.60D-07
 NORM(A)=   0.12131175D+01
 Iteration Nr.  21
 **********************
 DD1Dir will call FoFMem   1 times, MxPair=      1496
 NAB=   506 NAA=   253 NBB=   231.
 DE(Corr)=  -1.3178640     E(CORR)=     -419.29870248     Delta= 1.74D-07
 NORM(A)=   0.12131169D+01
 Iteration Nr.  22
 **********************
 DD1Dir will call FoFMem   1 times, MxPair=      1496
 NAB=   506 NAA=   253 NBB=   231.
 DE(Corr)=  -1.3178638     E(CORR)=     -419.29870228     Delta= 2.02D-07
 NORM(A)=   0.12131168D+01
 Iteration Nr.  23
 **********************
 DD1Dir will call FoFMem   1 times, MxPair=      1496
 NAB=   506 NAA=   253 NBB=   231.
 DE(Corr)=  -1.3178638     E(CORR)=     -419.29870227     Delta= 4.44D-09
 NORM(A)=   0.12131168D+01
 Wavefunction amplitudes converged. E(Corr)=     -419.29870227    
 Largest amplitude= 3.45D-02
 Time for triples=    36844.15 seconds.
 T4(CCSD)= -0.56364812D-01
 T5(CCSD)=  0.34995298D-02
 CCSD(T)= -0.41935156755D+03

 S**2, projected HF & approx projected MPn energies after annihilation of
 unwanted spin states (see manual for definitions):

 spins       (S**2,0) (S**2,1)    PUHF        PMP2        PMP3        PMP4
 annihilated
 s+1         0.74992  0.75003 -417.985163 -419.253088 -419.277253
 s+1,s+2     0.75000  0.75000 -417.985144 -419.253070 -419.277237
 s+1 to s+3  0.75000  0.75000 -417.985144 -419.253070 -419.277237
 s+1 to s+4  0.75000  0.75000 -417.985144 -419.253069 -419.277235
 s+1 to s+5  0.75000  0.75000 -417.985144
 s+1 to s+6  0.75000  0.75000 -417.985144

 Discarding MO integrals.

 **********************************************************************

            Population analysis using the SCF density.

 **********************************************************************

 Orbital symmetries:
 Alpha Orbitals:
       Occupied  (A) (A) (A) (A) (A) (A) (A) (A) (A) (A) (A) (A)
                 (A) (A) (A) (A) (A) (A) (A) (A) (A) (A) (A) (A)
                 (A) (A) (A) (A) (A) (A) (A)
       Virtual   (A) (A) (A) (A) (A) (A) (A) (A) (A) (A) (A) (A)
                 (A) (A) (A) (A) (A) (A) (A) (A) (A) (A) (A) (A)
                 (A) (A) (A) (A) (A) (A) (A) (A) (A) (A) (A) (A)
                 (A) (A) (A) (A) (A) (A) (A) (A) (A) (A) (A) (A)
                 (A) (A) (A) (A) (A) (A) (A) (A) (A) (A) (A) (A)
                 (A) (A) (A) (A) (A) (A) (A) (A) (A) (A) (A) (A)
                 (A) (A) (A) (A) (A) (A) (A) (A) (A) (A) (A) (A)
                 (A) (A) (A) (A) (A) (A) (A) (A) (A) (A) (A) (A)
                 (A) (A) (A) (A) (A) (A) (A) (A) (A) (A) (A) (A)
                 (A) (A) (A) (A) (A) (A) (A) (A) (A) (A) (A) (A)
                 (A) (A) (A) (A) (A) (A) (A) (A) (A) (A) (A) (A)
                 (A) (A) (A) (A) (A) (A) (A) (A) (A) (A) (A) (A)
                 (A) (A) (A) (A) (A) (A) (A) (A) (A) (A) (A) (A)
                 (A) (A) (A) (A) (A) (A) (A) (A) (A) (A) (A) (A)
                 (A) (A) (A) (A) (A) (A) (A) (A) (A) (A) (A) (A)
                 (A) (A) (A) (A) (A) (A) (A) (A) (A) (A) (A) (A)
                 (A)
 Beta  Orbitals:
       Occupied  (A) (A) (A) (A) (A) (A) (A) (A) (A) (A) (A) (A)
                 (A) (A) (A) (A) (A) (A) (A) (A) (A) (A) (A) (A)
                 (A) (A) (A) (A) (A) (A)
       Virtual   (A) (A) (A) (A) (A) (A) (A) (A) (A) (A) (A) (A)
                 (A) (A) (A) (A) (A) (A) (A) (A) (A) (A) (A) (A)
                 (A) (A) (A) (A) (A) (A) (A) (A) (A) (A) (A) (A)
                 (A) (A) (A) (A) (A) (A) (A) (A) (A) (A) (A) (A)
                 (A) (A) (A) (A) (A) (A) (A) (A) (A) (A) (A) (A)
                 (A) (A) (A) (A) (A) (A) (A) (A) (A) (A) (A) (A)
                 (A) (A) (A) (A) (A) (A) (A) (A) (A) (A) (A) (A)
                 (A) (A) (A) (A) (A) (A) (A) (A) (A) (A) (A) (A)
                 (A) (A) (A) (A) (A) (A) (A) (A) (A) (A) (A) (A)
                 (A) (A) (A) (A) (A) (A) (A) (A) (A) (A) (A) (A)
                 (A) (A) (A) (A) (A) (A) (A) (A) (A) (A) (A) (A)
                 (A) (A) (A) (A) (A) (A) (A) (A) (A) (A) (A) (A)
                 (A) (A) (A) (A) (A) (A) (A) (A) (A) (A) (A) (A)
                 (A) (A) (A) (A) (A) (A) (A) (A) (A) (A) (A) (A)
                 (A) (A) (A) (A) (A) (A) (A) (A) (A) (A) (A) (A)
                 (A) (A) (A) (A) (A) (A) (A) (A) (A) (A) (A) (A)
                 (A) (A)
 The electronic state is 2-A.
 Alpha  occ. eigenvalues --  -20.63213 -20.62728 -20.57306 -11.42630 -11.30326
 Alpha  occ. eigenvalues --  -11.27652 -11.26883 -11.22989  -1.49416  -1.39681
 Alpha  occ. eigenvalues --   -1.39110  -1.08912  -1.05222  -0.93022  -0.84563
 Alpha  occ. eigenvalues --   -0.78422  -0.73647  -0.72091  -0.70496  -0.69397
 Alpha  occ. eigenvalues --   -0.67165  -0.60779  -0.59048  -0.56065  -0.55900
 Alpha  occ. eigenvalues --   -0.53262  -0.49952  -0.49292  -0.46883  -0.43554
 Alpha  occ. eigenvalues --   -0.43512
 Alpha virt. eigenvalues --    0.03464   0.04549   0.06325   0.06588   0.07076
 Alpha virt. eigenvalues --    0.07634   0.09180   0.10014   0.10910   0.11555
 Alpha virt. eigenvalues --    0.12385   0.13812   0.14769   0.15576   0.16350
 Alpha virt. eigenvalues --    0.17286   0.17410   0.18534   0.19406   0.19717
 Alpha virt. eigenvalues --    0.20615   0.20698   0.21582   0.22515   0.23103
 Alpha virt. eigenvalues --    0.23790   0.25066   0.27956   0.28621   0.29274
 Alpha virt. eigenvalues --    0.29978   0.30982   0.31705   0.34391   0.34595
 Alpha virt. eigenvalues --    0.35241   0.35369   0.36621   0.37970   0.38941
 Alpha virt. eigenvalues --    0.40603   0.41124   0.41862   0.43371   0.44415
 Alpha virt. eigenvalues --    0.45051   0.46716   0.47827   0.48912   0.50130
 Alpha virt. eigenvalues --    0.54516   0.56754   0.57874   0.58860   0.62870
 Alpha virt. eigenvalues --    0.66077   0.68456   0.70013   0.71528   0.73435
 Alpha virt. eigenvalues --    0.75412   0.79885   0.81742   0.83500   0.84507
 Alpha virt. eigenvalues --    0.84968   0.85671   0.87004   0.87968   0.89778
 Alpha virt. eigenvalues --    0.90707   0.91405   0.96207   0.97057   1.00605
 Alpha virt. eigenvalues --    1.06458   1.08538   1.14313   1.20109   1.25139
 Alpha virt. eigenvalues --    1.25742   1.27005   1.28627   1.29058   1.31031
 Alpha virt. eigenvalues --    1.32517   1.35933   1.36619   1.38269   1.40552
 Alpha virt. eigenvalues --    1.41346   1.41685   1.47864   1.48971   1.50481
 Alpha virt. eigenvalues --    1.51938   1.55372   1.58498   1.62856   1.63986
 Alpha virt. eigenvalues --    1.66901   1.70127   1.76718   1.77114   1.80954
 Alpha virt. eigenvalues --    1.83315   1.83749   1.83879   1.86383   1.88988
 Alpha virt. eigenvalues --    1.90932   1.91810   1.93967   1.97748   2.00822
 Alpha virt. eigenvalues --    2.03300   2.08683   2.09516   2.13303   2.16849
 Alpha virt. eigenvalues --    2.19638   2.26003   2.29143   2.32940   2.35206
 Alpha virt. eigenvalues --    2.40735   2.43455   2.48585   2.57368   2.62192
 Alpha virt. eigenvalues --    2.69799   2.72108   2.79808   2.80339   2.83927
 Alpha virt. eigenvalues --    2.86181   2.89935   2.91537   2.93519   2.94881
 Alpha virt. eigenvalues --    2.95550   2.99354   2.99768   3.05081   3.12875
 Alpha virt. eigenvalues --    3.13559   3.15962   3.17393   3.21467   3.28035
 Alpha virt. eigenvalues --    3.30180   3.35793   3.36201   3.39230   3.42795
 Alpha virt. eigenvalues --    3.45232   3.46390   3.48194   3.54894   3.59657
 Alpha virt. eigenvalues --    3.63336   3.67220   3.69947   3.72920   3.77322
 Alpha virt. eigenvalues --    3.91908   4.02442   4.10955   4.14638   4.20752
 Alpha virt. eigenvalues --    4.24197   4.29628   4.43647   4.51398   4.54058
 Alpha virt. eigenvalues --    4.70716   5.49898   5.54819   5.59983   5.61265
 Alpha virt. eigenvalues --    5.75998   5.90764   6.00796   6.19840   6.41559
 Alpha virt. eigenvalues --   24.68684  24.99558  25.01687  25.14289  26.28674
 Alpha virt. eigenvalues --   51.51032  51.58822  51.70311
  Beta  occ. eigenvalues --  -20.62725 -20.59199 -20.57308 -11.42630 -11.30371
  Beta  occ. eigenvalues --  -11.27650 -11.26884 -11.22416  -1.49410  -1.39321
  Beta  occ. eigenvalues --   -1.24578  -1.08770  -1.04593  -0.92311  -0.83822
  Beta  occ. eigenvalues --   -0.78371  -0.73620  -0.70480  -0.70114  -0.65108
  Beta  occ. eigenvalues --   -0.60747  -0.59128  -0.56019  -0.53240  -0.51753
  Beta  occ. eigenvalues --   -0.50918  -0.49336  -0.47968  -0.43564  -0.43513
  Beta virt. eigenvalues --    0.03442   0.04540   0.05462   0.06354   0.07075
  Beta virt. eigenvalues --    0.07592   0.08466   0.09542   0.10581   0.11294
  Beta virt. eigenvalues --    0.11756   0.12590   0.13926   0.14837   0.15648
  Beta virt. eigenvalues --    0.16433   0.17298   0.17468   0.18604   0.19541
  Beta virt. eigenvalues --    0.19839   0.20721   0.20881   0.21650   0.22541
  Beta virt. eigenvalues --    0.23133   0.23841   0.25248   0.28382   0.28758
  Beta virt. eigenvalues --    0.29559   0.30247   0.31347   0.32124   0.34453
  Beta virt. eigenvalues --    0.34895   0.35594   0.36030   0.37292   0.38310
  Beta virt. eigenvalues --    0.39158   0.40637   0.41200   0.41975   0.43559
  Beta virt. eigenvalues --    0.45015   0.45092   0.46946   0.47969   0.50278
  Beta virt. eigenvalues --    0.52133   0.54637   0.56812   0.57971   0.58877
  Beta virt. eigenvalues --    0.62903   0.66258   0.68608   0.70193   0.71801
  Beta virt. eigenvalues --    0.73663   0.75617   0.80072   0.81809   0.83584
  Beta virt. eigenvalues --    0.84584   0.85697   0.86912   0.87450   0.88331
  Beta virt. eigenvalues --    0.89858   0.91048   0.91619   0.96226   0.97337
  Beta virt. eigenvalues --    1.00630   1.06657   1.08613   1.15165   1.20297
  Beta virt. eigenvalues --    1.25699   1.26907   1.27533   1.29155   1.30228
  Beta virt. eigenvalues --    1.32292   1.35279   1.36437   1.37106   1.39660
  Beta virt. eigenvalues --    1.40691   1.41686   1.44409   1.48206   1.49027
  Beta virt. eigenvalues --    1.50811   1.52466   1.55501   1.58741   1.63275
  Beta virt. eigenvalues --    1.64415   1.68299   1.70979   1.77422   1.78294
  Beta virt. eigenvalues --    1.81028   1.83650   1.83929   1.84257   1.86454
  Beta virt. eigenvalues --    1.89198   1.91072   1.92050   1.94139   1.98870
  Beta virt. eigenvalues --    2.01026   2.04100   2.08762   2.09576   2.13658
  Beta virt. eigenvalues --    2.16897   2.19799   2.26082   2.30201   2.33519
  Beta virt. eigenvalues --    2.35676   2.40880   2.44158   2.48944   2.57686
  Beta virt. eigenvalues --    2.62925   2.70385   2.73568   2.79987   2.80326
  Beta virt. eigenvalues --    2.84014   2.86372   2.89960   2.91592   2.93563
  Beta virt. eigenvalues --    2.95038   2.95785   2.99581   3.00610   3.05114
  Beta virt. eigenvalues --    3.13121   3.13565   3.17272   3.20876   3.27234
  Beta virt. eigenvalues --    3.28081   3.30333   3.35901   3.36259   3.39296
  Beta virt. eigenvalues --    3.43842   3.46362   3.49281   3.54030   3.55498
  Beta virt. eigenvalues --    3.59733   3.64325   3.68183   3.70432   3.77218
  Beta virt. eigenvalues --    3.77632   3.91922   4.02453   4.11046   4.15964
  Beta virt. eigenvalues --    4.20859   4.24619   4.32991   4.43670   4.51417
  Beta virt. eigenvalues --    4.54180   4.71143   5.52406   5.55918   5.61125
  Beta virt. eigenvalues --    5.71031   5.76024   5.90787   6.03319   6.19847
  Beta virt. eigenvalues --    6.41561  24.68684  24.99555  25.01679  25.14690
  Beta virt. eigenvalues --   26.28674  51.53328  51.58840  51.70310
          Condensed to atoms (all electrons):
               1          2          3          4          5          6
     1  C    6.269775   0.467596  -1.437186   1.490641  -0.097982  -0.136646
     2  H    0.467596   0.397036  -0.123361   0.047220  -0.003479  -0.006585
     3  C   -1.437186  -0.123361  10.165506  -3.375950   0.129915  -0.083890
     4  C    1.490641   0.047220  -3.375950   7.954896   0.393896  -0.042718
     5  O   -0.097982  -0.003479   0.129915   0.393896   8.025859  -0.098358
     6  O   -0.136646  -0.006585  -0.083890  -0.042718  -0.098358   8.531918
     7  C    0.062346  -0.000537  -0.436728  -0.029541  -0.061267   0.228547
     8  C    0.035420   0.001581  -0.105913   0.130918   0.028416  -0.180270
     9  H   -0.003360  -0.000180   0.004590  -0.014270  -0.013402  -0.043239
    10  H    0.000050  -0.000153  -0.009727   0.004826  -0.010134  -0.032263
    11  H   -0.001246  -0.000062   0.005911  -0.004499  -0.001710  -0.008083
    12  H   -0.001192   0.000083   0.009917   0.008176  -0.000393  -0.001385
    13  H   -0.000913  -0.000027   0.003862  -0.001318   0.001725   0.021293
    14  O    0.000285  -0.000022  -0.006926  -0.002341  -0.000417  -0.007358
    15  H   -0.002025  -0.000415   0.013373  -0.006575   0.000173   0.002051
               7          8          9         10         11         12
     1  C    0.062346   0.035420  -0.003360   0.000050  -0.001246  -0.001192
     2  H   -0.000537   0.001581  -0.000180  -0.000153  -0.000062   0.000083
     3  C   -0.436728  -0.105913   0.004590  -0.009727   0.005911   0.009917
     4  C   -0.029541   0.130918  -0.014270   0.004826  -0.004499   0.008176
     5  O   -0.061267   0.028416  -0.013402  -0.010134  -0.001710  -0.000393
     6  O    0.228547  -0.180270  -0.043239  -0.032263  -0.008083  -0.001385
     7  C    5.650836  -0.111329   0.473015   0.418243   0.003295  -0.080152
     8  C   -0.111329   5.844094  -0.072363  -0.031666   0.344507   0.383018
     9  H    0.473015  -0.072363   0.507629  -0.039512   0.004700  -0.006648
    10  H    0.418243  -0.031666  -0.039512   0.532914  -0.007228   0.007724
    11  H    0.003295   0.344507   0.004700  -0.007228   0.582031  -0.041400
    12  H   -0.080152   0.383018  -0.006648   0.007724  -0.041400   0.613079
    13  H   -0.034975   0.403607  -0.003912  -0.006999  -0.030533  -0.044773
    14  O   -0.006076   0.000766  -0.009657   0.002271  -0.008102  -0.039633
    15  H    0.013235   0.017046   0.002079  -0.000767  -0.001408  -0.030443
              13         14         15
     1  C   -0.000913   0.000285  -0.002025
     2  H   -0.000027  -0.000022  -0.000415
     3  C    0.003862  -0.006926   0.013373
     4  C   -0.001318  -0.002341  -0.006575
     5  O    0.001725  -0.000417   0.000173
     6  O    0.021293  -0.007358   0.002051
     7  C   -0.034975  -0.006076   0.013235
     8  C    0.403607   0.000766   0.017046
     9  H   -0.003912  -0.009657   0.002079
    10  H   -0.006999   0.002271  -0.000767
    11  H   -0.030533  -0.008102  -0.001408
    12  H   -0.044773  -0.039633  -0.030443
    13  H    0.538104   0.001817   0.002567
    14  O    0.001817   8.009005   0.292836
    15  H    0.002567   0.292836   0.453490
          Atomic-Atomic Spin Densities.
               1          2          3          4          5          6
     1  C    0.007367   0.000802  -0.017762   0.010373   0.000140  -0.000289
     2  H    0.000802   0.000290  -0.002162   0.001044   0.000016  -0.000038
     3  C   -0.017762  -0.002162   0.045179  -0.026754  -0.000198   0.000871
     4  C    0.010373   0.001044  -0.026754   0.013830   0.000538   0.000556
     5  O    0.000140   0.000016  -0.000198   0.000538  -0.000621   0.000146
     6  O   -0.000289  -0.000038   0.000871   0.000556   0.000146   0.001291
     7  C   -0.001346  -0.000042   0.008182  -0.001204  -0.000229  -0.000588
     8  C    0.002798   0.000149  -0.010736   0.004508  -0.000154  -0.001556
     9  H   -0.000082   0.000005   0.000098  -0.000456   0.000150   0.000728
    10  H    0.000264   0.000004  -0.001579  -0.000977  -0.000052  -0.001554
    11  H   -0.000287  -0.000005   0.001422   0.000045   0.000025   0.000589
    12  H   -0.000361  -0.000078  -0.000737  -0.001349  -0.000130  -0.006643
    13  H   -0.000008   0.000002   0.000142   0.000277   0.000030   0.000893
    14  O    0.000164   0.000022   0.000196   0.001078   0.000164   0.004307
    15  H   -0.001393  -0.000128   0.003446  -0.001969  -0.000125  -0.000091
               7          8          9         10         11         12
     1  C   -0.001346   0.002798  -0.000082   0.000264  -0.000287  -0.000361
     2  H   -0.000042   0.000149   0.000005   0.000004  -0.000005  -0.000078
     3  C    0.008182  -0.010736   0.000098  -0.001579   0.001422  -0.000737
     4  C   -0.001204   0.004508  -0.000456  -0.000977   0.000045  -0.001349
     5  O   -0.000229  -0.000154   0.000150  -0.000052   0.000025  -0.000130
     6  O   -0.000588  -0.001556   0.000728  -0.001554   0.000589  -0.006643
     7  C   -0.011609  -0.034611   0.004267   0.004167   0.000970   0.014189
     8  C   -0.034611   0.277413  -0.004596   0.001377  -0.013515   0.016621
     9  H    0.004267  -0.004596   0.002950  -0.001594   0.000951  -0.003445
    10  H    0.004167   0.001377  -0.001594   0.006337  -0.000581  -0.000375
    11  H    0.000970  -0.013515   0.000951  -0.000581  -0.011590   0.008474
    12  H    0.014189   0.016621  -0.003445  -0.000375   0.008474  -0.074122
    13  H    0.001752  -0.011483  -0.000080  -0.000398   0.001128   0.002597
    14  O   -0.007318  -0.020920   0.001822   0.000149  -0.000397  -0.029755
    15  H    0.003228  -0.003401  -0.000409   0.000216  -0.000062   0.006584
              13         14         15
     1  C   -0.000008   0.000164  -0.001393
     2  H    0.000002   0.000022  -0.000128
     3  C    0.000142   0.000196   0.003446
     4  C    0.000277   0.001078  -0.001969
     5  O    0.000030   0.000164  -0.000125
     6  O    0.000893   0.004307  -0.000091
     7  C    0.001752  -0.007318   0.003228
     8  C   -0.011483  -0.020920  -0.003401
     9  H   -0.000080   0.001822  -0.000409
    10  H   -0.000398   0.000149   0.000216
    11  H    0.001128  -0.000397  -0.000062
    12  H    0.002597  -0.029755   0.006584
    13  H   -0.003349   0.003093  -0.000499
    14  O    0.003093   0.973369   0.004268
    15  H   -0.000499   0.004268  -0.037794
 Mulliken charges and spin densities:
               1          2
     1  C   -0.645563   0.000381
     2  H    0.221306  -0.000120
     3  C    1.246609  -0.000391
     4  C   -0.553362  -0.000459
     5  O   -0.292842  -0.000300
     6  O   -0.143014  -0.001377
     7  C   -0.088911  -0.020194
     8  C   -0.687833   0.201895
     9  H    0.214530   0.000310
    10  H    0.172420   0.005404
    11  H    0.163825  -0.012831
    12  H    0.224021  -0.068530
    13  H    0.150478  -0.005902
    14  O   -0.226448   0.930242
    15  H    0.244784  -0.028128
 Sum of Mulliken charges =  -0.00000   1.00000
 Mulliken charges and spin densities with hydrogens summed into heavy atoms:
               1          2
     1  C   -0.424258   0.000261
     3  C    1.246609  -0.000391
     4  C   -0.553362  -0.000459
     5  O   -0.292842  -0.000300
     6  O   -0.143014  -0.001377
     7  C    0.298038  -0.014480
     8  C   -0.149508   0.114632
    14  O    0.018336   0.902114
 Electronic spatial extent (au):  <R**2>=           1261.2644
 Charge=             -0.0000 electrons
 Dipole moment (field-independent basis, Debye):
    X=              0.6048    Y=              1.3742    Z=              1.2928  Tot=              1.9813
 Quadrupole moment (field-independent basis, Debye-Ang):
   XX=            -45.3411   YY=            -48.5770   ZZ=            -48.9467
   XY=             14.1569   XZ=              1.0630   YZ=             -0.9191
 Traceless Quadrupole moment (field-independent basis, Debye-Ang):
   XX=              2.2805   YY=             -0.9554   ZZ=             -1.3251
   XY=             14.1569   XZ=              1.0630   YZ=             -0.9191
 Octapole moment (field-independent basis, Debye-Ang**2):
  XXX=             25.6775  YYY=             13.0242  ZZZ=             -2.8183  XYY=              7.4434
  XXY=             14.6429  XXZ=             11.4647  XZZ=             -4.7316  YZZ=             -1.1919
  YYZ=              4.8766  XYZ=             -2.4220
 Hexadecapole moment (field-independent basis, Debye-Ang**3):
 XXXX=          -1036.0880 YYYY=           -403.7274 ZZZZ=           -106.7681 XXXY=            131.2365
 XXXZ=             20.4278 YYYX=             36.1416 YYYZ=             -7.3666 ZZZX=             -2.3471
 ZZZY=             -0.7496 XXYY=           -233.6740 XXZZ=           -218.7400 YYZZ=            -88.7597
 XXYZ=             18.3473 YYXZ=             11.9024 ZZXY=             -3.8465
 N-N= 3.475280538390D+02 E-N=-1.677642834236D+03  KE= 4.177149063703D+02
 1\1\GINC-AJ\SP\UCCSD(T)-FC\6-311++G(d,p)\C5H7O3(2)\AAYUSH\21-Apr-2025\
 0\\# ccsd(t)/6-311++g(d,p) sp\\Title Card Required\\0,2\C,0,2.914523,1
 .311622,0.319163\H,0,3.677813,2.038219,0.473809\C,0,2.058214,0.492158,
 0.144555\C,0,1.050282,-0.530368,-0.093331\O,0,1.27981,-1.610621,-0.555
 474\O,0,-0.164041,-0.09966,0.270318\C,0,-1.244318,-1.032033,0.049521\C
 ,0,-2.493011,-0.399861,0.600808\H,0,-1.3181,-1.223076,-1.022973\H,0,-0
 .999826,-1.970698,0.550858\H,0,-2.420747,-0.200356,1.669677\H,0,-2.694
 266,0.571623,0.093114\H,0,-3.370465,-1.011048,0.38602\O,0,-2.296006,1.
 827386,-0.595268\H,0,-1.358868,1.82146,-0.329823\\Version=ES64L-G16Rev
 A.03\State=2-A\HF=-417.9808385\MP2=-419.2503031\MP3=-419.2755359\MP4D=
 -419.30663\MP4DQ=-419.2812298\PUHF=-417.9851631\PMP2-0=-419.2530881\PM
 P3-0=-419.2772526\MP4SDQ=-419.2999289\CCSD=-419.2987023\CCSD(T)=-419.3
 515676\S2=0.76345\S2-1=0.753819\S2A=0.750129\RMSD=7.398e-09\PG=C01 [X(
 C5H7O3)]\\@


 I WOULD TAKE COUNSEL OF MYSELF.
 I WOULD STOP AND LOOK WITHIN
 AND LOOKING WITHIN, LOOK BACK, ALSO
 THAT I MAY LOOK AHEAD WITH CLEARER UNDERSTANDING
 OF THE WAY I HAVE BEEN MOVING, AND IN WHAT DIRECTION.
 I NEED TO KNOW IF I AM GOING FORWARD OR RETREATING,
 WHETHER I HAVE BEEN WASTING, OR ENJOYING
 THE PRECIOUS MOMENTS OF LIFE.  THERE HAVE BEEN FRICTIONS,
 ANNOYANCES AND SOMETIMES WRATH,
 BUT WERE THEY BECAUSE I WAS RIGHT AND OTHERS WRONG.....
 HAVE I HAD MY THOUGHTS TOO SHARPLY FOCUSED
 ON THAT WHICH PLEASED ME, SERVED MY SELF-ESTEEM,
 UNDERGIRDED MY SECURITY,
 OF WHICH I DID NOT INQUIRE WHETHER IT SERVED OR HAMPERED OTHERS.....
 HAVE I BEEN TRYING TO STOP THE CLOCK
 TO HOLD THE WORLD
 IN PERPETUATION OF WHAT WAS AN IS ALREADY SLIPPING AWAY.....
 HAVE I BEEN CRITICAL OF OTHERS FOR WHAT REALLY NEEDED CHANGING IN ME...
 LET ME INDEED TAKE COUNSEL OF MYSELF
 AND SET MY DIRECTIONS STRAIGHT.

                          R.T. WESTON AS ADAPTED BY D. OSBORN 1967
 Job cpu time:       0 days 18 hours 43 minutes 55.1 seconds.
 Elapsed time:       0 days  0 hours 47 minutes  9.8 seconds.
 File lengths (MBytes):  RWF=  44258 Int=      0 D2E=      0 Chk=      5 Scr=      1
 Normal termination of Gaussian 16 at Mon Apr 21 15:58:31 2025.
