 Entering Gaussian System, Link 0=g16
 Initial command:
 /opt/g16/l1.exe "/home/aayush/scratches/g16/Gau-77642.inp" -scrdir="/home/aayush/scratches/g16/"
 Entering Link 1 = /opt/g16/l1.exe PID=     77645.
  
 Copyright (c) 1988,1990,1992,1993,1995,1998,2003,2009,2016,
            Gaussian, Inc.  All Rights Reserved.
  
 This is part of the Gaussian(R) 16 program.  It is based on
 the Gaussian(R) 09 system (copyright 2009, Gaussian, Inc.),
 the Gaussian(R) 03 system (copyright 2003, Gaussian, Inc.),
 the Gaussian(R) 98 system (copyright 1998, Gaussian, Inc.),
 the Gaussian(R) 94 system (copyright 1995, Gaussian, Inc.),
 the Gaussian 92(TM) system (copyright 1992, Gaussian, Inc.),
 the Gaussian 90(TM) system (copyright 1990, Gaussian, Inc.),
 the Gaussian 88(TM) system (copyright 1988, Gaussian, Inc.),
 the Gaussian 86(TM) system (copyright 1986, Carnegie Mellon
 University), and the Gaussian 82(TM) system (copyright 1983,
 Carnegie Mellon University). Gaussian is a federally registered
 trademark of Gaussian, Inc.
  
 This software contains proprietary and confidential information,
 including trade secrets, belonging to Gaussian, Inc.
  
 This software is provided under written license and may be
 used, copied, transmitted, or stored only in accord with that
 written license.
  
 The following legend is applicable only to US Government
 contracts under FAR:
  
                    RESTRICTED RIGHTS LEGEND
  
 Use, reproduction and disclosure by the US Government is
 subject to restrictions as set forth in subparagraphs (a)
 and (c) of the Commercial Computer Software - Restricted
 Rights clause in FAR 52.227-19.
  
 Gaussian, Inc.
 340 Quinnipiac St., Bldg. 40, Wallingford CT 06492
  
  
 ---------------------------------------------------------------
 Warning -- This program may not be used in any manner that
 competes with the business of Gaussian, Inc. or will provide
 assistance to any competitor of Gaussian, Inc.  The licensee
 of this program is prohibited from giving any competitor of
 Gaussian, Inc. access to this program.  By using this program,
 the user acknowledges that Gaussian, Inc. is engaged in the
 business of creating and licensing software in the field of
 computational chemistry and represents and warrants to the
 licensee that it is not a competitor of Gaussian, Inc. and that
 it will not use this program in any manner prohibited above.
 ---------------------------------------------------------------
  

 Cite this work as:
 Gaussian 16, Revision A.03,
 M. J. Frisch, G. W. Trucks, H. B. Schlegel, G. E. Scuseria, 
 M. A. Robb, J. R. Cheeseman, G. Scalmani, V. Barone, 
 G. A. Petersson, H. Nakatsuji, X. Li, M. Caricato, A. V. Marenich, 
 J. Bloino, B. G. Janesko, R. Gomperts, B. Mennucci, H. P. Hratchian, 
 J. V. Ortiz, A. F. Izmaylov, J. L. Sonnenberg, D. Williams-Young, 
 F. Ding, F. Lipparini, F. Egidi, J. Goings, B. Peng, A. Petrone, 
 T. Henderson, D. Ranasinghe, V. G. Zakrzewski, J. Gao, N. Rega, 
 G. Zheng, W. Liang, M. Hada, M. Ehara, K. Toyota, R. Fukuda, 
 J. Hasegawa, M. Ishida, T. Nakajima, Y. Honda, O. Kitao, H. Nakai, 
 T. Vreven, K. Throssell, J. A. Montgomery, Jr., J. E. Peralta, 
 F. Ogliaro, M. J. Bearpark, J. J. Heyd, E. N. Brothers, K. N. Kudin, 
 V. N. Staroverov, T. A. Keith, R. Kobayashi, J. Normand, 
 K. Raghavachari, A. P. Rendell, J. C. Burant, S. S. Iyengar, 
 J. Tomasi, M. Cossi, J. M. Millam, M. Klene, C. Adamo, R. Cammi, 
 J. W. Ochterski, R. L. Martin, K. Morokuma, O. Farkas, 
 J. B. Foresman, and D. J. Fox, Gaussian, Inc., Wallingford CT, 2016.
 
 ******************************************
 Gaussian 16:  ES64L-G16RevA.03 25-Dec-2016
                23-Jun-2025 
 ******************************************
 %nprocshared=24
 Will use up to   24 processors via shared memory.
 %mem=12GB
 %chk=ethyl_propiolate_ts1.chk
 --------------------------
 # freq 6-311++g(d,p) m062x
 --------------------------
 1/10=4,30=1,38=1/1,3;
 2/12=2,17=6,18=5,40=1/2;
 3/5=4,6=6,7=1111,11=2,25=1,30=1,71=2,74=-55,140=1/1,2,3;
 4//1;
 5/5=2,38=5,98=1/2;
 8/6=4,10=90,11=11/1;
 11/6=1,8=1,9=11,15=111,16=1/1,2,10;
 10/6=1/2;
 6/7=2,8=2,9=2,10=2,28=1/1;
 7/8=1,10=1,25=1/1,2,3,16;
 1/10=4,30=1/3;
 99//99;
 -------------------
 Title Card Required
 -------------------
 Symbolic Z-matrix:
 Charge =  0 Multiplicity = 2
 O                     2.78449  -1.43137   0.02464 
 H                     1.86417  -1.67862  -0.16677 
 C                     2.54173   0.62061   0.25598 
 H                     3.59054   0.70625   0.4278 
 C                     1.35544   0.78992   0.09635 
 C                    -0.08209   0.78454  -0.12038 
 O                    -0.78145   1.75635  -0.09105 
 O                    -0.49846  -0.46459  -0.36128 
 C                    -1.91706  -0.63145  -0.57984 
 C                    -2.67075  -0.65109   0.73485 
 H                    -1.99309  -1.5822   -1.10431 
 H                    -2.26417   0.17207  -1.23014 
 H                    -3.72709  -0.85135   0.54586 
 H                    -2.28181  -1.43518   1.3861 
 H                    -2.5889    0.31077   1.24125 
 

 GradGradGradGradGradGradGradGradGradGradGradGradGradGradGradGradGradGrad
 Berny optimization.
 Initialization pass.
 Trust Radius=3.00D-01 FncErr=1.00D-07 GrdErr=1.00D-07 EigMax=2.50D+02 EigMin=1.00D-04
 Number of steps in this run=      2 maximum allowed number of steps=      2.
 GradGradGradGradGradGradGradGradGradGradGradGradGradGradGradGradGradGrad

                          Input orientation:                          
 ---------------------------------------------------------------------
 Center     Atomic      Atomic             Coordinates (Angstroms)
 Number     Number       Type             X           Y           Z
 ---------------------------------------------------------------------
      1          8           0        2.784494   -1.431373    0.024640
      2          1           0        1.864165   -1.678617   -0.166769
      3          6           0        2.541725    0.620610    0.255975
      4          1           0        3.590538    0.706248    0.427801
      5          6           0        1.355443    0.789920    0.096353
      6          6           0       -0.082087    0.784536   -0.120382
      7          8           0       -0.781450    1.756349   -0.091048
      8          8           0       -0.498457   -0.464589   -0.361277
      9          6           0       -1.917058   -0.631451   -0.579844
     10          6           0       -2.670747   -0.651087    0.734845
     11          1           0       -1.993090   -1.582196   -1.104309
     12          1           0       -2.264167    0.172067   -1.230143
     13          1           0       -3.727092   -0.851346    0.545864
     14          1           0       -2.281808   -1.435182    1.386099
     15          1           0       -2.588898    0.310766    1.241254
 ---------------------------------------------------------------------
                    Distance matrix (angstroms):
                    1          2          3          4          5
     1  O    0.000000
     2  H    0.971994   0.000000
     3  C    2.079203   2.433977   0.000000
     4  H    2.319843   3.003574   1.066240   0.000000
     5  C    2.642248   2.534109   1.208888   2.261086   0.000000
     6  C    3.626096   3.139613   2.655731   3.714136   1.453787
     7  O    4.784445   4.336358   3.528997   4.526168   2.352746
     8  O    3.444034   2.663396   3.286543   4.325897   2.284768
     9  C    4.807272   3.945229   4.706059   5.756596   3.631363
    10  C    5.556338   4.736470   5.386687   6.414072   4.323700
    11  H    4.911475   3.970730   5.221808   6.225852   4.275652
    12  H    5.443756   4.647464   5.050380   6.108330   3.904217
    13  H    6.558114   5.696874   6.445833   7.482496   5.359849
    14  H    5.246046   4.433932   5.363761   6.323646   4.454674
    15  H    5.778282   5.076411   5.233552   6.245282   4.134999
                    6          7          8          9         10
     6  C    0.000000
     7  O    1.197660   0.000000
     8  O    1.338547   2.255144   0.000000
     9  C    2.362889   2.688887   1.445006   0.000000
    10  C    3.081167   3.169746   2.440309   1.515533   0.000000
    11  H    3.197103   3.693325   2.008748   1.088467   2.169947
    12  H    2.523522   2.450701   2.068330   1.090419   2.168886
    13  H    4.050439   3.985290   3.375881   2.142847   1.091642
    14  H    3.469208   3.823468   2.678752   2.154984   1.090968
    15  H    2.891818   2.670507   2.745765   2.157670   1.090097
                   11         12         13         14         15
    11  H    0.000000
    12  H    1.779538   0.000000
    13  H    2.502794   2.518278   0.000000
    14  H    2.511395   3.070551   1.770792   0.000000
    15  H    3.072451   2.496496   1.769055   1.778656   0.000000
 Stoichiometry    C5H7O3(2)
 Framework group  C1[X(C5H7O3)]
 Deg. of freedom    39
 Full point group                 C1      NOp   1
 Largest Abelian subgroup         C1      NOp   1
 Largest concise Abelian subgroup C1      NOp   1
                         Standard orientation:                         
 ---------------------------------------------------------------------
 Center     Atomic      Atomic             Coordinates (Angstroms)
 Number     Number       Type             X           Y           Z
 ---------------------------------------------------------------------
      1          8           0        2.784494   -1.431373    0.024640
      2          1           0        1.864165   -1.678617   -0.166769
      3          6           0        2.541725    0.620610    0.255975
      4          1           0        3.590538    0.706248    0.427801
      5          6           0        1.355443    0.789920    0.096353
      6          6           0       -0.082087    0.784536   -0.120382
      7          8           0       -0.781450    1.756349   -0.091048
      8          8           0       -0.498457   -0.464589   -0.361277
      9          6           0       -1.917058   -0.631451   -0.579844
     10          6           0       -2.670747   -0.651087    0.734845
     11          1           0       -1.993090   -1.582196   -1.104309
     12          1           0       -2.264167    0.172067   -1.230143
     13          1           0       -3.727092   -0.851347    0.545864
     14          1           0       -2.281808   -1.435182    1.386099
     15          1           0       -2.588898    0.310766    1.241254
 ---------------------------------------------------------------------
 Rotational constants (GHZ):           3.5120317           1.1509867           0.9326325
 Standard basis: 6-311++G(d,p) (5D, 7F)
 There are   233 symmetry adapted cartesian basis functions of A   symmetry.
 There are   225 symmetry adapted basis functions of A   symmetry.
   225 basis functions,   351 primitive gaussians,   233 cartesian basis functions
    31 alpha electrons       30 beta electrons
       nuclear repulsion energy       351.2009555474 Hartrees.
 NAtoms=   15 NActive=   15 NUniq=   15 SFac= 1.00D+00 NAtFMM=   60 NAOKFM=F Big=F
 Integral buffers will be    131072 words long.
 Raffenetti 2 integral format.
 Two-electron integral symmetry is turned on.
 One-electron integrals computed using PRISM.
 NBasis=   225 RedAO= T EigKep=  1.33D-06  NBF=   225
 NBsUse=   225 1.00D-06 EigRej= -1.00D+00 NBFU=   225
 ExpMin= 3.60D-02 ExpMax= 8.59D+03 ExpMxC= 1.30D+03 IAcc=3 IRadAn=         5 AccDes= 0.00D+00
 Harris functional with IExCor= 1009 and IRadAn=       5 diagonalized for initial guess.
 HarFok:  IExCor= 1009 AccDes= 0.00D+00 IRadAn=         5 IDoV= 1 UseB2=F ITyADJ=14
 ICtDFT=  3500011 ScaDFX=  1.000000  1.000000  1.000000  1.000000
 FoFCou: FMM=F IPFlag=           0 FMFlag=      100000 FMFlg1=           0
         NFxFlg=           0 DoJE=T BraDBF=F KetDBF=T FulRan=T
         wScrn=  0.000000 ICntrl=       500 IOpCl=  0 I1Cent=   200000004 NGrid=           0
         NMat0=    1 NMatS0=      1 NMatT0=    0 NMatD0=    1 NMtDS0=    0 NMtDT0=    0
 Petite list used in FoFCou.
 Initial guess <Sx>= 0.0000 <Sy>= 0.0000 <Sz>= 0.5000 <S**2>= 0.7500 S= 0.5000
 Requested convergence on RMS density matrix=1.00D-08 within 128 cycles.
 Requested convergence on MAX density matrix=1.00D-06.
 Requested convergence on             energy=1.00D-06.
 No special actions if energy rises.
 Restarting incremental Fock formation.
 SCF Done:  E(UM062X) =  -420.205213401     A.U. after   23 cycles
            NFock= 23  Conv=0.93D-08     -V/T= 2.0032
 <Sx>= 0.0000 <Sy>= 0.0000 <Sz>= 0.5000 <S**2>= 0.7667 S= 0.5083
 <L.S>=  0.00000000000    
 Annihilation of the first spin contaminant:
 S**2 before annihilation     0.7667,   after     0.7501
 DoSCS=F DFT=T ScalE2(SS,OS)=  1.000000  1.000000
 Range of M.O.s used for correlation:     1   225
 NBasis=   225 NAE=    31 NBE=    30 NFC=     0 NFV=     0
 NROrb=    225 NOA=    31 NOB=    30 NVA=   194 NVB=   195

 **** Warning!!: The largest alpha MO coefficient is  0.23633562D+03


 **** Warning!!: The largest beta MO coefficient is  0.23379396D+03

 Symmetrizing basis deriv contribution to polar:
 IMax=3 JMax=2 DiffMx= 0.00D+00
 G2DrvN: will do    16 centers at a time, making    1 passes.
 Calling FoFCou, ICntrl=  3107 FMM=F I1Cent=   0 AccDes= 0.00D+00.
 End of G2Drv F.D. properties file   721 does not exist.
 End of G2Drv F.D. properties file   722 does not exist.
 End of G2Drv F.D. properties file   788 does not exist.
          IDoAtm=111111111111111
          Differentiating once with respect to electric field.
                with respect to dipole field.
          Differentiating once with respect to nuclear coordinates.
 Keep R1 and R2 ints in memory in canonical form, NReq=671901991.
          There are    48 degrees of freedom in the 1st order CPHF.  IDoFFX=6 NUNeed=     3.
     45 vectors produced by pass  0 Test12= 2.47D-14 2.08D-09 XBig12= 1.04D+02 3.99D+00.
 AX will form    45 AO Fock derivatives at one time.
     45 vectors produced by pass  1 Test12= 2.47D-14 2.08D-09 XBig12= 2.45D+01 5.83D-01.
     45 vectors produced by pass  2 Test12= 2.47D-14 2.08D-09 XBig12= 1.02D+00 1.33D-01.
     45 vectors produced by pass  3 Test12= 2.47D-14 2.08D-09 XBig12= 1.16D-02 1.46D-02.
     45 vectors produced by pass  4 Test12= 2.47D-14 2.08D-09 XBig12= 1.23D-04 1.45D-03.
     45 vectors produced by pass  5 Test12= 2.47D-14 2.08D-09 XBig12= 1.31D-06 1.32D-04.
     39 vectors produced by pass  6 Test12= 2.47D-14 2.08D-09 XBig12= 1.32D-08 1.09D-05.
     23 vectors produced by pass  7 Test12= 2.47D-14 2.08D-09 XBig12= 8.74D-11 6.91D-07.
      4 vectors produced by pass  8 Test12= 2.47D-14 2.08D-09 XBig12= 6.57D-13 7.92D-08.
      3 vectors produced by pass  9 Test12= 2.47D-14 2.08D-09 XBig12= 7.63D-15 9.31D-09.
      1 vectors produced by pass 10 Test12= 2.47D-14 2.08D-09 XBig12= 7.24D-16 2.55D-09.
 InvSVY:  IOpt=1 It=  1 EMax= 5.33D-15
 Solved reduced A of dimension   340 with    48 vectors.
 Isotropic polarizability for W=    0.000000       74.65 Bohr**3.
 End of Minotr F.D. properties file   721 does not exist.
 End of Minotr F.D. properties file   722 does not exist.
 End of Minotr F.D. properties file   788 does not exist.

 **********************************************************************

            Population analysis using the SCF density.

 **********************************************************************

 Orbital symmetries:
 Alpha Orbitals:
       Occupied  (A) (A) (A) (A) (A) (A) (A) (A) (A) (A) (A) (A)
                 (A) (A) (A) (A) (A) (A) (A) (A) (A) (A) (A) (A)
                 (A) (A) (A) (A) (A) (A) (A)
       Virtual   (A) (A) (A) (A) (A) (A) (A) (A) (A) (A) (A) (A)
                 (A) (A) (A) (A) (A) (A) (A) (A) (A) (A) (A) (A)
                 (A) (A) (A) (A) (A) (A) (A) (A) (A) (A) (A) (A)
                 (A) (A) (A) (A) (A) (A) (A) (A) (A) (A) (A) (A)
                 (A) (A) (A) (A) (A) (A) (A) (A) (A) (A) (A) (A)
                 (A) (A) (A) (A) (A) (A) (A) (A) (A) (A) (A) (A)
                 (A) (A) (A) (A) (A) (A) (A) (A) (A) (A) (A) (A)
                 (A) (A) (A) (A) (A) (A) (A) (A) (A) (A) (A) (A)
                 (A) (A) (A) (A) (A) (A) (A) (A) (A) (A) (A) (A)
                 (A) (A) (A) (A) (A) (A) (A) (A) (A) (A) (A) (A)
                 (A) (A) (A) (A) (A) (A) (A) (A) (A) (A) (A) (A)
                 (A) (A) (A) (A) (A) (A) (A) (A) (A) (A) (A) (A)
                 (A) (A) (A) (A) (A) (A) (A) (A) (A) (A) (A) (A)
                 (A) (A) (A) (A) (A) (A) (A) (A) (A) (A) (A) (A)
                 (A) (A) (A) (A) (A) (A) (A) (A) (A) (A) (A) (A)
                 (A) (A) (A) (A) (A) (A) (A) (A) (A) (A) (A) (A)
                 (A) (A)
 Beta  Orbitals:
       Occupied  (A) (A) (A) (A) (A) (A) (A) (A) (A) (A) (A) (A)
                 (A) (A) (A) (A) (A) (A) (A) (A) (A) (A) (A) (A)
                 (A) (A) (A) (A) (A) (A)
       Virtual   (A) (A) (A) (A) (A) (A) (A) (A) (A) (A) (A) (A)
                 (A) (A) (A) (A) (A) (A) (A) (A) (A) (A) (A) (A)
                 (A) (A) (A) (A) (A) (A) (A) (A) (A) (A) (A) (A)
                 (A) (A) (A) (A) (A) (A) (A) (A) (A) (A) (A) (A)
                 (A) (A) (A) (A) (A) (A) (A) (A) (A) (A) (A) (A)
                 (A) (A) (A) (A) (A) (A) (A) (A) (A) (A) (A) (A)
                 (A) (A) (A) (A) (A) (A) (A) (A) (A) (A) (A) (A)
                 (A) (A) (A) (A) (A) (A) (A) (A) (A) (A) (A) (A)
                 (A) (A) (A) (A) (A) (A) (A) (A) (A) (A) (A) (A)
                 (A) (A) (A) (A) (A) (A) (A) (A) (A) (A) (A) (A)
                 (A) (A) (A) (A) (A) (A) (A) (A) (A) (A) (A) (A)
                 (A) (A) (A) (A) (A) (A) (A) (A) (A) (A) (A) (A)
                 (A) (A) (A) (A) (A) (A) (A) (A) (A) (A) (A) (A)
                 (A) (A) (A) (A) (A) (A) (A) (A) (A) (A) (A) (A)
                 (A) (A) (A) (A) (A) (A) (A) (A) (A) (A) (A) (A)
                 (A) (A) (A) (A) (A) (A) (A) (A) (A) (A) (A) (A)
                 (A) (A) (A)
 The electronic state is 2-A.
 Alpha  occ. eigenvalues --  -19.69522 -19.65808 -19.64311 -10.71720 -10.61539
 Alpha  occ. eigenvalues --  -10.59410 -10.58139 -10.54563  -1.26703  -1.17562
 Alpha  occ. eigenvalues --   -1.11790  -0.91897  -0.88076  -0.79085  -0.71670
 Alpha  occ. eigenvalues --   -0.65560  -0.62498  -0.59587  -0.57503  -0.54707
 Alpha  occ. eigenvalues --   -0.53483  -0.50365  -0.49543  -0.47766  -0.46210
 Alpha  occ. eigenvalues --   -0.43066  -0.42048  -0.40040  -0.39475  -0.37535
 Alpha  occ. eigenvalues --   -0.34478
 Alpha virt. eigenvalues --   -0.02459  -0.00736   0.00789   0.01297   0.01637
 Alpha virt. eigenvalues --    0.02815   0.04651   0.04972   0.05332   0.06051
 Alpha virt. eigenvalues --    0.06578   0.07042   0.08138   0.08895   0.10174
 Alpha virt. eigenvalues --    0.10962   0.11872   0.12094   0.12229   0.13034
 Alpha virt. eigenvalues --    0.13438   0.14057   0.14469   0.15717   0.15987
 Alpha virt. eigenvalues --    0.16795   0.17867   0.18080   0.18747   0.20336
 Alpha virt. eigenvalues --    0.20533   0.20974   0.22165   0.23306   0.23411
 Alpha virt. eigenvalues --    0.25837   0.26489   0.27516   0.28790   0.29289
 Alpha virt. eigenvalues --    0.30016   0.31103   0.31703   0.32009   0.32773
 Alpha virt. eigenvalues --    0.33496   0.34151   0.35984   0.36352   0.37345
 Alpha virt. eigenvalues --    0.40270   0.41872   0.45663   0.45870   0.49696
 Alpha virt. eigenvalues --    0.50598   0.51262   0.54891   0.55724   0.57370
 Alpha virt. eigenvalues --    0.61424   0.62362   0.63586   0.65464   0.66463
 Alpha virt. eigenvalues --    0.66908   0.68593   0.69053   0.70621   0.72552
 Alpha virt. eigenvalues --    0.73998   0.76419   0.77041   0.78193   0.81096
 Alpha virt. eigenvalues --    0.84239   0.89840   0.91678   0.95751   0.99561
 Alpha virt. eigenvalues --    1.01151   1.05150   1.07417   1.07434   1.10675
 Alpha virt. eigenvalues --    1.12680   1.14368   1.16487   1.18600   1.20535
 Alpha virt. eigenvalues --    1.21040   1.22884   1.24786   1.28460   1.32912
 Alpha virt. eigenvalues --    1.34261   1.34409   1.36430   1.40802   1.44360
 Alpha virt. eigenvalues --    1.45477   1.48866   1.50885   1.52307   1.53157
 Alpha virt. eigenvalues --    1.57398   1.58592   1.59676   1.60722   1.63253
 Alpha virt. eigenvalues --    1.65406   1.67540   1.69602   1.73208   1.74664
 Alpha virt. eigenvalues --    1.81030   1.81831   1.83595   1.84986   1.86834
 Alpha virt. eigenvalues --    1.89391   1.93898   1.98671   2.02371   2.07394
 Alpha virt. eigenvalues --    2.10271   2.12129   2.13063   2.19970   2.30426
 Alpha virt. eigenvalues --    2.34777   2.39445   2.43251   2.50698   2.52951
 Alpha virt. eigenvalues --    2.55125   2.60425   2.61524   2.62181   2.63799
 Alpha virt. eigenvalues --    2.64633   2.66443   2.71011   2.73656   2.74146
 Alpha virt. eigenvalues --    2.78923   2.81978   2.84717   2.87257   2.91016
 Alpha virt. eigenvalues --    2.93790   2.96568   2.97785   3.00076   3.01527
 Alpha virt. eigenvalues --    3.08053   3.12039   3.14728   3.18237   3.19169
 Alpha virt. eigenvalues --    3.23668   3.24657   3.29105   3.32050   3.42369
 Alpha virt. eigenvalues --    3.43270   3.52773   3.64195   3.72003   3.84135
 Alpha virt. eigenvalues --    3.85429   3.89394   3.90364   4.02226   4.09473
 Alpha virt. eigenvalues --    4.16307   4.27058   5.06376   5.12461   5.12822
 Alpha virt. eigenvalues --    5.16114   5.30730   5.44865   5.57971   5.71271
 Alpha virt. eigenvalues --    5.93452  23.62035  23.92463  23.93453  24.05162
 Alpha virt. eigenvalues --   25.06594  49.95099  49.99104  50.10426
  Beta  occ. eigenvalues --  -19.69510 -19.64349 -19.64279 -10.71739 -10.61536
  Beta  occ. eigenvalues --  -10.59459 -10.57930 -10.54563  -1.26650  -1.17475
  Beta  occ. eigenvalues --   -1.05341  -0.91341  -0.87691  -0.78991  -0.71458
  Beta  occ. eigenvalues --   -0.65477  -0.62120  -0.59465  -0.57390  -0.54544
  Beta  occ. eigenvalues --   -0.50981  -0.50168  -0.47685  -0.46292  -0.43006
  Beta  occ. eigenvalues --   -0.40399  -0.39970  -0.39655  -0.38011  -0.35971
  Beta virt. eigenvalues --   -0.09085  -0.02410  -0.00630   0.00996   0.01340
  Beta virt. eigenvalues --    0.01789   0.02911   0.04918   0.05048   0.05740
  Beta virt. eigenvalues --    0.06460   0.06925   0.07116   0.08349   0.09015
  Beta virt. eigenvalues --    0.10792   0.11214   0.12048   0.12146   0.12267
  Beta virt. eigenvalues --    0.13064   0.13746   0.14146   0.14531   0.15787
  Beta virt. eigenvalues --    0.16125   0.17120   0.17988   0.18285   0.18771
  Beta virt. eigenvalues --    0.20429   0.20905   0.21294   0.22139   0.23401
  Beta virt. eigenvalues --    0.23633   0.25920   0.26256   0.27368   0.28699
  Beta virt. eigenvalues --    0.29350   0.30067   0.31081   0.31602   0.31991
  Beta virt. eigenvalues --    0.32700   0.33720   0.34061   0.36105   0.36603
  Beta virt. eigenvalues --    0.37478   0.40265   0.41977   0.45819   0.45951
  Beta virt. eigenvalues --    0.49730   0.50639   0.51406   0.55081   0.55794
  Beta virt. eigenvalues --    0.57603   0.61414   0.62619   0.63713   0.65523
  Beta virt. eigenvalues --    0.66681   0.67105   0.68664   0.69245   0.70718
  Beta virt. eigenvalues --    0.72626   0.74098   0.76520   0.77049   0.78529
  Beta virt. eigenvalues --    0.81076   0.84627   0.90006   0.91725   0.95865
  Beta virt. eigenvalues --    0.99760   1.01337   1.05585   1.08237   1.08331
  Beta virt. eigenvalues --    1.11163   1.13606   1.14585   1.16995   1.19062
  Beta virt. eigenvalues --    1.20912   1.22162   1.23016   1.24924   1.28619
  Beta virt. eigenvalues --    1.33597   1.34223   1.35354   1.36654   1.41045
  Beta virt. eigenvalues --    1.44949   1.45540   1.48945   1.50905   1.52923
  Beta virt. eigenvalues --    1.54282   1.57496   1.58682   1.59751   1.60795
  Beta virt. eigenvalues --    1.63356   1.65526   1.67850   1.69734   1.73286
  Beta virt. eigenvalues --    1.74724   1.81068   1.82515   1.83835   1.85191
  Beta virt. eigenvalues --    1.86922   1.89767   1.94049   1.98715   2.02501
  Beta virt. eigenvalues --    2.07500   2.10569   2.12197   2.14130   2.19990
  Beta virt. eigenvalues --    2.30454   2.34806   2.39549   2.43566   2.50701
  Beta virt. eigenvalues --    2.52960   2.55139   2.60329   2.61521   2.62191
  Beta virt. eigenvalues --    2.63850   2.64678   2.66360   2.70840   2.73959
  Beta virt. eigenvalues --    2.74182   2.79041   2.82125   2.85793   2.91020
  Beta virt. eigenvalues --    2.92534   2.94105   2.97572   2.99905   3.01127
  Beta virt. eigenvalues --    3.01643   3.09724   3.12276   3.14874   3.19971
  Beta virt. eigenvalues --    3.20385   3.24331   3.27301   3.29388   3.32093
  Beta virt. eigenvalues --    3.42460   3.43323   3.52842   3.64314   3.72108
  Beta virt. eigenvalues --    3.84140   3.85431   3.90000   3.92949   4.02297
  Beta virt. eigenvalues --    4.09684   4.16492   4.27083   5.08220   5.12574
  Beta virt. eigenvalues --    5.16154   5.21150   5.30841   5.44940   5.60339
  Beta virt. eigenvalues --    5.71359   5.93484  23.62085  23.92476  23.93467
  Beta virt. eigenvalues --   24.05162  25.06764  49.94598  49.99082  50.10399
          Condensed to atoms (all electrons):
               1          2          3          4          5          6
     1  O    8.110845   0.262857  -0.189483  -0.022980  -0.017030   0.137857
     2  H    0.262857   0.473267   0.168450   0.004419  -0.032688  -0.133445
     3  C   -0.189483   0.168450  20.500974   0.772677  -5.547615  -7.498641
     4  H   -0.022980   0.004419   0.772677   0.416190  -0.265649  -0.100191
     5  C   -0.017030  -0.032688  -5.547615  -0.265649  12.523438  -2.069753
     6  C    0.137857  -0.133445  -7.498641  -0.100191  -2.069753  15.118292
     7  O   -0.001618   0.001293   0.010169  -0.000699   0.136229   0.203563
     8  O    0.011284   0.008311   0.086208  -0.001626  -0.302931   0.013125
     9  C    0.003959  -0.002534  -0.265155  -0.000498  -0.436180   0.516652
    10  C   -0.002520   0.001541   0.045821  -0.000311   0.067608  -0.187580
    11  H    0.000183  -0.001397  -0.002654   0.000150   0.002198   0.015771
    12  H    0.000246  -0.000400   0.007057  -0.000047  -0.019311   0.005109
    13  H   -0.000064   0.000111  -0.000774  -0.000011   0.007338  -0.002228
    14  H    0.000574  -0.000785   0.002160   0.000049  -0.007862   0.006925
    15  H    0.000195  -0.000177  -0.012966  -0.000024  -0.052040   0.045805
               7          8          9         10         11         12
     1  O   -0.001618   0.011284   0.003959  -0.002520   0.000183   0.000246
     2  H    0.001293   0.008311  -0.002534   0.001541  -0.001397  -0.000400
     3  C    0.010169   0.086208  -0.265155   0.045821  -0.002654   0.007057
     4  H   -0.000699  -0.001626  -0.000498  -0.000311   0.000150  -0.000047
     5  C    0.136229  -0.302931  -0.436180   0.067608   0.002198  -0.019311
     6  C    0.203563   0.013125   0.516652  -0.187580   0.015771   0.005109
     7  O    8.017488  -0.137461   0.056584  -0.065818   0.004580  -0.021893
     8  O   -0.137461   8.394296   0.120882  -0.044056  -0.087340  -0.015530
     9  C    0.056584   0.120882   5.512736   0.003111   0.447218   0.404748
    10  C   -0.065818  -0.044056   0.003111   5.479874  -0.070941  -0.019811
    11  H    0.004580  -0.087340   0.447218  -0.070941   0.526783  -0.034862
    12  H   -0.021893  -0.015530   0.404748  -0.019811  -0.034862   0.509019
    13  H   -0.000698   0.015796  -0.047803   0.404280  -0.001310  -0.005083
    14  H    0.000911  -0.005402  -0.026337   0.407519  -0.009576   0.004833
    15  H    0.005021  -0.020905   0.011753   0.374696   0.011949  -0.010802
              13         14         15
     1  O   -0.000064   0.000574   0.000195
     2  H    0.000111  -0.000785  -0.000177
     3  C   -0.000774   0.002160  -0.012966
     4  H   -0.000011   0.000049  -0.000024
     5  C    0.007338  -0.007862  -0.052040
     6  C   -0.002228   0.006925   0.045805
     7  O   -0.000698   0.000911   0.005021
     8  O    0.015796  -0.005402  -0.020905
     9  C   -0.047803  -0.026337   0.011753
    10  C    0.404280   0.407519   0.374696
    11  H   -0.001310  -0.009576   0.011949
    12  H   -0.005083   0.004833  -0.010802
    13  H    0.527354  -0.032162  -0.031843
    14  H   -0.032162   0.539871  -0.046567
    15  H   -0.031843  -0.046567   0.542144
          Atomic-Atomic Spin Densities.
               1          2          3          4          5          6
     1  O    0.928415   0.002217  -0.055388   0.005868  -0.131771   0.068619
     2  H    0.002217  -0.026776   0.003154  -0.000903   0.028169  -0.016124
     3  C   -0.055388   0.003154  -0.385994   0.038879   0.301598  -0.045320
     4  H    0.005868  -0.000903   0.038879   0.012486  -0.040431   0.002358
     5  C   -0.131771   0.028169   0.301598  -0.040431   0.975905  -0.776569
     6  C    0.068619  -0.016124  -0.045320   0.002358  -0.776569   0.743261
     7  O   -0.001225   0.000545   0.004300  -0.000488   0.031668  -0.038800
     8  O    0.006774  -0.002215  -0.018055   0.000404  -0.093972   0.100293
     9  C    0.003733  -0.002884   0.006419   0.000591  -0.067935   0.043246
    10  C   -0.001044   0.001066   0.000254  -0.000261   0.022800  -0.011982
    11  H    0.000409  -0.000476   0.000645   0.000068  -0.008429   0.005001
    12  H    0.000074  -0.000073  -0.002308   0.000019  -0.008608   0.009106
    13  H   -0.000016   0.000013   0.000598  -0.000006   0.002136  -0.001698
    14  H    0.000058  -0.000156  -0.000481   0.000022  -0.002601   0.001998
    15  H    0.000032  -0.000024  -0.000317   0.000017  -0.003744   0.003036
               7          8          9         10         11         12
     1  O   -0.001225   0.006774   0.003733  -0.001044   0.000409   0.000074
     2  H    0.000545  -0.002215  -0.002884   0.001066  -0.000476  -0.000073
     3  C    0.004300  -0.018055   0.006419   0.000254   0.000645  -0.002308
     4  H   -0.000488   0.000404   0.000591  -0.000261   0.000068   0.000019
     5  C    0.031668  -0.093972  -0.067935   0.022800  -0.008429  -0.008608
     6  C   -0.038800   0.100293   0.043246  -0.011982   0.005001   0.009106
     7  O    0.020311  -0.005435  -0.005083   0.002259  -0.000404  -0.000475
     8  O   -0.005435   0.004051   0.006262  -0.001432   0.000349   0.000084
     9  C   -0.005083   0.006262   0.018880  -0.008450   0.002920   0.002279
    10  C    0.002259  -0.001432  -0.008450   0.000943  -0.002169  -0.000885
    11  H   -0.000404   0.000349   0.002920  -0.002169   0.001521   0.000433
    12  H   -0.000475   0.000084   0.002279  -0.000885   0.000433   0.000177
    13  H    0.000162   0.000125  -0.000444  -0.000382  -0.000235  -0.000134
    14  H   -0.000120  -0.000031   0.001019  -0.000133   0.000276   0.000076
    15  H   -0.000212   0.000097   0.001027  -0.000176   0.000215   0.000145
              13         14         15
     1  O   -0.000016   0.000058   0.000032
     2  H    0.000013  -0.000156  -0.000024
     3  C    0.000598  -0.000481  -0.000317
     4  H   -0.000006   0.000022   0.000017
     5  C    0.002136  -0.002601  -0.003744
     6  C   -0.001698   0.001998   0.003036
     7  O    0.000162  -0.000120  -0.000212
     8  O    0.000125  -0.000031   0.000097
     9  C   -0.000444   0.001019   0.001027
    10  C   -0.000382  -0.000133  -0.000176
    11  H   -0.000235   0.000276   0.000215
    12  H   -0.000134   0.000076   0.000145
    13  H    0.000019   0.000028  -0.000044
    14  H    0.000028  -0.000064  -0.000021
    15  H   -0.000044  -0.000021   0.000123
 Mulliken charges and spin densities:
               1          2
     1  O   -0.294306   0.826756
     2  H    0.251178  -0.014468
     3  C   -2.076228  -0.152017
     4  H    0.198551   0.018623
     5  C    2.014247   0.228214
     6  C   -0.071262   0.086427
     7  O   -0.207652   0.007001
     8  O   -0.034651  -0.002702
     9  C   -0.299139   0.001578
    10  C   -0.393414   0.000409
    11  H    0.199246   0.000124
    12  H    0.196725  -0.000090
    13  H    0.167095   0.000123
    14  H    0.165849  -0.000132
    15  H    0.183760   0.000153
 Sum of Mulliken charges =  -0.00000   1.00000
 Mulliken charges and spin densities with hydrogens summed into heavy atoms:
               1          2
     1  O   -0.043128   0.812289
     3  C   -1.877677  -0.133395
     5  C    2.014247   0.228214
     6  C   -0.071262   0.086427
     7  O   -0.207652   0.007001
     8  O   -0.034651  -0.002702
     9  C    0.096833   0.001613
    10  C    0.123290   0.000553
 APT charges:
               1
     1  O   -0.159789
     2  H    0.269125
     3  C   -0.359413
     4  H    0.252401
     5  C   -0.267696
     6  C    1.463624
     7  O   -0.781262
     8  O   -0.946389
     9  C    0.541769
    10  C   -0.043538
    11  H   -0.012507
    12  H   -0.011264
    13  H    0.012076
    14  H    0.010969
    15  H    0.031893
 Sum of APT charges =   0.00000
 APT charges with hydrogens summed into heavy atoms:
               1
     1  O    0.109336
     3  C   -0.107012
     5  C   -0.267696
     6  C    1.463624
     7  O   -0.781262
     8  O   -0.946389
     9  C    0.517999
    10  C    0.011399
 Electronic spatial extent (au):  <R**2>=           1229.8824
 Charge=             -0.0000 electrons
 Dipole moment (field-independent basis, Debye):
    X=             -1.7565    Y=             -1.3060    Z=             -0.2213  Tot=              2.2000
 Quadrupole moment (field-independent basis, Debye-Ang):
   XX=            -43.2265   YY=            -52.1752   ZZ=            -47.4458
   XY=              9.0280   XZ=              1.6606   YZ=              1.0437
 Traceless Quadrupole moment (field-independent basis, Debye-Ang):
   XX=              4.3893   YY=             -4.5594   ZZ=              0.1700
   XY=              9.0280   XZ=              1.6606   YZ=              1.0437
 Octapole moment (field-independent basis, Debye-Ang**2):
  XXX=             -5.6969  YYY=            -20.1484  ZZZ=             -3.3803  XYY=             -1.4795
  XXY=             15.5622  XXZ=              2.6539  XZZ=             -4.5697  YZZ=             -0.3769
  YYZ=             -2.3253  XYZ=              1.1811
 Hexadecapole moment (field-independent basis, Debye-Ang**3):
 XXXX=          -1048.5659 YYYY=           -353.7060 ZZZZ=           -113.1433 XXXY=             78.1586
 XXXZ=             29.7581 YYYX=             -8.0912 YYYZ=              4.9431 ZZZX=              2.9613
 ZZZY=             -0.0437 XXYY=           -266.7134 XXZZ=           -214.7475 YYZZ=            -74.3645
 XXYZ=              8.7592 YYXZ=             -1.1739 ZZXY=             -3.3584
 N-N= 3.512009555474D+02 E-N=-1.686803311373D+03  KE= 4.188605706938D+02
  Exact polarizability:  95.481  -8.181  78.254   2.615   1.868  50.220
 Approx polarizability: 104.823 -13.618  88.477   5.302   1.940  57.842
                          Isotropic Fermi Contact Couplings
        Atom                 a.u.       MegaHertz       Gauss      10(-4) cm-1
     1  O(17)              0.12509     -75.82804     -27.05733     -25.29351
     2  H(1)              -0.01394     -62.30909     -22.23343     -20.78408
     3  C(13)              0.01544      17.35578       6.19298       5.78927
     4  H(1)               0.00705      31.50175      11.24061      10.50785
     5  C(13)              0.04150      46.64998      16.64587      15.56076
     6  C(13)             -0.01169     -13.14139      -4.68918      -4.38350
     7  O(17)              0.00686      -4.15982      -1.48433      -1.38757
     8  O(17)              0.01287      -7.80114      -2.78364      -2.60218
     9  C(13)              0.00185       2.07752       0.74131       0.69299
    10  C(13)             -0.00002      -0.01863      -0.00665      -0.00621
    11  H(1)               0.00006       0.26336       0.09397       0.08785
    12  H(1)              -0.00003      -0.13533      -0.04829      -0.04514
    13  H(1)               0.00004       0.16917       0.06036       0.05643
    14  H(1)               0.00001       0.02830       0.01010       0.00944
    15  H(1)              -0.00000      -0.01109      -0.00396      -0.00370
 --------------------------------------------------------
       Center         ----  Spin Dipole Couplings  ----
                      3XX-RR        3YY-RR        3ZZ-RR
 --------------------------------------------------------
     1   Atom       -1.215061      2.826349     -1.611287
     2   Atom        0.127506     -0.023779     -0.103727
     3   Atom        0.066750     -0.032930     -0.033820
     4   Atom       -0.006342      0.012387     -0.006045
     5   Atom       -0.192355      0.322105     -0.129750
     6   Atom        0.008580      0.000900     -0.009480
     7   Atom        0.035677     -0.028280     -0.007398
     8   Atom        0.015455     -0.009953     -0.005501
     9   Atom        0.005118     -0.002109     -0.003009
    10   Atom        0.001955     -0.000896     -0.001058
    11   Atom        0.002006     -0.000781     -0.001225
    12   Atom        0.001952     -0.000927     -0.001025
    13   Atom        0.001184     -0.000553     -0.000631
    14   Atom        0.001714     -0.000841     -0.000872
    15   Atom        0.001723     -0.000854     -0.000869
 --------------------------------------------------------
                        XY            XZ            YZ
 --------------------------------------------------------
     1   Atom       -1.385647     -0.116775      0.375114
     2   Atom        0.052701      0.048737      0.021564
     3   Atom        0.003732      0.016353      0.001614
     4   Atom        0.009998      0.001405      0.004052
     5   Atom       -0.028716     -0.012466      0.055647
     6   Atom       -0.004084      0.002283      0.000833
     7   Atom        0.007004      0.006898     -0.001878
     8   Atom        0.007793      0.004599      0.000558
     9   Atom        0.001783      0.001202      0.000272
    10   Atom        0.000138     -0.000580     -0.000055
    11   Atom        0.000673      0.000924      0.000412
    12   Atom       -0.000372      0.001206     -0.000107
    13   Atom        0.000131     -0.000177     -0.000009
    14   Atom        0.000479     -0.000891     -0.000217
    15   Atom       -0.000221     -0.000826      0.000019
 --------------------------------------------------------


 ---------------------------------------------------------------------------------
              Anisotropic Spin Dipole Couplings in Principal Axis System
 ---------------------------------------------------------------------------------

       Atom             a.u.   MegaHertz   Gauss  10(-4) cm-1        Axes

              Baa    -1.6446   119.005    42.464    39.696  0.9291  0.2664  0.2565
     1 O(17)  Bbb    -1.6427   118.862    42.413    39.648 -0.2229 -0.1500  0.9632
              Bcc     3.2873  -237.867   -84.877   -79.344 -0.2951  0.9521  0.0799
 
              Baa    -0.1150   -61.374   -21.900   -20.472 -0.1671 -0.1343  0.9767
     2 H(1)   Bbb    -0.0399   -21.276    -7.592    -7.097 -0.3193  0.9446  0.0753
              Bcc     0.1549    82.651    29.492    27.569  0.9328  0.2993  0.2007
 
              Baa    -0.0367    -4.924    -1.757    -1.642 -0.1409 -0.2689  0.9528
     3 C(13)  Bbb    -0.0328    -4.401    -1.571    -1.468 -0.0788  0.9624  0.2599
              Bcc     0.0695     9.325     3.328     3.111  0.9869  0.0384  0.1568
 
              Baa    -0.0107    -5.710    -2.038    -1.905  0.9094 -0.4080  0.0807
     4 H(1)   Bbb    -0.0068    -3.626    -1.294    -1.209 -0.1458 -0.1311  0.9806
              Bcc     0.0175     9.336     3.331     3.114  0.3895  0.9035  0.1787
 
              Baa    -0.1954   -26.224    -9.357    -8.747  0.9872  0.0381  0.1551
     5 C(13)  Bbb    -0.1352   -18.137    -6.472    -6.050 -0.1491 -0.1287  0.9804
              Bcc     0.3306    44.361    15.829    14.797 -0.0573  0.9910  0.1213
 
              Baa    -0.0099    -1.334    -0.476    -0.445 -0.1498 -0.1318  0.9799
     6 C(13)  Bbb    -0.0006    -0.075    -0.027    -0.025  0.3638  0.9142  0.1786
              Bcc     0.0105     1.409     0.503     0.470  0.9194 -0.3832  0.0891
 
              Baa    -0.0294     2.124     0.758     0.709 -0.1190  0.9854  0.1217
     7 O(17)  Bbb    -0.0081     0.584     0.208     0.195 -0.1328 -0.1372  0.9816
              Bcc     0.0374    -2.708    -0.966    -0.903  0.9840  0.1007  0.1472
 
              Baa    -0.0122     0.885     0.316     0.295 -0.2870  0.9507  0.1171
     8 O(17)  Bbb    -0.0063     0.455     0.162     0.152 -0.1473 -0.1646  0.9753
              Bcc     0.0185    -1.341    -0.478    -0.447  0.9465  0.2627  0.1873
 
              Baa    -0.0032    -0.427    -0.152    -0.142 -0.1391 -0.0200  0.9901
     9 C(13)  Bbb    -0.0025    -0.339    -0.121    -0.113 -0.2254  0.9742 -0.0120
              Bcc     0.0057     0.766     0.273     0.255  0.9643  0.2248  0.1400
 
              Baa    -0.0012    -0.157    -0.056    -0.052  0.1768  0.1072  0.9784
    10 C(13)  Bbb    -0.0009    -0.121    -0.043    -0.040 -0.0677  0.9930 -0.0966
              Bcc     0.0021     0.278     0.099     0.093  0.9819  0.0492 -0.1828
 
              Baa    -0.0016    -0.828    -0.296    -0.276 -0.1753 -0.3410  0.9236
    11 H(1)   Bbb    -0.0009    -0.469    -0.167    -0.156 -0.3022  0.9114  0.2792
              Bcc     0.0024     1.297     0.463     0.433  0.9370  0.2302  0.2628
 
              Baa    -0.0015    -0.776    -0.277    -0.259 -0.3381 -0.0480  0.9399
    12 H(1)   Bbb    -0.0010    -0.518    -0.185    -0.173  0.0917  0.9923  0.0836
              Bcc     0.0024     1.293     0.462     0.431  0.9366 -0.1144  0.3311
 
              Baa    -0.0006    -0.346    -0.123    -0.115  0.0991 -0.0470  0.9940
    13 H(1)   Bbb    -0.0006    -0.300    -0.107    -0.100 -0.0692  0.9961  0.0540
              Bcc     0.0012     0.646     0.230     0.215  0.9927  0.0741 -0.0955
 
              Baa    -0.0012    -0.623    -0.222    -0.208  0.2456  0.2607  0.9337
    14 H(1)   Bbb    -0.0009    -0.489    -0.175    -0.163 -0.2411  0.9493 -0.2016
              Bcc     0.0021     1.112     0.397     0.371  0.9389  0.1756 -0.2960
 
              Baa    -0.0011    -0.596    -0.213    -0.199  0.2875  0.1725  0.9421
    15 H(1)   Bbb    -0.0009    -0.461    -0.164    -0.154  0.0243  0.9820 -0.1872
              Bcc     0.0020     1.057     0.377     0.353  0.9575 -0.0767 -0.2781
 

 ---------------------------------------------------------------------------------

 Calling FoFJK, ICntrl=    100127 FMM=F ISym2X=0 I1Cent= 0 IOpClX= 1 NMat=1 NMatS=1 NMatT=0.
 Full mass-weighted force constant matrix:
 Low frequencies --- -382.8973  -70.2032  -34.9892   -6.5748   -0.0009   -0.0004
 Low frequencies ---   -0.0004   13.0501   32.6421
 ******    2 imaginary frequencies (negative Signs) ****** 
 Diagonal vibrational polarizability:
       56.5761503      46.1102823     145.0044410
 Harmonic frequencies (cm**-1), IR intensities (KM/Mole), Raman scattering
 activities (A**4/AMU), depolarization ratios for plane and unpolarized
 incident light, reduced masses (AMU), force constants (mDyne/A),
 and normal coordinates:
                      1                      2                      3
                      A                      A                      A
 Frequencies --   -382.8972               -54.1001                18.1499
 Red. masses --     12.8461                 5.9232                 6.2505
 Frc consts  --      1.1097                 0.0102                 0.0012
 IR Inten    --     46.6951                 5.3792                 1.0980
  Atom  AN      X      Y      Z        X      Y      Z        X      Y      Z
     1   8     0.05  -0.57  -0.07    -0.10  -0.06   0.33     0.47   0.04   0.08
     2   1    -0.06  -0.18  -0.05    -0.10  -0.03   0.25     0.53  -0.18   0.04
     3   6    -0.02   0.78   0.10     0.05   0.03  -0.31    -0.02   0.01  -0.06
     4   1     0.05  -0.04  -0.00     0.08   0.03  -0.49    -0.03   0.17  -0.08
     5   6    -0.01   0.01  -0.00     0.03   0.03  -0.17    -0.04  -0.16  -0.05
     6   6    -0.00   0.01   0.00     0.00   0.03   0.01    -0.05  -0.08   0.00
     7   8    -0.02  -0.01  -0.00    -0.02   0.01   0.24     0.03  -0.03   0.09
     8   8    -0.00  -0.00  -0.00     0.00   0.06  -0.13    -0.15  -0.03  -0.05
     9   6     0.00  -0.00   0.00    -0.01   0.07  -0.06    -0.17   0.10  -0.03
    10   6    -0.00  -0.00   0.00     0.07  -0.15  -0.02    -0.15   0.12  -0.01
    11   1    -0.01  -0.00  -0.00    -0.03   0.15  -0.21    -0.27   0.13  -0.06
    12   1    -0.00  -0.00   0.00    -0.06   0.17   0.09    -0.12   0.15   0.01
    13   1    -0.00   0.00   0.00     0.06  -0.14   0.01    -0.17   0.22   0.00
    14   1    -0.00  -0.00   0.00     0.12  -0.25  -0.17    -0.21   0.06  -0.05
    15   1     0.00  -0.00  -0.00     0.08  -0.23   0.13    -0.06   0.09   0.02
                      4                      5                      6
                      A                      A                      A
 Frequencies --     77.4630               115.4719               199.6993
 Red. masses --      3.3528                 3.4338                 1.9989
 Frc consts  --      0.0119                 0.0270                 0.0470
 IR Inten    --      1.2946                 1.3379                 4.3706
  Atom  AN      X      Y      Z        X      Y      Z        X      Y      Z
     1   8    -0.03   0.02  -0.04    -0.04   0.02   0.02    -0.10   0.10  -0.00
     2   1    -0.06   0.03   0.10    -0.00   0.05  -0.18    -0.11   0.12   0.03
     3   6     0.06   0.05  -0.18    -0.03   0.02   0.06     0.05   0.11   0.02
     4   1     0.09   0.06  -0.35    -0.04   0.02   0.12     0.04   0.16   0.02
     5   6     0.03   0.03   0.01    -0.02   0.00  -0.01     0.03  -0.05   0.00
     6   6     0.02  -0.03   0.11    -0.02  -0.06  -0.02     0.04  -0.10  -0.01
     7   8    -0.02  -0.06   0.10    -0.09  -0.11   0.15     0.05  -0.09  -0.01
     8   8     0.05  -0.06   0.18     0.05  -0.04  -0.20    -0.01  -0.09  -0.01
     9   6     0.08  -0.08  -0.02     0.02  -0.08  -0.03    -0.03   0.06  -0.00
    10   6    -0.17   0.12  -0.16     0.13   0.25   0.04    -0.00   0.03   0.01
    11   1     0.17  -0.15   0.10    -0.02  -0.21   0.20    -0.14   0.11  -0.09
    12   1     0.20  -0.17  -0.20    -0.02  -0.23  -0.20     0.04   0.15   0.08
    13   1    -0.13   0.07  -0.35     0.13   0.12   0.17    -0.10   0.55  -0.01
    14   1    -0.29   0.22   0.04     0.23   0.45   0.22    -0.33  -0.30  -0.19
    15   1    -0.29   0.20  -0.30     0.10   0.39  -0.24     0.42  -0.13   0.25
                      7                      8                      9
                      A                      A                      A
 Frequencies --    224.2215               241.0430               263.3557
 Red. masses --      1.1264                 1.8198                 3.8127
 Frc consts  --      0.0334                 0.0623                 0.1558
 IR Inten    --     89.8325                 7.9870                10.3784
  Atom  AN      X      Y      Z        X      Y      Z        X      Y      Z
     1   8     0.02  -0.01  -0.05     0.06  -0.08   0.02    -0.02   0.01   0.03
     2   1    -0.15  -0.15   0.96     0.11  -0.06  -0.26     0.05   0.05  -0.34
     3   6    -0.01  -0.01  -0.01    -0.05  -0.08  -0.04     0.02   0.04  -0.18
     4   1    -0.00  -0.01  -0.06    -0.04  -0.12  -0.09     0.09   0.12  -0.62
     5   6    -0.02   0.00   0.05    -0.05   0.08   0.04    -0.07  -0.09   0.39
     6   6    -0.01   0.00   0.01    -0.04   0.06   0.02    -0.03  -0.04   0.11
     7   8    -0.02  -0.00  -0.00    -0.12   0.01  -0.02     0.02  -0.00  -0.12
     8   8     0.01   0.00  -0.02     0.05   0.02   0.03    -0.02  -0.01  -0.05
     9   6     0.01   0.00  -0.02     0.06  -0.03  -0.00    -0.03   0.04  -0.06
    10   6     0.04   0.01   0.00     0.06   0.03  -0.01     0.10   0.02   0.01
    11   1     0.00   0.00  -0.01     0.08  -0.04   0.03    -0.07   0.07  -0.09
    12   1     0.00  -0.00  -0.01     0.06  -0.05  -0.04    -0.02   0.08  -0.01
    13   1     0.02   0.07   0.03    -0.04   0.57  -0.05     0.11  -0.18   0.16
    14   1     0.02  -0.01  -0.02    -0.31  -0.27  -0.16     0.32   0.13   0.01
    15   1     0.09   0.00   0.01     0.49  -0.10   0.18     0.00   0.07  -0.07
                     10                     11                     12
                      A                      A                      A
 Frequencies --    337.1773               422.8476               573.9545
 Red. masses --      2.9403                 3.8940                 4.6597
 Frc consts  --      0.1970                 0.4102                 0.9044
 IR Inten    --      8.9960                 2.3417                 1.2200
  Atom  AN      X      Y      Z        X      Y      Z        X      Y      Z
     1   8     0.02  -0.02  -0.00    -0.02   0.03  -0.00     0.03  -0.04  -0.00
     2   1     0.03  -0.04  -0.02     0.00  -0.03  -0.02    -0.03   0.15   0.02
     3   6    -0.02  -0.04   0.01    -0.09   0.03   0.01     0.17  -0.04   0.02
     4   1    -0.02  -0.07   0.08    -0.12   0.09   0.11     0.18  -0.17   0.02
     5   6     0.01   0.10  -0.06    -0.08  -0.15  -0.14     0.18   0.36   0.05
     6   6     0.00  -0.05   0.01    -0.07  -0.01   0.06     0.04  -0.04   0.03
     7   8    -0.15  -0.16  -0.04     0.07   0.09   0.04     0.02  -0.06  -0.01
     8   8     0.05  -0.08   0.10    -0.10  -0.02   0.23    -0.16  -0.02   0.05
     9   6     0.03   0.24  -0.02     0.00  -0.04  -0.16    -0.25  -0.09  -0.15
    10   6     0.06   0.04  -0.01     0.22   0.03  -0.09    -0.00  -0.01  -0.01
    11   1    -0.15   0.39  -0.27     0.07  -0.05  -0.16    -0.11  -0.16  -0.04
    12   1     0.20   0.49   0.20     0.10  -0.02  -0.19    -0.25  -0.17  -0.23
    13   1     0.11  -0.29   0.04     0.15   0.06   0.33    -0.09   0.04   0.46
    14   1     0.33   0.14  -0.05     0.47   0.08  -0.17     0.25   0.03  -0.11
    15   1    -0.19   0.05   0.00     0.47   0.06  -0.19     0.30   0.02  -0.12
                     13                     14                     15
                      A                      A                      A
 Frequencies --    597.7363               742.5874               776.9314
 Red. masses --      8.4658                 1.0779                 2.6824
 Frc consts  --      1.7821                 0.3502                 0.9540
 IR Inten    --      7.5124               162.5206                 0.1201
  Atom  AN      X      Y      Z        X      Y      Z        X      Y      Z
     1   8     0.02  -0.03  -0.00     0.04  -0.04   0.00     0.00   0.00  -0.01
     2   1     0.07  -0.21  -0.02    -0.25   0.95   0.09    -0.01   0.02   0.01
     3   6    -0.35  -0.03  -0.06    -0.01  -0.03  -0.01    -0.03  -0.02   0.16
     4   1    -0.36  -0.00  -0.07    -0.02   0.13   0.01     0.13   0.09  -0.89
     5   6    -0.26   0.41   0.03    -0.01  -0.01  -0.00     0.02   0.02  -0.16
     6   6     0.01  -0.15  -0.03    -0.02   0.00  -0.00    -0.04  -0.04   0.28
     7   8     0.37   0.09   0.07     0.00   0.01   0.00     0.02   0.00  -0.08
     8   8     0.08  -0.23  -0.05     0.01  -0.01  -0.00     0.01   0.01  -0.07
     9   6     0.03  -0.01   0.03     0.00  -0.00   0.00     0.01   0.02   0.00
    10   6    -0.01   0.01   0.01     0.00   0.00   0.00     0.00   0.00   0.01
    11   1    -0.21   0.11  -0.15    -0.02   0.02  -0.04     0.01  -0.03   0.08
    12   1     0.17   0.18   0.19     0.02   0.03   0.04    -0.03  -0.05  -0.06
    13   1     0.01  -0.03  -0.09     0.00   0.01  -0.01     0.02  -0.02  -0.05
    14   1    -0.07   0.04   0.09    -0.01   0.01   0.02    -0.02  -0.03  -0.03
    15   1    -0.10   0.03  -0.03    -0.01   0.01  -0.01    -0.06  -0.03   0.07
                     16                     17                     18
                      A                      A                      A
 Frequencies --    784.8518               800.6347               809.9360
 Red. masses --      1.9840                 1.2236                 1.0914
 Frc consts  --      0.7200                 0.4621                 0.4218
 IR Inten    --     57.9011                 2.9567                48.2455
  Atom  AN      X      Y      Z        X      Y      Z        X      Y      Z
     1   8    -0.00  -0.01   0.00    -0.00  -0.02  -0.00    -0.01  -0.04  -0.01
     2   1    -0.01   0.01   0.03    -0.01   0.00  -0.00     0.02  -0.17  -0.02
     3   6     0.01   0.01  -0.13    -0.03  -0.02   0.00     0.03  -0.04   0.01
     4   1    -0.16  -0.02   0.92    -0.06   0.44  -0.03    -0.05   0.89   0.07
     5   6     0.00   0.01  -0.04    -0.02   0.02   0.01     0.02   0.02  -0.00
     6   6    -0.03  -0.04   0.24     0.03  -0.02  -0.05    -0.01   0.01   0.01
     7   8     0.02  -0.00  -0.07     0.02  -0.04   0.01    -0.01   0.01  -0.00
     8   8     0.00   0.02  -0.06    -0.02   0.03   0.02     0.00   0.00  -0.00
     9   6     0.01   0.02   0.00     0.01   0.08   0.01    -0.00  -0.03  -0.00
    10   6     0.00   0.01   0.01     0.01   0.03  -0.01    -0.00  -0.02   0.00
    11   1     0.02  -0.04   0.11     0.08  -0.17   0.44    -0.01   0.07  -0.19
    12   1    -0.02  -0.06  -0.08     0.02  -0.24  -0.38    -0.02   0.10   0.17
    13   1     0.02  -0.03  -0.05     0.05  -0.16  -0.04    -0.02   0.08   0.01
    14   1    -0.00  -0.04  -0.05     0.15  -0.17  -0.33    -0.07   0.08   0.15
    15   1    -0.06  -0.03   0.09    -0.12  -0.15   0.35     0.06   0.07  -0.16
                     19                     20                     21
                      A                      A                      A
 Frequencies --    892.4914               929.2779              1073.0146
 Red. masses --      3.1175                 2.8077                 4.1319
 Frc consts  --      1.4631                 1.4285                 2.8030
 IR Inten    --     15.9700                 4.8955                22.5342
  Atom  AN      X      Y      Z        X      Y      Z        X      Y      Z
     1   8    -0.00   0.00  -0.00     0.00   0.00   0.00     0.00  -0.00  -0.00
     2   1     0.02  -0.09  -0.01    -0.01   0.06   0.00    -0.00   0.01  -0.00
     3   6     0.05  -0.00   0.01    -0.12   0.01  -0.02     0.08  -0.01   0.01
     4   1     0.04   0.09   0.02    -0.13  -0.01  -0.02     0.09  -0.03   0.01
     5   6     0.03  -0.05  -0.01    -0.07  -0.03  -0.02     0.04   0.05   0.01
     6   6    -0.06   0.10   0.01     0.14  -0.01   0.02    -0.14  -0.08  -0.04
     7   8    -0.06   0.15   0.01     0.04  -0.13  -0.01     0.01   0.03   0.01
     8   8     0.19  -0.18  -0.02     0.10   0.16   0.02    -0.21  -0.03  -0.04
     9   6    -0.07  -0.01  -0.10    -0.01   0.01  -0.10     0.35   0.03  -0.13
    10   6    -0.14   0.03   0.07    -0.15  -0.05   0.08    -0.11   0.00   0.17
    11   1    -0.23  -0.06   0.01     0.38   0.03  -0.20     0.36   0.08  -0.25
    12   1     0.29   0.00  -0.28    -0.01  -0.01  -0.12     0.47   0.02  -0.22
    13   1    -0.19  -0.14   0.54    -0.28   0.09   0.65    -0.13  -0.00   0.32
    14   1     0.26  -0.06  -0.27     0.10   0.12   0.14    -0.08   0.05   0.22
    15   1     0.02  -0.12   0.32     0.25   0.04  -0.13    -0.08  -0.05   0.27
                     22                     23                     24
                      A                      A                      A
 Frequencies --   1127.5776              1202.8987              1263.8139
 Red. masses --      2.0695                 1.7811                 5.5238
 Frc consts  --      1.5503                 1.5184                 5.1983
 IR Inten    --     21.9710                 9.7728               583.5839
  Atom  AN      X      Y      Z        X      Y      Z        X      Y      Z
     1   8     0.00  -0.00  -0.00    -0.00  -0.00  -0.00     0.00   0.01   0.00
     2   1    -0.00   0.01   0.00    -0.00   0.00   0.00    -0.01   0.03   0.00
     3   6     0.01  -0.00   0.00     0.02  -0.00   0.00    -0.11  -0.00  -0.02
     4   1     0.02  -0.00   0.00     0.03  -0.01   0.00    -0.13   0.08  -0.01
     5   6     0.01   0.01   0.00     0.01   0.00   0.00    -0.02  -0.03  -0.01
     6   6    -0.02  -0.01   0.00    -0.06  -0.03  -0.02     0.39   0.32   0.10
     7   8     0.00   0.01  -0.00    -0.01   0.04   0.01    -0.05  -0.02  -0.01
     8   8    -0.05  -0.01  -0.05     0.03  -0.07   0.00    -0.19  -0.19  -0.04
     9   6     0.07   0.01   0.22    -0.02   0.19   0.01     0.13   0.04  -0.03
    10   6    -0.09  -0.01  -0.17     0.02  -0.14  -0.00     0.00  -0.07  -0.00
    11   1     0.04   0.06   0.14     0.30  -0.04   0.39    -0.62  -0.06   0.22
    12   1     0.17   0.03   0.21    -0.20  -0.18  -0.36    -0.03  -0.13  -0.18
    13   1    -0.18  -0.01   0.47    -0.07   0.28   0.02    -0.05   0.12   0.06
    14   1     0.45   0.11  -0.33    -0.10   0.14   0.39    -0.07   0.11   0.26
    15   1     0.44  -0.03  -0.21     0.13   0.10  -0.45     0.03  -0.01  -0.10
                     25                     26                     27
                      A                      A                      A
 Frequencies --   1346.1720              1402.1894              1431.3703
 Red. masses --      1.1579                 1.2546                 1.3552
 Frc consts  --      1.2363                 1.4533                 1.6360
 IR Inten    --     42.9948                15.9309                 8.3847
  Atom  AN      X      Y      Z        X      Y      Z        X      Y      Z
     1   8    -0.00  -0.00  -0.00    -0.00  -0.00  -0.00     0.00   0.00   0.00
     2   1     0.00  -0.01   0.00     0.00   0.00   0.00     0.00  -0.00  -0.00
     3   6     0.00   0.00   0.00     0.01  -0.00   0.00    -0.01   0.00  -0.00
     4   1     0.01  -0.01   0.00     0.01  -0.00   0.00    -0.01   0.00  -0.00
     5   6     0.00   0.00   0.00     0.00   0.00  -0.00     0.00  -0.00   0.00
     6   6    -0.02  -0.03  -0.01    -0.04  -0.02  -0.01     0.04   0.02   0.01
     7   8     0.01  -0.01  -0.00     0.01  -0.01   0.00    -0.01   0.01  -0.00
     8   8     0.01   0.08   0.00     0.02   0.03   0.02    -0.02  -0.02  -0.02
     9   6    -0.02  -0.01   0.00     0.05   0.01  -0.04    -0.09  -0.01   0.08
    10   6     0.01  -0.06   0.01     0.04  -0.00  -0.11     0.09   0.01  -0.07
    11   1    -0.60  -0.07   0.19    -0.36  -0.09   0.21     0.47   0.11  -0.23
    12   1     0.69   0.11  -0.21    -0.34   0.02   0.20     0.48  -0.00  -0.22
    13   1    -0.00   0.07  -0.03    -0.08   0.02   0.50     0.01   0.00   0.36
    14   1    -0.05   0.02   0.13    -0.28   0.16   0.30    -0.36  -0.03   0.15
    15   1     0.04   0.03  -0.17    -0.22  -0.20   0.32    -0.32  -0.07   0.16
                     28                     29                     30
                      A                      A                      A
 Frequencies --   1493.6176              1502.9181              1514.9269
 Red. masses --      1.0404                 1.0621                 1.0805
 Frc consts  --      1.3675                 1.4135                 1.4611
 IR Inten    --     12.1580                 1.7728                17.1781
  Atom  AN      X      Y      Z        X      Y      Z        X      Y      Z
     1   8    -0.00  -0.00  -0.00     0.00   0.00   0.00     0.00   0.00   0.00
     2   1     0.00  -0.00   0.00     0.00  -0.00   0.00    -0.00  -0.00   0.00
     3   6     0.00   0.00   0.00    -0.00   0.00  -0.00    -0.00   0.00  -0.00
     4   1     0.00  -0.00   0.00    -0.00   0.00  -0.00    -0.01   0.00  -0.00
     5   6    -0.00   0.00  -0.00     0.00  -0.00   0.00     0.00  -0.00   0.00
     6   6    -0.00   0.00  -0.00     0.01   0.00   0.00     0.02   0.00   0.00
     7   8     0.00  -0.00   0.00    -0.01   0.01   0.00    -0.01   0.01  -0.00
     8   8     0.00   0.01   0.00    -0.01  -0.01  -0.01    -0.01  -0.01  -0.01
     9   6    -0.01  -0.02   0.01     0.00  -0.01  -0.05    -0.05  -0.01  -0.05
    10   6    -0.00  -0.04  -0.01     0.02  -0.01   0.03    -0.03   0.00  -0.02
    11   1     0.00   0.05  -0.13     0.20  -0.26   0.39     0.30  -0.22   0.30
    12   1     0.02  -0.05  -0.03     0.10   0.36   0.37     0.21   0.33   0.24
    13   1    -0.10   0.63  -0.16    -0.06   0.22   0.18     0.05  -0.13  -0.25
    14   1     0.51   0.27   0.04     0.01  -0.25  -0.27     0.08   0.32   0.31
    15   1    -0.36  -0.13   0.24    -0.37   0.17  -0.26     0.35  -0.21   0.32
                     31                     32                     33
                      A                      A                      A
 Frequencies --   1848.3941              2181.5741              3075.6376
 Red. masses --     12.0869                 6.1302                 1.0354
 Frc consts  --     24.3306                17.1897                 5.7709
 IR Inten    --    392.2139                84.7506                 9.0291
  Atom  AN      X      Y      Z        X      Y      Z        X      Y      Z
     1   8    -0.00  -0.00  -0.00    -0.00   0.02   0.00     0.00   0.00  -0.00
     2   1     0.01  -0.04  -0.00    -0.00   0.01   0.00    -0.00  -0.00   0.00
     3   6     0.08  -0.01   0.01    -0.38   0.03  -0.05     0.00   0.00   0.00
     4   1     0.12   0.02   0.02    -0.72   0.04  -0.11    -0.00  -0.00  -0.00
     5   6    -0.05  -0.00  -0.01     0.54  -0.05   0.08    -0.00  -0.00  -0.00
     6   6    -0.47   0.63   0.02    -0.11   0.01  -0.02     0.00   0.00   0.00
     7   8     0.31  -0.42  -0.01     0.01  -0.01   0.00     0.00  -0.00  -0.00
     8   8     0.01  -0.06  -0.01    -0.00  -0.00  -0.00    -0.00  -0.00  -0.00
     9   6    -0.04   0.01  -0.00     0.00   0.00   0.00    -0.00   0.00  -0.00
    10   6     0.01   0.00   0.01    -0.00  -0.00   0.00    -0.03  -0.01   0.04
    11   1     0.18  -0.05   0.08     0.01   0.00   0.00    -0.00   0.01   0.01
    12   1     0.09   0.12   0.03    -0.00   0.00   0.00     0.01  -0.02   0.02
    13   1     0.02  -0.04  -0.05     0.00  -0.00   0.00     0.59   0.11   0.11
    14   1    -0.03  -0.02   0.00    -0.00  -0.00  -0.00    -0.22   0.43  -0.35
    15   1     0.04   0.03  -0.04     0.00   0.00  -0.00    -0.04  -0.46  -0.23
                     34                     35                     36
                      A                      A                      A
 Frequencies --   3108.6203              3150.9044              3155.6563
 Red. masses --      1.0605                 1.1019                 1.1048
 Frc consts  --      6.0381                 6.4453                 6.4820
 IR Inten    --     16.6578                12.6719                 2.6476
  Atom  AN      X      Y      Z        X      Y      Z        X      Y      Z
     1   8    -0.00  -0.00  -0.00     0.00   0.00   0.00     0.00   0.00   0.00
     2   1     0.00   0.00   0.00     0.00  -0.00  -0.00    -0.00  -0.00  -0.00
     3   6    -0.00  -0.00  -0.00     0.00   0.00   0.00     0.00  -0.00   0.00
     4   1     0.00   0.00  -0.00    -0.00  -0.00  -0.00    -0.00   0.00   0.00
     5   6     0.00   0.00   0.00    -0.00   0.00   0.00    -0.00  -0.00  -0.00
     6   6    -0.00  -0.00  -0.00     0.00   0.00  -0.00    -0.00   0.00  -0.00
     7   8    -0.00   0.00  -0.00     0.00  -0.00  -0.00     0.00  -0.00   0.00
     8   8     0.00   0.00   0.00     0.00  -0.00   0.00     0.00  -0.00  -0.00
     9   6     0.02  -0.01   0.06    -0.00  -0.03  -0.01    -0.01   0.05  -0.00
    10   6    -0.01  -0.00  -0.01    -0.07   0.04  -0.04    -0.04  -0.06  -0.03
    11   1    -0.04  -0.50  -0.26     0.02   0.29   0.16    -0.03  -0.36  -0.19
    12   1    -0.25   0.60  -0.47    -0.02   0.05  -0.04     0.12  -0.27   0.22
    13   1     0.13   0.03   0.03     0.60   0.12   0.10     0.45   0.07   0.08
    14   1     0.02  -0.05   0.03     0.24  -0.51   0.41    -0.05   0.07  -0.07
    15   1    -0.00   0.02   0.01    -0.02  -0.06  -0.04     0.05   0.60   0.31
                     37                     38                     39
                      A                      A                      A
 Frequencies --   3175.8499              3466.6885              3784.0953
 Red. masses --      1.1076                 1.1569                 1.0676
 Frc consts  --      6.5818                 8.1917                 9.0074
 IR Inten    --     12.0113                75.3609                30.5481
  Atom  AN      X      Y      Z        X      Y      Z        X      Y      Z
     1   8    -0.00  -0.00  -0.00     0.00   0.00   0.00    -0.06  -0.02  -0.01
     2   1     0.00  -0.00   0.00    -0.00  -0.00  -0.00     0.95   0.25   0.20
     3   6     0.00   0.00   0.00    -0.11  -0.00  -0.02    -0.00   0.00   0.00
     4   1    -0.00  -0.00  -0.00     0.98   0.08   0.16     0.00   0.00   0.00
     5   6    -0.00   0.00   0.00     0.03  -0.00   0.00     0.00  -0.00   0.00
     6   6     0.00  -0.00  -0.00    -0.00  -0.00  -0.00     0.00   0.00   0.00
     7   8    -0.00   0.00   0.00     0.00   0.00   0.00    -0.00  -0.00  -0.00
     8   8    -0.00   0.00   0.00     0.00   0.00   0.00    -0.00  -0.00  -0.00
     9   6     0.01  -0.07  -0.00    -0.00  -0.00  -0.00    -0.00  -0.00  -0.00
    10   6     0.00  -0.06  -0.00     0.00  -0.00   0.00    -0.00   0.00  -0.00
    11   1     0.04   0.56   0.31     0.00   0.00   0.00    -0.00  -0.00  -0.00
    12   1    -0.13   0.32  -0.27     0.00   0.00  -0.00     0.00  -0.00   0.00
    13   1     0.08   0.01   0.01     0.00   0.00  -0.00     0.00  -0.00  -0.00
    14   1    -0.13   0.25  -0.22    -0.00   0.00  -0.00    -0.00  -0.00   0.00
    15   1     0.04   0.45   0.24    -0.00   0.00   0.00     0.00  -0.00  -0.00

 -------------------
 - Thermochemistry -
 -------------------
 Temperature   298.150 Kelvin.  Pressure   1.00000 Atm.
 Atom     1 has atomic number  8 and mass  15.99491
 Atom     2 has atomic number  1 and mass   1.00783
 Atom     3 has atomic number  6 and mass  12.00000
 Atom     4 has atomic number  1 and mass   1.00783
 Atom     5 has atomic number  6 and mass  12.00000
 Atom     6 has atomic number  6 and mass  12.00000
 Atom     7 has atomic number  8 and mass  15.99491
 Atom     8 has atomic number  8 and mass  15.99491
 Atom     9 has atomic number  6 and mass  12.00000
 Atom    10 has atomic number  6 and mass  12.00000
 Atom    11 has atomic number  1 and mass   1.00783
 Atom    12 has atomic number  1 and mass   1.00783
 Atom    13 has atomic number  1 and mass   1.00783
 Atom    14 has atomic number  1 and mass   1.00783
 Atom    15 has atomic number  1 and mass   1.00783
 Molecular mass:   115.03952 amu.
 Principal axes and moments of inertia in atomic units:
                           1         2         3
     Eigenvalues --   513.873831567.994801935.10437
           X            0.99962   0.02712  -0.00566
           Y           -0.02712   0.99963  -0.00036
           Z            0.00565   0.00052   0.99998
 This molecule is an asymmetric top.
 Rotational symmetry number  1.
 Warning -- assumption of classical behavior for rotation
           may cause significant error
 Rotational temperatures (Kelvin)      0.16855     0.05524     0.04476
 Rotational constants (GHZ):           3.51203     1.15099     0.93263
    2 imaginary frequencies ignored.
 Zero-point vibrational energy     293765.5 (Joules/Mol)
                                   70.21163 (Kcal/Mol)
 Warning -- explicit consideration of  11 degrees of freedom as
           vibrations may cause significant error
 Vibrational temperatures:     26.11   111.45   166.14   287.32   322.60
          (Kelvin)            346.81   378.91   485.12   608.38   825.79
                              860.01  1068.42  1117.83  1129.23  1151.93
                             1165.32  1284.10  1337.02  1543.83  1622.33
                             1730.70  1818.35  1936.84  2017.44  2059.42
                             2148.98  2162.36  2179.64  2659.43  3138.80
                             4425.16  4472.61  4533.45  4540.29  4569.34
                             4987.79  5444.47
 
 Zero-point correction=                           0.111889 (Hartree/Particle)
 Thermal correction to Energy=                    0.120802
 Thermal correction to Enthalpy=                  0.121747
 Thermal correction to Gibbs Free Energy=         0.075882
 Sum of electronic and zero-point Energies=           -420.093324
 Sum of electronic and thermal Energies=              -420.084411
 Sum of electronic and thermal Enthalpies=            -420.083467
 Sum of electronic and thermal Free Energies=         -420.129331
 
                     E (Thermal)             CV                S
                      KCal/Mol        Cal/Mol-Kelvin    Cal/Mol-Kelvin
 Total                   75.805             30.035             96.530
 Electronic               0.000              0.000              1.377
 Translational            0.889              2.981             40.136
 Rotational               0.889              2.981             28.835
 Vibrational             74.027             24.073             26.182
 Vibration     1          0.593              1.986              6.827
 Vibration     2          0.599              1.964              3.954
 Vibration     3          0.608              1.937              3.175
 Vibration     4          0.638              1.840              2.136
 Vibration     5          0.649              1.804              1.925
 Vibration     6          0.658              1.778              1.795
 Vibration     7          0.670              1.740              1.639
 Vibration     8          0.718              1.601              1.225
 Vibration     9          0.785              1.421              0.882
 Vibration    10          0.930              1.088              0.497
 Vibration    11          0.956              1.037              0.454
                       Q            Log10(Q)             Ln(Q)
 Total Bot       0.124921D-34        -34.903363        -80.367963
 Total V=0       0.364857D+17         16.562123         38.135696
 Vib (Bot)       0.288127D-48        -48.540416       -111.768438
 Vib (Bot)    1  0.114137D+02          1.057427          2.434817
 Vib (Bot)    2  0.265963D+01          0.424821          0.978187
 Vib (Bot)    3  0.177158D+01          0.248361          0.571872
 Vib (Bot)    4  0.998591D+00         -0.000612         -0.001410
 Vib (Bot)    5  0.880605D+00         -0.055219         -0.127146
 Vib (Bot)    6  0.813080D+00         -0.089867         -0.206926
 Vib (Bot)    7  0.736302D+00         -0.132944         -0.306115
 Vib (Bot)    8  0.551683D+00         -0.258310         -0.594781
 Vib (Bot)    9  0.414349D+00         -0.382634         -0.881048
 Vib (Bot)   10  0.267100D+00         -0.573326         -1.320131
 Vib (Bot)   11  0.250390D+00         -0.601384         -1.384737
 Vib (V=0)       0.841530D+03          2.925070          6.735222
 Vib (V=0)    1  0.119247D+02          1.076446          2.478609
 Vib (V=0)    2  0.320622D+01          0.505994          1.165093
 Vib (V=0)    3  0.234079D+01          0.369362          0.850487
 Vib (V=0)    4  0.161677D+01          0.208649          0.480433
 Vib (V=0)    5  0.151265D+01          0.179739          0.413865
 Vib (V=0)    6  0.145451D+01          0.162718          0.374672
 Vib (V=0)    7  0.139002D+01          0.143022          0.329320
 Vib (V=0)    8  0.124455D+01          0.095012          0.218774
 Vib (V=0)    9  0.114937D+01          0.060461          0.139216
 Vib (V=0)   10  0.106687D+01          0.028112          0.064730
 Vib (V=0)   11  0.105919D+01          0.024974          0.057506
 Electronic      0.200000D+01          0.301030          0.693147
 Translational   0.484981D+08          7.685724         17.697035
 Rotational      0.446991D+06          5.650298         13.010293
 ***** Axes restored to original set *****
 -------------------------------------------------------------------
 Center     Atomic                   Forces (Hartrees/Bohr)
 Number     Number              X              Y              Z
 -------------------------------------------------------------------
      1        8           0.000618075   -0.008093279   -0.000966246
      2        1           0.000035689   -0.000134689   -0.000017155
      3        6           0.000667310    0.008447878    0.001221269
      4        1          -0.000277280   -0.000048195   -0.000052047
      5        6          -0.000756979   -0.000040101   -0.000120525
      6        6           0.000031928    0.000001041    0.000003112
      7        8          -0.000141953   -0.000072873   -0.000028521
      8        8          -0.000131261   -0.000070988   -0.000036971
      9        6          -0.000009092    0.000012362   -0.000007552
     10        6          -0.000020807   -0.000008480   -0.000000984
     11        1          -0.000012861    0.000003256   -0.000002941
     12        1          -0.000000999    0.000002632    0.000004676
     13        1          -0.000002600    0.000002825    0.000002801
     14        1          -0.000002769   -0.000000935   -0.000000374
     15        1           0.000003598   -0.000000455    0.000001459
 -------------------------------------------------------------------
 Cartesian Forces:  Max     0.008447878 RMS     0.001769263

 GradGradGradGradGradGradGradGradGradGradGradGradGradGradGradGradGradGrad
 Berny optimization.
 Search for a local minimum.
 Step number   1 out of a maximum of    2
 All quantities printed in internal units (Hartrees-Bohrs-Radians)
 Second derivative matrix not updated -- analytic derivatives used.
 ITU=  0
     Eigenvalues ---   -0.07356  -0.00094   0.00004   0.00096   0.00185
     Eigenvalues ---    0.00255   0.00341   0.01108   0.01425   0.02146
     Eigenvalues ---    0.02638   0.03208   0.03450   0.04805   0.06264
     Eigenvalues ---    0.07562   0.08238   0.09251   0.09714   0.10228
     Eigenvalues ---    0.11457   0.14006   0.16016   0.17065   0.20020
     Eigenvalues ---    0.28958   0.29916   0.43538   0.48873   0.62192
     Eigenvalues ---    0.70881   0.76945   0.78636   0.84880   0.87409
     Eigenvalues ---    0.94242   0.98488   1.74387   2.52829
 Eigenvalue     1 is  -7.36D-02 should be greater than     0.000000 Eigenvector:
                          Y3        Y1        X1        Z3        Y2
   1                    0.75520  -0.62757   0.09598   0.09543  -0.07414
                          Z1        X2        X4        X3        X7
   1                   -0.06768  -0.06041   0.03079  -0.02728  -0.02415
 Eigenvalue     2 is  -9.41D-04 should be greater than     0.000000 Eigenvector:
                          Z1        Z4        Z3        Z7        Z2
   1                    0.49716  -0.43549  -0.29182   0.25729   0.20178
                          Y14       Z11       Y15       Z5        Y12
   1                   -0.19574  -0.18883  -0.18217  -0.18217   0.16212
 Quadratic step=1.313D+00 exceeds max=3.000D-01 adjusted using Lamda=-1.713D-04.
 Angle between NR and scaled steps=  25.38 degrees.
 Angle between quadratic step and forces=  57.96 degrees.
 Linear search not attempted -- first point.
 B after Tr=     0.003354   -0.006301    0.000179
         Rot=    1.000000    0.000251    0.000084   -0.000121 Ang=   0.03 deg.
 Variable       Old X    -DE/DX   Delta X   Delta X   Delta X     New X
                                 (Linear)    (Quad)   (Total)
    X1        5.26193   0.00062   0.00000   0.14570   0.14973   5.41166
    Y1       -2.70490  -0.00809   0.00000  -0.09254  -0.09750  -2.80240
    Z1        0.04656  -0.00097   0.00000   0.01114   0.01362   0.06019
    X2        3.52276   0.00004   0.00000   0.13301   0.13719   3.65996
    Y2       -3.17213  -0.00013   0.00000  -0.03736  -0.04292  -3.21505
    Z2       -0.31515  -0.00002   0.00000   0.01311   0.01550  -0.29964
    X3        4.80316   0.00067   0.00000  -0.00718  -0.00423   4.79894
    Y3        1.17278   0.00845   0.00000   0.12252   0.11762   1.29041
    Z3        0.48372   0.00122   0.00000   0.00364   0.00397   0.48769
    X4        6.78513  -0.00028   0.00000  -0.00382  -0.00094   6.78420
    Y4        1.33462  -0.00005   0.00000   0.05155   0.04729   1.38191
    Z4        0.80843  -0.00005   0.00000  -0.01123  -0.01062   0.79781
    X5        2.56142  -0.00076   0.00000  -0.01246  -0.00948   2.55194
    Y5        1.49273  -0.00004   0.00000  -0.04711  -0.05271   1.44002
    Z5        0.18208  -0.00012   0.00000  -0.01334  -0.01345   0.16863
    X6       -0.15512   0.00003   0.00000  -0.01227  -0.00924  -0.16436
    Y6        1.48256   0.00000   0.00000  -0.02655  -0.03300   1.44956
    Z6       -0.22749   0.00000   0.00000  -0.00112  -0.00170  -0.22919
    X7       -1.47673  -0.00014   0.00000   0.00564   0.00822  -1.46851
    Y7        3.31902  -0.00007   0.00000  -0.01413  -0.02086   3.29815
    Z7       -0.17206  -0.00003   0.00000   0.02003   0.01831  -0.15375
    X8       -0.94195  -0.00013   0.00000  -0.03835  -0.03466  -0.97660
    Y8       -0.87795  -0.00007   0.00000  -0.01455  -0.02144  -0.89938
    Z8       -0.68271  -0.00004   0.00000  -0.01593  -0.01546  -0.69818
    X9       -3.62271  -0.00001   0.00000  -0.04276  -0.03894  -3.66165
    Y9       -1.19327   0.00001   0.00000   0.01935   0.01161  -1.18166
    Z9       -1.09575  -0.00001   0.00000  -0.00595  -0.00580  -1.10154
   X10       -5.04698  -0.00002   0.00000  -0.03226  -0.02885  -5.07583
   Y10       -1.23038  -0.00001   0.00000   0.01806   0.01122  -1.21915
   Z10        1.38866  -0.00000   0.00000   0.00025   0.00019   1.38885
   X11       -3.76639  -0.00001   0.00000  -0.06765  -0.06322  -3.82962
   Y11       -2.98992   0.00000   0.00000   0.02804   0.01976  -2.97016
   Z11       -2.08684  -0.00000   0.00000  -0.01805  -0.01703  -2.10387
   X12       -4.27866  -0.00000   0.00000  -0.03103  -0.02738  -4.30603
   Y12        0.32516   0.00000   0.00000   0.03578   0.02727   0.35243
   Z12       -2.32463   0.00000   0.00000   0.00801   0.00729  -2.31734
   X13       -7.04318  -0.00000   0.00000  -0.03816  -0.03460  -7.07778
   Y13       -1.60881   0.00000   0.00000   0.04368   0.03618  -1.57263
   Z13        1.03153   0.00000   0.00000   0.00667   0.00645   1.03799
   X14       -4.31199  -0.00000   0.00000  -0.04349  -0.03991  -4.35190
   Y14       -2.71210  -0.00000   0.00000   0.00058  -0.00547  -2.71757
   Z14        2.61935  -0.00000   0.00000  -0.01396  -0.01315   2.60620
   X15       -4.89231   0.00000   0.00000  -0.00652  -0.00371  -4.89602
   Y15        0.58726  -0.00000   0.00000   0.00926   0.00295   0.59021
   Z15        2.34563   0.00000   0.00000   0.01281   0.01187   2.35750
         Item               Value     Threshold  Converged?
 Maximum Force            0.008448     0.000450     NO 
 RMS     Force            0.001769     0.000300     NO 
 Maximum Displacement     0.149725     0.001800     NO 
 RMS     Displacement     0.044614     0.001200     NO 
 Predicted change in Energy=-2.806510D-03
 GradGradGradGradGradGradGradGradGradGradGradGradGradGradGradGradGradGrad


 ----------------------------------------------------------------------

 Electric dipole moment (input orientation):
 (Debye = 10**-18 statcoulomb cm , SI units = C m)
                  (au)            (Debye)         (10**-30 SI)
   Tot        0.865531D+00      0.219996D+01      0.733828D+01
   x         -0.691055D+00     -0.175649D+01     -0.585901D+01
   y         -0.513819D+00     -0.130600D+01     -0.435634D+01
   z         -0.870479D-01     -0.221254D+00     -0.738022D+00

 Dipole polarizability, Alpha (input orientation).
 (esu units = cm**3 , SI units = C**2 m**2 J**-1)
 Alpha(0;0):
               (au)            (10**-24 esu)      (10**-40 SI)
   iso        0.746516D+02      0.110622D+02      0.123084D+02
   aniso      0.423956D+02      0.628239D+01      0.699010D+01
   xx         0.954808D+02      0.141488D+02      0.157427D+02
   yx        -0.818105D+01     -0.121231D+01     -0.134887D+01
   yy         0.782541D+02      0.115961D+02      0.129024D+02
   zx         0.261512D+01      0.387521D+00      0.431176D+00
   zy         0.186845D+01      0.276876D+00      0.308066D+00
   zz         0.502199D+02      0.744182D+01      0.828015D+01

 ----------------------------------------------------------------------

 Dipole orientation:
     8          3.34185743          4.13253129         -2.60014627
     1          3.10005763          3.48641838         -0.89782001
     6          1.12979931          1.55846634         -4.57979577
     1          1.63483262          2.49477713         -6.29096155
     6          0.28955608          0.19645884         -2.94954522
     6         -0.52212637         -1.20968014         -0.73338313
     8         -1.91339136         -2.99434606         -0.77397277
     8          0.52683624         -0.21413553          1.34191745
     6         -0.13561358         -1.39948748          3.71101829
     6         -2.70252904         -0.51278889          4.62034474
     1          1.36898823         -0.82838309          4.99198261
     1         -0.08439057         -3.44371257          3.45691540
     1         -3.09438534         -1.32723059          6.47472009
     1         -2.73773841          1.54159929          4.78936419
     1         -4.18430277         -1.11368441          3.32157413

 Electric dipole moment (dipole orientation):
 (Debye = 10**-18 statcoulomb cm , SI units = C m)
                  (au)            (Debye)         (10**-30 SI)
   Tot        0.865531D+00      0.219996D+01      0.733828D+01
   x          0.000000D+00      0.000000D+00      0.000000D+00
   y          0.000000D+00      0.000000D+00      0.000000D+00
   z          0.865531D+00      0.219996D+01      0.733828D+01

 Dipole polarizability, Alpha (dipole orientation).
 (esu units = cm**3 , SI units = C**2 m**2 J**-1)
 Alpha(0;0):
               (au)            (10**-24 esu)      (10**-40 SI)
   iso        0.746516D+02      0.110622D+02      0.123084D+02
   aniso      0.423956D+02      0.628239D+01      0.699010D+01
   xx         0.659261D+02      0.976924D+01      0.108698D+02
   yx         0.205573D+02      0.304627D+01      0.338943D+01
   yy         0.761888D+02      0.112900D+02      0.125618D+02
   zx        -0.628512D+01     -0.931358D+00     -0.103628D+01
   zy        -0.848188D+01     -0.125689D+01     -0.139847D+01
   zz         0.818399D+02      0.121274D+02      0.134936D+02

 ----------------------------------------------------------------------
 1\1\GINC-AJ\Freq\UM062X\6-311++G(d,p)\C5H7O3(2)\AAYUSH\23-Jun-2025\0\\
 # freq 6-311++g(d,p) m062x\\Title Card Required\\0,2\O,2.784494,-1.431
 373,0.02464\H,1.864165,-1.678617,-0.166769\C,2.541725,0.62061,0.255975
 \H,3.590538,0.706248,0.427801\C,1.355443,0.78992,0.096353\C,-0.082087,
 0.784536,-0.120382\O,-0.78145,1.756349,-0.091048\O,-0.498457,-0.464589
 ,-0.361277\C,-1.917058,-0.631451,-0.579844\C,-2.670747,-0.651087,0.734
 845\H,-1.99309,-1.582196,-1.104309\H,-2.264167,0.172067,-1.230143\H,-3
 .727092,-0.851346,0.545864\H,-2.281808,-1.435182,1.386099\H,-2.588898,
 0.310766,1.241254\\Version=ES64L-G16RevA.03\State=2-A\HF=-420.2052134\
 S2=0.76668\S2-1=0.\S2A=0.750121\RMSD=9.273e-09\RMSF=1.769e-03\ZeroPoin
 t=0.1118894\Thermal=0.1208024\Dipole=-0.6910551,-0.5138188,-0.0870479\
 DipoleDeriv=-0.2167423,-0.1746219,0.0116691,-0.0906425,0.143563,0.0629
 032,0.0262991,0.0437051,-0.4061863,0.1428412,0.0404262,-0.0282248,-0.1
 132325,0.3513426,-0.0090956,-0.0502614,0.0145217,0.3131911,-0.3226247,
 0.5294881,0.0405043,0.2853985,-0.7006607,-0.0479832,-0.0021734,-0.0025
 763,-0.054953,0.2906417,0.0045561,0.0131071,-0.0503654,0.2671139,0.002
 6054,0.0075751,0.0098295,0.1994469,-0.5389777,-0.4049475,-0.1053572,-0
 .0441094,-0.1420521,-0.006606,-0.0744574,-0.0677473,-0.1220571,2.14024
 29,-0.2815306,0.1720962,0.4820543,1.8157509,0.1521984,0.3054377,0.1367
 963,0.434879,-0.9703873,0.4758276,-0.0225509,0.090018,-1.0249282,-0.02
 88071,-0.0658926,-0.0038657,-0.3484716,-1.4127472,-0.3424175,-0.067475
 ,-0.6990974,-1.0621604,-0.1234071,-0.2024055,-0.1576736,-0.3642597,0.9
 600296,0.242555,-0.0052236,0.1690746,0.3192448,0.0047995,0.017398,0.06
 12552,0.3460336,-0.0760387,-0.0472851,0.0246617,-0.0223382,0.0167531,-
 0.0179834,0.0595447,-0.0375238,-0.0713284,-0.0104849,0.0032299,0.02780
 58,-0.0441968,-0.0422337,-0.0891677,0.0008544,-0.0635065,0.0151988,-0.
 0286157,-0.0435281,0.0048299,0.0407502,0.0054587,0.0941205,-0.0064936,
 0.0344975,-0.0106341,-0.1081132,-0.0457992,-0.0162747,-0.0436063,0.088
 5862,-0.0024203,-0.0244289,0.0039235,0.0557539,0.0490383,0.071558,-0.0
 394137,0.041277,-0.0083499,0.078122,0.008003,0.0553261,-0.0077823,0.10
 19379,-0.0275111,-0.0101541,-0.0009842,-0.0274282,-0.0692786,0.0010008
 ,-0.0269618,0.0211693\Polar=95.4808183,-8.1810515,78.2541094,2.6151233
 ,1.8684487,50.219924\Quadrupole=3.2633735,-3.389782,0.1264084,6.712071
 6,1.2346315,0.7759449\PG=C01 [X(C5H7O3)]\NImag=2\\0.47462968,0.1196052
 2,0.02782661,0.09763347,0.02439567,0.01993749,-0.46494112,-0.12352078,
 -0.09628321,0.46220784,-0.11156949,-0.04404538,-0.02488544,0.11795536,
 0.05141207,-0.09464868,-0.02702860,-0.02156359,0.09501326,0.02699485,0
 .02181857,-0.00156465,-0.04459292,-0.00585186,-0.00107049,-0.00536324,
 -0.00090167,1.42285818,-0.01281556,0.05582867,0.00540929,0.00483603,-0
 .00200310,0.00062611,-0.01964535,-0.02106691,-0.00181219,0.00082096,-0
 .00196816,0.00053758,-0.00123850,0.00002417,0.20557172,-0.01436938,0.0
 9419725,0.00047628,0.00095300,0.00001551,0.00014863,-0.00055401,-0.000
 11291,-0.40693104,-0.02483813,-0.06083789,0.39842284,-0.00354302,-0.01
 683553,-0.00294555,0.00007874,-0.00112513,-0.00015773,-0.04337734,-0.0
 1296943,-0.00409508,0.02792030,0.02553935,-0.00058051,-0.00222876,0.00
 081321,-0.00002564,-0.00026891,0.00029305,-0.06326530,-0.00128285,-0.0
 4114187,0.06200111,0.00521255,0.02803414,-0.00742813,0.04847924,0.0047
 1977,0.00199199,-0.00018972,0.00045122,-1.01297555,0.05341665,-0.14289
 962,0.00812154,0.01890077,0.00253442,1.35671043,0.00825095,-0.02399636
 ,-0.00220858,0.00104672,-0.00319679,-0.00022564,0.10135441,-0.02066082
 ,0.01730543,-0.00328997,0.00056531,-0.00151645,-0.10222556,0.12129787,
 -0.00047847,0.00397767,0.00309767,0.00056433,-0.00041623,-0.00044392,-
 0.13650390,0.01000665,-0.05413698,-0.00038847,0.00186354,0.00804761,0.
 18498759,-0.00682427,0.08478375,-0.00206963,-0.00081969,-0.00028877,0.
 00409601,0.00316792,0.00090726,0.00825699,-0.00499163,0.00028962,-0.00
 126991,0.00087798,-0.00097329,-0.26184707,-0.00152867,-0.02885211,0.77
 343389,-0.00317798,0.00363078,0.00016075,0.00490434,-0.00140443,0.0003
 6472,0.01684210,-0.00371104,0.00193106,-0.00054942,0.00559646,-0.00012
 054,-0.02999167,-0.05335635,-0.00238222,-0.22681333,0.83361711,-0.0006
 0131,0.00049737,-0.00088796,0.00113327,0.00010805,0.00113876,0.0029237
 4,-0.00148342,0.00240900,-0.00116113,0.00010554,0.00569628,-0.03270133
 ,0.00231250,-0.07626399,0.05431296,0.05248306,0.22434838,0.00040081,-0
 .00042628,0.00000154,-0.00086571,-0.00147271,-0.00033637,-0.00669032,0
 .00201213,-0.00083633,0.00063172,-0.00167843,0.00004521,-0.04609866,0.
 04291030,-0.00435211,-0.34943383,0.32639553,0.00419788,0.37167785,0.00
 099060,-0.00106300,-0.00000082,-0.00151166,0.00073532,-0.00011590,-0.0
 0306971,0.00228903,-0.00022638,-0.00000806,-0.00047559,0.00009903,0.03
 948016,-0.00576432,0.00213774,0.31417007,-0.52554472,-0.01452431,-0.37
 857110,0.63811368,0.00019254,-0.00023047,0.00004625,-0.00033303,-0.000
 09669,-0.00011510,-0.00146478,0.00052906,0.00037278,0.00026774,-0.0001
 5348,-0.00112764,-0.00487669,0.00260617,0.02123227,0.00218582,-0.01093
 352,-0.08122657,-0.00116948,0.02677168,0.03794917,0.00015693,0.0001369
 9,-0.00008178,-0.00084377,-0.00254258,-0.00026495,-0.00322447,0.003138
 66,-0.00007123,0.00064176,0.00068896,0.00028926,-0.04020372,-0.0460646
 9,-0.01482576,-0.14064312,-0.06514595,-0.01846797,0.03197950,0.0180024
 6,0.00133560,0.42528019,0.00194317,-0.00122886,0.00003792,-0.00313226,
 -0.00118943,-0.00047550,-0.00202865,0.00225348,-0.00013332,0.00045818,
 -0.00050953,0.00008679,-0.02603982,-0.01061414,-0.00699332,-0.03632448
 ,-0.25214762,-0.02973772,0.01547167,-0.10789469,-0.01850137,0.08441951
 ,0.45491300,0.00024993,-0.00026072,0.00056030,-0.00047727,-0.00035743,
 -0.00118040,-0.00069037,0.00070004,0.00037924,0.00023223,0.00006860,-0
 .00041701,-0.01130952,-0.00969205,0.00868393,-0.01577684,-0.03599281,-
 0.07351258,0.00193562,-0.01697612,0.02774003,0.06007102,0.06338468,0.1
 0064767,0.00035222,0.00018983,0.00012358,-0.00093189,0.00126274,-0.000
 01195,0.00216613,-0.00162167,0.00007815,-0.00037747,0.00010511,-0.0000
 6710,0.00358184,0.00161335,0.00095549,-0.02390965,-0.04485222,-0.01172
 412,-0.00674543,0.01847033,0.00212985,-0.18104169,-0.00464818,-0.02246
 596,0.42817723,0.00027088,-0.00007995,0.00000986,-0.00058801,0.0009532
 7,0.00009075,0.00014950,-0.00006933,0.00005331,-0.00013664,0.00021703,
 0.00002199,-0.00190796,-0.00410388,-0.00150468,-0.04600698,-0.00885115
 ,-0.00980875,-0.00084623,0.00168927,0.00048896,0.01711842,-0.09015090,
 0.00038476,-0.02142156,0.65829892,-0.00000073,0.00006777,-0.00006197,-
 0.00006137,0.00028183,0.00009002,0.00031351,-0.00014208,-0.00020036,-0
 .00003899,0.00010816,-0.00020859,-0.00108168,-0.00188224,0.00547408,-0
 .01060806,-0.01205606,-0.00320678,-0.00263842,0.00320284,-0.00542036,-
 0.01974622,-0.00195755,-0.06916653,0.02167507,0.00541695,0.55506444,-0
 .00001376,-0.00001738,0.00001258,0.00008615,-0.00029473,-0.00000710,-0
 .00036788,0.00025918,0.00004720,0.00006970,-0.00002014,0.00007328,-0.0
 0042023,-0.00035018,-0.00175288,-0.00016364,0.00677111,0.00295356,0.00
 080976,-0.00264507,0.00127447,-0.04206526,-0.00822577,0.03094061,-0.09
 493113,0.00126525,0.04541430,0.56055531,-0.00004200,0.00001088,0.00006
 401,0.00003216,-0.00002777,-0.00010656,0.00001304,-0.00002585,-0.00004
 304,0.00000944,0.00001624,0.00001352,0.00000863,-0.00007980,-0.0000838
 0,-0.00193446,0.00245485,0.00185956,0.00114918,0.00002019,-0.00079329,
 -0.00618518,0.00072837,0.00531747,0.00161190,-0.08601104,-0.00164239,-
 0.00112011,0.58989091,0.00004442,-0.00001575,-0.00004072,-0.00000177,-
 0.00014858,0.00005380,-0.00027035,0.00006207,0.00005840,0.00003141,-0.
 00001272,0.00001737,0.00022606,0.00003351,-0.00067160,-0.00125800,0.00
 485444,0.00179339,0.00216068,-0.00132035,-0.00091999,-0.00361265,-0.00
 284243,0.01003998,0.05741182,0.00085738,-0.19526228,0.04399743,0.00339
 467,0.51946725,0.00009094,-0.00006505,0.00004010,-0.00013553,-0.000155
 96,-0.00011304,-0.00046628,0.00031705,-0.00004163,0.00003825,0.0000253
 5,-0.00001534,-0.00094076,-0.00144633,0.00016819,-0.00576935,0.0049514
 7,-0.00208479,0.00236719,-0.00107896,0.00039289,-0.02009638,-0.0406340
 0,-0.01910135,-0.04490625,-0.00229270,-0.00374382,0.00238512,0.0157873
 6,0.00778535,0.06524011,0.00000209,-0.00002981,0.00003795,0.00000064,-
 0.00006727,-0.00007165,-0.00015696,0.00011381,0.00003453,0.00002895,-0
 .00002441,0.00000253,-0.00011600,-0.00007983,-0.00026327,0.00115208,0.
 00032461,-0.00015008,-0.00152427,0.00027834,-0.00043175,-0.00321694,-0
 .00237290,-0.00024376,-0.01468960,-0.26740585,-0.11411960,0.00110129,0
 .00370757,0.00207807,0.01826602,0.28138312,0.00005145,0.00000086,-0.00
 003606,-0.00009802,-0.00009071,0.00004947,-0.00007539,0.00006695,0.000
 00385,0.00000768,-0.00000397,-0.00000862,-0.00024196,-0.00022176,0.000
 08159,-0.00066382,0.00301449,0.00007411,0.00130257,-0.00002307,0.00060
 247,-0.00425203,-0.00642759,-0.00173170,-0.00862749,-0.11244378,-0.113
 59623,-0.00035611,-0.02612953,-0.01412392,0.00820153,0.12452318,0.1198
 2603,-0.00010844,0.00006114,0.00001986,0.00025203,-0.00026035,-0.00005
 534,-0.00004151,-0.00000752,-0.00003808,0.00004543,0.00001387,-0.00001
 399,-0.00043749,-0.00020292,0.00055785,0.00035991,0.00861924,0.0001964
 6,0.00189401,-0.00292900,0.00006803,-0.03203556,0.01990650,-0.02478585
 ,-0.07178333,0.05455121,-0.04488156,0.00772522,-0.01358115,0.01116118,
 0.00245014,-0.00116347,0.00232282,0.09259516,0.00002887,0.00001248,-0.
 00001987,-0.00004532,-0.00001379,0.00002411,0.00004856,-0.00005033,-0.
 00007211,0.00000171,0.00002599,-0.00003387,0.00016484,-0.00014433,0.00
 085507,-0.00217321,0.00108394,-0.00111471,-0.00117633,-0.00172804,-0.0
 0126333,-0.00139407,0.00647150,-0.00587963,0.06457897,-0.20558227,0.12
 286095,-0.00089501,0.00162761,-0.00134371,0.00768868,-0.01775490,0.016
 41023,-0.06596041,0.21441867,-0.00001601,0.00002312,0.00002386,0.00001
 643,-0.00000637,-0.00003511,0.00014788,-0.00006838,0.00003616,-0.00000
 889,0.00002663,-0.00000218,0.00004629,-0.00020829,-0.00006787,-0.00151
 690,0.00402923,0.00101501,0.00205566,-0.00105338,0.00003890,-0.0064188
 9,0.00031335,-0.00222419,-0.04851810,0.11682925,-0.14592542,-0.0077098
 5,0.02202374,-0.01715545,0.00605557,-0.01146877,0.01128747,0.05321732,
 -0.12993393,0.15534138,-0.00001855,-0.00000788,0.00000653,0.00004561,-
 0.00008420,-0.00001985,-0.00011023,0.00006579,0.00000026,0.00003633,-0
 .00000965,0.00001009,-0.00017355,-0.00002803,-0.00023601,0.00068686,0.
 00254074,0.00049762,0.00036892,-0.00073506,0.00003840,-0.00227275,-0.0
 0173394,0.00365582,-0.01451017,-0.00265785,-0.00646466,-0.30140445,-0.
 04868302,-0.04563394,0.00031891,0.00047923,0.00006980,0.00036897,-0.00
 032320,0.00022153,0.32696890,0.00001688,-0.00001264,-0.00001434,-0.000
 01282,-0.00001785,0.00002381,-0.00007410,0.00003051,0.00002352,0.00000
 971,-0.00000784,0.00000504,0.00000331,0.00007438,-0.00018726,0.0007971
 3,-0.00074055,-0.00042406,-0.00062764,0.00004667,0.00063061,0.00065679
 ,0.00146774,0.00009500,-0.00016490,-0.00228469,-0.00018977,-0.04917242
 ,-0.05489899,-0.00889240,-0.00007460,0.00001150,0.00021920,0.00010161,
 -0.00003278,0.00004638,0.05347147,0.05507702,-0.00000807,-0.00000083,0
 .00004177,-0.00002388,0.00008878,-0.00004857,0.00013870,-0.00006117,-0
 .00001863,-0.00001621,0.00000174,-0.00001870,0.00012266,0.00020359,0.0
 0043989,0.00044238,-0.00308498,-0.00116041,-0.00082668,0.00101994,0.00
 019932,0.00763891,0.00231280,-0.00504731,0.02547095,0.00530914,0.00901
 532,-0.04784406,-0.00901938,-0.05673403,-0.00062790,-0.00072853,0.0009
 7277,-0.00095107,0.00061267,0.00076388,0.04925423,0.00972788,0.0581110
 2,0.00004804,-0.00000479,-0.00005071,-0.00005409,0.00002143,0.00007086
 ,0.00000166,-0.00000775,0.00000283,-0.00001784,-0.00000233,-0.00000239
 ,0.00007089,0.00001361,0.00004085,-0.00011340,-0.00131891,-0.00025392,
 -0.00038487,0.00039451,0.00003519,0.00281065,0.00069736,-0.00080464,0.
 00463400,-0.01421567,0.01240486,-0.08283345,0.07227372,-0.05996807,0.0
 0042479,0.00015716,-0.00099974,-0.00149249,-0.00012283,0.00337747,-0.0
 0952958,0.02348495,-0.01819145,0.08619190,0.00002983,-0.00001002,-0.00
 006371,-0.00002690,0.00000826,0.00008241,-0.00007166,0.00002759,-0.000
 00479,-0.00000448,-0.00001307,0.00001171,-0.00005922,0.00004831,-0.000
 11088,0.00044530,-0.00117507,0.00023054,-0.00082311,0.00033873,0.00032
 002,-0.00040122,0.00016674,-0.00041291,-0.00090601,0.00078230,-0.00077
 343,0.07191802,-0.19172743,0.11580163,-0.00062654,0.00063915,0.0001040
 3,0.00048571,0.00113824,-0.00037142,-0.00228361,0.00501307,-0.00539377
 ,-0.07850718,0.20272695,-0.00004489,0.00001074,0.00002797,0.00006359,0
 .00006613,-0.00004703,0.00009086,-0.00006566,-0.00000421,-0.00000629,0
 .00001056,0.00000581,0.00000286,0.00004742,-0.00004328,0.00000219,0.00
 028841,0.00000031,-0.00004911,-0.00020622,0.00020514,-0.00112935,-0.00
 128351,0.00275072,-0.01224070,0.02310641,-0.02047783,-0.05718174,0.114
 31136,-0.14156454,-0.00044832,-0.00030896,0.00092754,0.00375384,-0.001
 00470,-0.00411986,-0.00119683,0.00260089,-0.00337305,0.06150868,-0.127
 03150,0.15551334,-0.00001063,0.00002932,-0.00001662,0.00001433,0.00007
 953,0.00002926,0.00015946,-0.00011788,0.00000962,-0.00003622,0.0000198
 4,-0.00000981,0.00004847,-0.00005299,0.00011544,-0.00161404,0.00082494
 ,0.00077908,0.00008907,-0.00095951,-0.00007654,0.00155769,-0.00012929,
 -0.00167343,0.00022558,0.01671835,0.00945778,-0.04943145,-0.01933949,-
 0.01207357,-0.00100089,-0.00032020,0.00335869,0.00020794,-0.00042125,-
 0.00094952,-0.00077523,-0.02841538,-0.01457852,0.00024380,0.01083105,0
 .00687519,0.05032211,0.00000957,-0.00000785,0.00002286,-0.00001624,-0.
 00001798,-0.00002518,-0.00002769,0.00001373,0.00001378,-0.00000059,0.0
 0000015,-0.00000179,0.00007636,0.00001077,-0.00007474,-0.00001802,0.00
 022318,-0.00035356,-0.00079270,-0.00104087,0.00105740,0.00078885,0.000
 10727,-0.00013511,0.00047190,0.00259828,0.00082462,-0.01857405,-0.2656
 8574,-0.11250585,-0.00066180,0.00127688,0.00100149,0.00036556,0.000528
 02,-0.00018115,-0.00001082,-0.00372556,-0.00098787,-0.00286328,-0.0179
 6375,-0.01054136,0.02125297,0.28368348,0.00001904,-0.00002900,0.000009
 93,-0.00002428,-0.00003078,-0.00003411,-0.00016278,0.00007275,-0.00001
 064,0.00001510,-0.00002877,0.00001716,0.00001994,0.00027066,-0.0002131
 4,0.00179755,-0.00255603,-0.00021695,-0.00149067,0.00121533,0.00042333
 ,-0.00046397,0.00221679,0.00247787,-0.00418949,-0.02881155,-0.01611750
 ,-0.00986168,-0.10916633,-0.10495766,0.00353255,0.00111010,-0.00432877
 ,-0.00057146,-0.00009717,0.00102341,-0.00020300,-0.00366449,-0.0031432
 7,0.00283018,0.01761206,0.01019895,0.00875295,0.12188643,0.11487137\\-
 0.00061807,0.00809328,0.00096625,-0.00003569,0.00013469,0.00001716,-0.
 00066731,-0.00844788,-0.00122127,0.00027728,0.00004819,0.00005205,0.00
 075698,0.00004010,0.00012053,-0.00003193,-0.00000104,-0.00000311,0.000
 14195,0.00007287,0.00002852,0.00013126,0.00007099,0.00003697,0.0000090
 9,-0.00001236,0.00000755,0.00002081,0.00000848,0.00000098,0.00001286,-
 0.00000326,0.00000294,0.00000100,-0.00000263,-0.00000468,0.00000260,-0
 .00000283,-0.00000280,0.00000277,0.00000094,0.00000037,-0.00000360,0.0
 0000045,-0.00000146\\\@


 WHEN YOU REACH FOR THE STARS, YOU MAY NOT QUITE GET ONE,
 BUT YOU WON'T COME UP WITH A HANDFUL OF MUD, EITHER.

                                         -- LEO BURNETT (AD AGENCY HEAD)
 Job cpu time:       0 days  0 hours 57 minutes 47.1 seconds.
 Elapsed time:       0 days  0 hours  2 minutes 24.8 seconds.
 File lengths (MBytes):  RWF=    153 Int=      0 D2E=      0 Chk=      9 Scr=      1
 Normal termination of Gaussian 16 at Mon Jun 23 06:17:21 2025.
