 Entering Gaussian System, Link 0=g16
 Initial command:
 /opt/g16/l1.exe "/home/aayush/scratches/g16/Gau-86482.inp" -scrdir="/home/aayush/scratches/g16/"
 Entering Link 1 = /opt/g16/l1.exe PID=     86485.
  
 Copyright (c) 1988,1990,1992,1993,1995,1998,2003,2009,2016,
            Gaussian, Inc.  All Rights Reserved.
  
 This is part of the Gaussian(R) 16 program.  It is based on
 the Gaussian(R) 09 system (copyright 2009, Gaussian, Inc.),
 the Gaussian(R) 03 system (copyright 2003, Gaussian, Inc.),
 the Gaussian(R) 98 system (copyright 1998, Gaussian, Inc.),
 the Gaussian(R) 94 system (copyright 1995, Gaussian, Inc.),
 the Gaussian 92(TM) system (copyright 1992, Gaussian, Inc.),
 the Gaussian 90(TM) system (copyright 1990, Gaussian, Inc.),
 the Gaussian 88(TM) system (copyright 1988, Gaussian, Inc.),
 the Gaussian 86(TM) system (copyright 1986, Carnegie Mellon
 University), and the Gaussian 82(TM) system (copyright 1983,
 Carnegie Mellon University). Gaussian is a federally registered
 trademark of Gaussian, Inc.
  
 This software contains proprietary and confidential information,
 including trade secrets, belonging to Gaussian, Inc.
  
 This software is provided under written license and may be
 used, copied, transmitted, or stored only in accord with that
 written license.
  
 The following legend is applicable only to US Government
 contracts under FAR:
  
                    RESTRICTED RIGHTS LEGEND
  
 Use, reproduction and disclosure by the US Government is
 subject to restrictions as set forth in subparagraphs (a)
 and (c) of the Commercial Computer Software - Restricted
 Rights clause in FAR 52.227-19.
  
 Gaussian, Inc.
 340 Quinnipiac St., Bldg. 40, Wallingford CT 06492
  
  
 ---------------------------------------------------------------
 Warning -- This program may not be used in any manner that
 competes with the business of Gaussian, Inc. or will provide
 assistance to any competitor of Gaussian, Inc.  The licensee
 of this program is prohibited from giving any competitor of
 Gaussian, Inc. access to this program.  By using this program,
 the user acknowledges that Gaussian, Inc. is engaged in the
 business of creating and licensing software in the field of
 computational chemistry and represents and warrants to the
 licensee that it is not a competitor of Gaussian, Inc. and that
 it will not use this program in any manner prohibited above.
 ---------------------------------------------------------------
  

 Cite this work as:
 Gaussian 16, Revision A.03,
 M. J. Frisch, G. W. Trucks, H. B. Schlegel, G. E. Scuseria, 
 M. A. Robb, J. R. Cheeseman, G. Scalmani, V. Barone, 
 G. A. Petersson, H. Nakatsuji, X. Li, M. Caricato, A. V. Marenich, 
 J. Bloino, B. G. Janesko, R. Gomperts, B. Mennucci, H. P. Hratchian, 
 J. V. Ortiz, A. F. Izmaylov, J. L. Sonnenberg, D. Williams-Young, 
 F. Ding, F. Lipparini, F. Egidi, J. Goings, B. Peng, A. Petrone, 
 T. Henderson, D. Ranasinghe, V. G. Zakrzewski, J. Gao, N. Rega, 
 G. Zheng, W. Liang, M. Hada, M. Ehara, K. Toyota, R. Fukuda, 
 J. Hasegawa, M. Ishida, T. Nakajima, Y. Honda, O. Kitao, H. Nakai, 
 T. Vreven, K. Throssell, J. A. Montgomery, Jr., J. E. Peralta, 
 F. Ogliaro, M. J. Bearpark, J. J. Heyd, E. N. Brothers, K. N. Kudin, 
 V. N. Staroverov, T. A. Keith, R. Kobayashi, J. Normand, 
 K. Raghavachari, A. P. Rendell, J. C. Burant, S. S. Iyengar, 
 J. Tomasi, M. Cossi, J. M. Millam, M. Klene, C. Adamo, R. Cammi, 
 J. W. Ochterski, R. L. Martin, K. Morokuma, O. Farkas, 
 J. B. Foresman, and D. J. Fox, Gaussian, Inc., Wallingford CT, 2016.
 
 ******************************************
 Gaussian 16:  ES64L-G16RevA.03 25-Dec-2016
                20-Jun-2025 
 ******************************************
 %nprocshared=24
 Will use up to   24 processors via shared memory.
 %mem=12GB
 %chk=ethyl_propiolate_ts1.chk
 -------------------
 # freq 6-31+g m062x
 -------------------
 1/10=4,30=1,38=1/1,3;
 2/12=2,17=6,18=5,40=1/2;
 3/5=1,6=6,7=10,11=2,25=1,30=1,71=2,74=-55,140=1/1,2,3;
 4//1;
 5/5=2,38=5,98=1/2;
 8/6=4,10=90,11=11/1;
 11/6=1,8=1,9=11,15=111,16=1/1,2,10;
 10/6=1/2;
 6/7=2,8=2,9=2,10=2,28=1/1;
 7/8=1,10=1,25=1/1,2,3,16;
 1/10=4,30=1/3;
 99//99;
 -------------------
 Title Card Required
 -------------------
 Symbolic Z-matrix:
 Charge =  0 Multiplicity = 2
 O                     2.72952  -1.59089   0.01651 
 H                     1.78731  -1.74939  -0.16883 
 C                     2.47677   0.72987   0.28621 
 H                     3.52957   0.73096   0.44692 
 C                     1.28981   0.76425   0.10894 
 C                    -0.1469    0.74802  -0.10953 
 O                    -0.84955   1.71733  -0.07903 
 O                    -0.56216  -0.50188  -0.35301 
 C                    -1.98098  -0.66734  -0.57174 
 C                    -2.73512  -0.68896   0.74284 
 H                    -2.05843  -1.61682  -1.09835 
 H                    -2.32748   0.13796  -1.22011 
 H                    -3.79172  -0.88733   0.55329 
 H                    -2.34742  -1.47502   1.3925 
 H                    -2.6519    0.27165   1.25135 
 

 GradGradGradGradGradGradGradGradGradGradGradGradGradGradGradGradGradGrad
 Berny optimization.
 Initialization pass.
 Trust Radius=3.00D-01 FncErr=1.00D-07 GrdErr=1.00D-07 EigMax=2.50D+02 EigMin=1.00D-04
 Number of steps in this run=      2 maximum allowed number of steps=      2.
 GradGradGradGradGradGradGradGradGradGradGradGradGradGradGradGradGradGrad

                          Input orientation:                          
 ---------------------------------------------------------------------
 Center     Atomic      Atomic             Coordinates (Angstroms)
 Number     Number       Type             X           Y           Z
 ---------------------------------------------------------------------
      1          8           0        2.729524   -1.590893    0.016514
      2          1           0        1.787306   -1.749392   -0.168830
      3          6           0        2.476768    0.729867    0.286208
      4          1           0        3.529574    0.730959    0.446923
      5          6           0        1.289812    0.764253    0.108940
      6          6           0       -0.146897    0.748022   -0.109525
      7          8           0       -0.849551    1.717331   -0.079033
      8          8           0       -0.562161   -0.501875   -0.353013
      9          6           0       -1.980977   -0.667338   -0.571741
     10          6           0       -2.735115   -0.688957    0.742841
     11          1           0       -2.058425   -1.616824   -1.098348
     12          1           0       -2.327478    0.137960   -1.220107
     13          1           0       -3.791724   -0.887325    0.553288
     14          1           0       -2.347420   -1.475019    1.392500
     15          1           0       -2.651904    0.271646    1.251347
 ---------------------------------------------------------------------
                    Distance matrix (angstroms):
                    1          2          3          4          5
     1  O    0.000000
     2  H    0.973267   0.000000
     3  C    2.350010   2.613263   0.000000
     4  H    2.493257   3.093023   1.065003   0.000000
     5  C    2.761888   2.577415   1.200613   2.265364   0.000000
     6  C    3.709475   3.159388   2.653404   3.718382   1.453315
     7  O    4.874757   4.356518   3.488966   4.519546   2.349588
     8  O    3.486789   2.666499   3.340791   4.347651   2.290477
     9  C    4.836095   3.941210   4.749710   5.775732   3.634672
    10  C    5.585993   4.733704   5.420821   6.430401   4.325932
    11  H    4.916101   3.958690   5.290740   6.255052   4.282261
    12  H    5.485566   4.647443   5.069528   6.118472   3.904279
    13  H    6.581019   5.691238   6.479246   7.498771   5.361638
    14  H    5.261380   4.428204   5.418320   6.348190   4.459969
    15  H    5.826974   5.080166   5.238772   6.250499   4.133386
                    6          7          8          9         10
     6  C    0.000000
     7  O    1.197586   0.000000
     8  O    1.339393   2.254447   0.000000
     9  C    2.362358   2.685057   1.445081   0.000000
    10  C    3.080634   3.165604   2.440825   1.515690   0.000000
    11  H    3.197531   3.690118   2.009339   1.088502   2.169982
    12  H    2.522003   2.445553   2.068232   1.090388   2.168669
    13  H    4.049499   3.980006   3.376393   2.143103   1.091651
    14  H    3.469912   3.821010   2.679734   2.155196   1.090989
    15  H    2.890323   2.666157   2.745784   2.157657   1.090074
                   11         12         13         14         15
    11  H    0.000000
    12  H    1.779461   0.000000
    13  H    2.502877   2.517967   0.000000
    14  H    2.511563   3.070475   1.770784   0.000000
    15  H    3.072394   2.496239   1.769093   1.778616   0.000000
 Stoichiometry    C5H7O3(2)
 Framework group  C1[X(C5H7O3)]
 Deg. of freedom    39
 Full point group                 C1      NOp   1
 Largest Abelian subgroup         C1      NOp   1
 Largest concise Abelian subgroup C1      NOp   1
                         Standard orientation:                         
 ---------------------------------------------------------------------
 Center     Atomic      Atomic             Coordinates (Angstroms)
 Number     Number       Type             X           Y           Z
 ---------------------------------------------------------------------
      1          8           0        2.797090   -1.546730    0.024586
      2          1           0        1.855245   -1.709571   -0.158878
      3          6           0        2.538813    0.776337    0.267901
      4          1           0        3.591620    0.781765    0.428519
      5          6           0        1.351770    0.805876    0.090336
      6          6           0       -0.084905    0.783738   -0.127829
      7          8           0       -0.789867    1.751653   -0.108308
      8          8           0       -0.497198   -0.469833   -0.357065
      9          6           0       -1.915625   -0.641153   -0.573799
     10          6           0       -2.669653   -0.649626    0.740997
     11          1           0       -1.990831   -1.596746   -1.089574
     12          1           0       -2.264073    0.155894   -1.231252
     13          1           0       -3.725794   -0.852654    0.553785
     14          1           0       -2.280056   -1.427326    1.399521
     15          1           0       -2.588711    0.316891    1.238545
 ---------------------------------------------------------------------
 Rotational constants (GHZ):           3.3121604           1.1484301           0.9167016
 Standard basis: 6-31+G (6D, 7F)
 There are   118 symmetry adapted cartesian basis functions of A   symmetry.
 There are   118 symmetry adapted basis functions of A   symmetry.
   118 basis functions,   236 primitive gaussians,   118 cartesian basis functions
    31 alpha electrons       30 beta electrons
       nuclear repulsion energy       348.6279753785 Hartrees.
 NAtoms=   15 NActive=   15 NUniq=   15 SFac= 1.00D+00 NAtFMM=   60 NAOKFM=F Big=F
 Integral buffers will be    131072 words long.
 Raffenetti 2 integral format.
 Two-electron integral symmetry is turned on.
 One-electron integrals computed using PRISM.
 NBasis=   118 RedAO= T EigKep=  1.51D-06  NBF=   118
 NBsUse=   118 1.00D-06 EigRej= -1.00D+00 NBFU=   118
 ExpMin= 4.38D-02 ExpMax= 5.48D+03 ExpMxC= 8.25D+02 IAcc=3 IRadAn=         5 AccDes= 0.00D+00
 Harris functional with IExCor= 1009 and IRadAn=       5 diagonalized for initial guess.
 HarFok:  IExCor= 1009 AccDes= 0.00D+00 IRadAn=         5 IDoV= 1 UseB2=F ITyADJ=14
 ICtDFT=  3500011 ScaDFX=  1.000000  1.000000  1.000000  1.000000
 FoFCou: FMM=F IPFlag=           0 FMFlag=      100000 FMFlg1=           0
         NFxFlg=           0 DoJE=T BraDBF=F KetDBF=T FulRan=T
         wScrn=  0.000000 ICntrl=       500 IOpCl=  0 I1Cent=   200000004 NGrid=           0
         NMat0=    1 NMatS0=      1 NMatT0=    0 NMatD0=    1 NMtDS0=    0 NMtDT0=    0
 Petite list used in FoFCou.
 Initial guess <Sx>= 0.0000 <Sy>= 0.0000 <Sz>= 0.5000 <S**2>= 0.7500 S= 0.5000
 Requested convergence on RMS density matrix=1.00D-08 within 128 cycles.
 Requested convergence on MAX density matrix=1.00D-06.
 Requested convergence on             energy=1.00D-06.
 No special actions if energy rises.
 Restarting incremental Fock formation.
 SCF Done:  E(UM062X) =  -419.965160489     A.U. after   23 cycles
            NFock= 23  Conv=0.62D-08     -V/T= 2.0050
 <Sx>= 0.0000 <Sy>= 0.0000 <Sz>= 0.5000 <S**2>= 0.7556 S= 0.5028
 <L.S>=  0.00000000000    
 Annihilation of the first spin contaminant:
 S**2 before annihilation     0.7556,   after     0.7500
 DoSCS=F DFT=T ScalE2(SS,OS)=  1.000000  1.000000
 Range of M.O.s used for correlation:     1   118
 NBasis=   118 NAE=    31 NBE=    30 NFC=     0 NFV=     0
 NROrb=    118 NOA=    31 NOB=    30 NVA=    87 NVB=    88

 **** Warning!!: The largest alpha MO coefficient is  0.19172608D+03


 **** Warning!!: The largest beta MO coefficient is  0.22517276D+03

 Symmetrizing basis deriv contribution to polar:
 IMax=3 JMax=2 DiffMx= 0.00D+00
 G2DrvN: will do    16 centers at a time, making    1 passes.
 Calling FoFCou, ICntrl=  3107 FMM=F I1Cent=   0 AccDes= 0.00D+00.
 End of G2Drv F.D. properties file   721 does not exist.
 End of G2Drv F.D. properties file   722 does not exist.
 End of G2Drv F.D. properties file   788 does not exist.
          IDoAtm=111111111111111
          Differentiating once with respect to electric field.
                with respect to dipole field.
          Differentiating once with respect to nuclear coordinates.
 Keep R1 and R2 ints in memory in canonical form, NReq=71861342.
          There are    48 degrees of freedom in the 1st order CPHF.  IDoFFX=6 NUNeed=     3.
     45 vectors produced by pass  0 Test12= 1.11D-14 2.08D-09 XBig12= 9.84D+01 4.15D+00.
 AX will form    45 AO Fock derivatives at one time.
     45 vectors produced by pass  1 Test12= 1.11D-14 2.08D-09 XBig12= 2.22D+01 6.54D-01.
     45 vectors produced by pass  2 Test12= 1.11D-14 2.08D-09 XBig12= 5.99D-01 1.35D-01.
     45 vectors produced by pass  3 Test12= 1.11D-14 2.08D-09 XBig12= 3.38D-03 8.20D-03.
     45 vectors produced by pass  4 Test12= 1.11D-14 2.08D-09 XBig12= 2.22D-05 4.80D-04.
     45 vectors produced by pass  5 Test12= 1.11D-14 2.08D-09 XBig12= 1.22D-07 4.69D-05.
     33 vectors produced by pass  6 Test12= 1.11D-14 2.08D-09 XBig12= 6.70D-10 2.60D-06.
      9 vectors produced by pass  7 Test12= 1.11D-14 2.08D-09 XBig12= 3.86D-12 2.08D-07.
      3 vectors produced by pass  8 Test12= 1.11D-14 2.08D-09 XBig12= 3.48D-14 1.96D-08.
      1 vectors produced by pass  9 Test12= 1.11D-14 2.08D-09 XBig12= 8.25D-16 3.46D-09.
 InvSVY:  IOpt=1 It=  1 EMax= 7.11D-15
 Solved reduced A of dimension   316 with    48 vectors.
 Isotropic polarizability for W=    0.000000       66.90 Bohr**3.
 End of Minotr F.D. properties file   721 does not exist.
 End of Minotr F.D. properties file   722 does not exist.
 End of Minotr F.D. properties file   788 does not exist.

 **********************************************************************

            Population analysis using the SCF density.

 **********************************************************************

 Orbital symmetries:
 Alpha Orbitals:
       Occupied  (A) (A) (A) (A) (A) (A) (A) (A) (A) (A) (A) (A)
                 (A) (A) (A) (A) (A) (A) (A) (A) (A) (A) (A) (A)
                 (A) (A) (A) (A) (A) (A) (A)
       Virtual   (A) (A) (A) (A) (A) (A) (A) (A) (A) (A) (A) (A)
                 (A) (A) (A) (A) (A) (A) (A) (A) (A) (A) (A) (A)
                 (A) (A) (A) (A) (A) (A) (A) (A) (A) (A) (A) (A)
                 (A) (A) (A) (A) (A) (A) (A) (A) (A) (A) (A) (A)
                 (A) (A) (A) (A) (A) (A) (A) (A) (A) (A) (A) (A)
                 (A) (A) (A) (A) (A) (A) (A) (A) (A) (A) (A) (A)
                 (A) (A) (A) (A) (A) (A) (A) (A) (A) (A) (A) (A)
                 (A) (A) (A)
 Beta  Orbitals:
       Occupied  (A) (A) (A) (A) (A) (A) (A) (A) (A) (A) (A) (A)
                 (A) (A) (A) (A) (A) (A) (A) (A) (A) (A) (A) (A)
                 (A) (A) (A) (A) (A) (A)
       Virtual   (A) (A) (A) (A) (A) (A) (A) (A) (A) (A) (A) (A)
                 (A) (A) (A) (A) (A) (A) (A) (A) (A) (A) (A) (A)
                 (A) (A) (A) (A) (A) (A) (A) (A) (A) (A) (A) (A)
                 (A) (A) (A) (A) (A) (A) (A) (A) (A) (A) (A) (A)
                 (A) (A) (A) (A) (A) (A) (A) (A) (A) (A) (A) (A)
                 (A) (A) (A) (A) (A) (A) (A) (A) (A) (A) (A) (A)
                 (A) (A) (A) (A) (A) (A) (A) (A) (A) (A) (A) (A)
                 (A) (A) (A) (A)
 The electronic state is 2-A.
 Alpha  occ. eigenvalues --  -19.71922 -19.69590 -19.67348 -10.73932 -10.62558
 Alpha  occ. eigenvalues --  -10.59812 -10.59176 -10.55409  -1.28957  -1.19704
 Alpha  occ. eigenvalues --   -1.13766  -0.92194  -0.88554  -0.79490  -0.72027
 Alpha  occ. eigenvalues --   -0.65661  -0.62154  -0.59522  -0.57805  -0.55042
 Alpha  occ. eigenvalues --   -0.54210  -0.50552  -0.49497  -0.47972  -0.46316
 Alpha  occ. eigenvalues --   -0.43133  -0.42335  -0.40024  -0.39387  -0.37978
 Alpha  occ. eigenvalues --   -0.36181
 Alpha virt. eigenvalues --   -0.02405   0.01473   0.02586   0.03061   0.03845
 Alpha virt. eigenvalues --    0.04409   0.05153   0.06314   0.07157   0.07713
 Alpha virt. eigenvalues --    0.08417   0.08549   0.08812   0.11294   0.11986
 Alpha virt. eigenvalues --    0.12767   0.13950   0.15066   0.15940   0.17138
 Alpha virt. eigenvalues --    0.18170   0.18392   0.18813   0.20065   0.20285
 Alpha virt. eigenvalues --    0.20911   0.23331   0.23996   0.25163   0.25286
 Alpha virt. eigenvalues --    0.27685   0.27982   0.28285   0.29411   0.30610
 Alpha virt. eigenvalues --    0.31629   0.32199   0.33217   0.33654   0.36215
 Alpha virt. eigenvalues --    0.36370   0.37507   0.39132   0.42020   0.43751
 Alpha virt. eigenvalues --    0.49731   0.57744   0.60810   0.68315   0.69354
 Alpha virt. eigenvalues --    0.69974   0.72615   0.74937   0.76218   0.76852
 Alpha virt. eigenvalues --    0.78071   0.80692   0.84728   0.85651   0.91766
 Alpha virt. eigenvalues --    0.94683   0.96387   1.00567   1.08505   1.09325
 Alpha virt. eigenvalues --    1.10379   1.14318   1.16903   1.19333   1.20062
 Alpha virt. eigenvalues --    1.21233   1.21898   1.25765   1.27977   1.30542
 Alpha virt. eigenvalues --    1.35198   1.38266   1.39398   1.42459   1.45122
 Alpha virt. eigenvalues --    1.46491   1.62655   1.67958   1.70767   1.79596
 Alpha virt. eigenvalues --    1.99607   2.02062
  Beta  occ. eigenvalues --  -19.71920 -19.67947 -19.67335 -10.73940 -10.62557
  Beta  occ. eigenvalues --  -10.59815 -10.59083 -10.55409  -1.28938  -1.19676
  Beta  occ. eigenvalues --   -1.06320  -0.91976  -0.88384  -0.79444  -0.71930
  Beta  occ. eigenvalues --   -0.65634  -0.61955  -0.59475  -0.57751  -0.54964
  Beta  occ. eigenvalues --   -0.51104  -0.50436  -0.47938  -0.46346  -0.43101
  Beta  occ. eigenvalues --   -0.40417  -0.39505  -0.39473  -0.37734  -0.36974
  Beta virt. eigenvalues --   -0.08529  -0.02383   0.01520   0.02726   0.03079
  Beta virt. eigenvalues --    0.03998   0.04460   0.05407   0.06423   0.07242
  Beta virt. eigenvalues --    0.07800   0.08511   0.08609   0.08884   0.11279
  Beta virt. eigenvalues --    0.12080   0.12816   0.14076   0.15188   0.16159
  Beta virt. eigenvalues --    0.17266   0.18235   0.18510   0.18758   0.20297
  Beta virt. eigenvalues --    0.20593   0.21309   0.23450   0.24175   0.25195
  Beta virt. eigenvalues --    0.25407   0.27699   0.27913   0.28339   0.29425
  Beta virt. eigenvalues --    0.30642   0.31701   0.32236   0.33249   0.33827
  Beta virt. eigenvalues --    0.36224   0.36533   0.37888   0.39182   0.42038
  Beta virt. eigenvalues --    0.43818   0.50039   0.57783   0.60882   0.68331
  Beta virt. eigenvalues --    0.69390   0.69994   0.72640   0.74967   0.76233
  Beta virt. eigenvalues --    0.76928   0.78420   0.80712   0.84935   0.85793
  Beta virt. eigenvalues --    0.92010   0.95065   0.96611   1.01098   1.08615
  Beta virt. eigenvalues --    1.09500   1.10531   1.14374   1.17982   1.19917
  Beta virt. eigenvalues --    1.20209   1.22737   1.24295   1.26857   1.28614
  Beta virt. eigenvalues --    1.32106   1.35278   1.38824   1.39964   1.42572
  Beta virt. eigenvalues --    1.45389   1.46547   1.62988   1.68619   1.72366
  Beta virt. eigenvalues --    1.80405   1.99631   2.02068
          Condensed to atoms (all electrons):
               1          2          3          4          5          6
     1  O    8.341553   0.138428  -0.255588  -0.004422   0.087515   0.126714
     2  H    0.138428   0.415484   0.040923   0.000152   0.023900  -0.056445
     3  C   -0.255588   0.040923  25.999188   0.843692  -6.895724 -12.371605
     4  H   -0.004422   0.000152   0.843692   0.323490  -0.374620  -0.147858
     5  C    0.087515   0.023900  -6.895724  -0.374620  17.094547  -2.328525
     6  C    0.126714  -0.056445 -12.371605  -0.147858  -2.328525  18.766442
     7  O   -0.000648   0.000579  -0.129223  -0.000123   0.066382   0.236866
     8  O    0.018271   0.005968  -0.880601  -0.001245  -1.348232   1.545706
     9  C    0.002332   0.006153  -0.256223  -0.000564  -0.431674   0.403324
    10  C   -0.000161  -0.002040  -0.121349  -0.000220  -0.250402   0.203075
    11  H    0.000034  -0.000054   0.008486   0.000000   0.014242  -0.007848
    12  H   -0.000007   0.000004  -0.001090  -0.000000   0.005708  -0.004097
    13  H    0.000000  -0.000000   0.000401   0.000000   0.004129   0.003924
    14  H   -0.000012   0.000000   0.001871  -0.000000   0.008483  -0.003022
    15  H    0.000002  -0.000000   0.001749   0.000000  -0.008016   0.000685
               7          8          9         10         11         12
     1  O   -0.000648   0.018271   0.002332  -0.000161   0.000034  -0.000007
     2  H    0.000579   0.005968   0.006153  -0.002040  -0.000054   0.000004
     3  C   -0.129223  -0.880601  -0.256223  -0.121349   0.008486  -0.001090
     4  H   -0.000123  -0.001245  -0.000564  -0.000220   0.000000  -0.000000
     5  C    0.066382  -1.348232  -0.431674  -0.250402   0.014242   0.005708
     6  C    0.236866   1.545706   0.403324   0.203075  -0.007848  -0.004097
     7  O    8.455485  -0.237881  -0.007194  -0.037732  -0.000373   0.000485
     8  O   -0.237881   9.191001   0.053411   0.028511  -0.066501  -0.036645
     9  C   -0.007194   0.053411   5.879671  -0.059202   0.422510   0.421685
    10  C   -0.037732   0.028511  -0.059202   5.738220  -0.057868  -0.073303
    11  H   -0.000373  -0.066501   0.422510  -0.057868   0.499153  -0.031660
    12  H    0.000485  -0.036645   0.421685  -0.073303  -0.031660   0.484352
    13  H   -0.000212   0.006852  -0.074169   0.401278  -0.000762  -0.000785
    14  H   -0.000499  -0.002379  -0.052508   0.390597  -0.004460   0.003740
    15  H    0.001675  -0.008177  -0.046670   0.405855   0.003569  -0.004639
              13         14         15
     1  O    0.000000  -0.000012   0.000002
     2  H   -0.000000   0.000000  -0.000000
     3  C    0.000401   0.001871   0.001749
     4  H    0.000000  -0.000000   0.000000
     5  C    0.004129   0.008483  -0.008016
     6  C    0.003924  -0.003022   0.000685
     7  O   -0.000212  -0.000499   0.001675
     8  O    0.006852  -0.002379  -0.008177
     9  C   -0.074169  -0.052508  -0.046670
    10  C    0.401278   0.390597   0.405855
    11  H   -0.000762  -0.004460   0.003569
    12  H   -0.000785   0.003740  -0.004639
    13  H    0.495658  -0.025148  -0.022712
    14  H   -0.025148   0.490285  -0.026819
    15  H   -0.022712  -0.026819   0.465611
          Atomic-Atomic Spin Densities.
               1          2          3          4          5          6
     1  O    1.011727   0.000091  -0.257716  -0.000217   0.132243   0.062228
     2  H    0.000091  -0.035419   0.008410  -0.000038  -0.002091  -0.003893
     3  C   -0.257716   0.008410   1.808728   0.023081  -0.833328  -0.849635
     4  H   -0.000217  -0.000038   0.023081   0.003117  -0.016788  -0.004240
     5  C    0.132243  -0.002091  -0.833328  -0.016788   0.909688   0.029619
     6  C    0.062228  -0.003893  -0.849635  -0.004240   0.029619   0.740581
     7  O   -0.000061   0.000002   0.014665   0.000003  -0.010189  -0.006810
     8  O    0.006000  -0.001180  -0.056506  -0.000012  -0.008251   0.051496
     9  C    0.000389  -0.000832  -0.003003  -0.000008  -0.006656   0.007407
    10  C    0.000346   0.000018  -0.015337  -0.000000  -0.008747   0.021043
    11  H   -0.000000  -0.000005  -0.000688   0.000000  -0.000807   0.001173
    12  H    0.000002  -0.000001  -0.000705   0.000000  -0.001707   0.002386
    13  H   -0.000000  -0.000000   0.000039   0.000000   0.000161  -0.000177
    14  H    0.000001  -0.000000  -0.000088   0.000000  -0.000159   0.000244
    15  H   -0.000000  -0.000000  -0.000112   0.000000  -0.000162   0.000251
               7          8          9         10         11         12
     1  O   -0.000061   0.006000   0.000389   0.000346  -0.000000   0.000002
     2  H    0.000002  -0.001180  -0.000832   0.000018  -0.000005  -0.000001
     3  C    0.014665  -0.056506  -0.003003  -0.015337  -0.000688  -0.000705
     4  H    0.000003  -0.000012  -0.000008  -0.000000   0.000000   0.000000
     5  C   -0.010189  -0.008251  -0.006656  -0.008747  -0.000807  -0.001707
     6  C   -0.006810   0.051496   0.007407   0.021043   0.001173   0.002386
     7  O    0.007657  -0.001948   0.000435  -0.000267   0.000011   0.000031
     8  O   -0.001948   0.008996   0.000511   0.000232  -0.000081  -0.000516
     9  C    0.000435   0.000511   0.003459  -0.001554  -0.000401   0.000239
    10  C   -0.000267   0.000232  -0.001554   0.003863   0.000583   0.000114
    11  H    0.000011  -0.000081  -0.000401   0.000583   0.000265   0.000071
    12  H    0.000031  -0.000516   0.000239   0.000114   0.000071   0.000092
    13  H   -0.000001   0.000052   0.000049  -0.000104  -0.000011  -0.000005
    14  H    0.000001  -0.000065   0.000033   0.000016   0.000008   0.000002
    15  H    0.000000  -0.000005  -0.000033   0.000062   0.000000   0.000007
              13         14         15
     1  O   -0.000000   0.000001  -0.000000
     2  H   -0.000000  -0.000000  -0.000000
     3  C    0.000039  -0.000088  -0.000112
     4  H    0.000000   0.000000   0.000000
     5  C    0.000161  -0.000159  -0.000162
     6  C   -0.000177   0.000244   0.000251
     7  O   -0.000001   0.000001   0.000000
     8  O    0.000052  -0.000065  -0.000005
     9  C    0.000049   0.000033  -0.000033
    10  C   -0.000104   0.000016   0.000062
    11  H   -0.000011   0.000008   0.000000
    12  H   -0.000005   0.000002   0.000007
    13  H    0.000014  -0.000001  -0.000003
    14  H   -0.000001   0.000002   0.000007
    15  H   -0.000003   0.000007  -0.000010
 Mulliken charges and spin densities:
               1          2
     1  O   -0.454011   0.955034
     2  H    0.426949  -0.034938
     3  C    0.015093  -0.162196
     4  H    0.361719   0.004896
     5  C    0.332286   0.182826
     6  C   -0.367334   0.051674
     7  O   -0.347587   0.003528
     8  O   -0.268060  -0.001276
     9  C   -0.260883   0.000035
    10  C   -0.565259   0.000268
    11  H    0.221534   0.000120
    12  H    0.236253   0.000011
    13  H    0.211545   0.000014
    14  H    0.219870   0.000000
    15  H    0.237886   0.000003
 Sum of Mulliken charges =  -0.00000   1.00000
 Mulliken charges and spin densities with hydrogens summed into heavy atoms:
               1          2
     1  O   -0.027062   0.920096
     3  C    0.376812  -0.157300
     5  C    0.332286   0.182826
     6  C   -0.367334   0.051674
     7  O   -0.347587   0.003528
     8  O   -0.268060  -0.001276
     9  C    0.196903   0.000166
    10  C    0.104043   0.000285
 APT charges:
               1
     1  O   -0.281380
     2  H    0.303781
     3  C   -0.226944
     4  H    0.269760
     5  C   -0.323732
     6  C    1.435798
     7  O   -0.748834
     8  O   -0.949800
     9  C    0.505252
    10  C   -0.059611
    11  H   -0.002602
    12  H   -0.001893
    13  H    0.019074
    14  H    0.019720
    15  H    0.041411
 Sum of APT charges =   0.00000
 APT charges with hydrogens summed into heavy atoms:
               1
     1  O    0.022401
     3  C    0.042816
     5  C   -0.323732
     6  C    1.435798
     7  O   -0.748834
     8  O   -0.949800
     9  C    0.500758
    10  C    0.020593
 Electronic spatial extent (au):  <R**2>=           1248.7840
 Charge=             -0.0000 electrons
 Dipole moment (field-independent basis, Debye):
    X=             -1.8993    Y=             -1.5359    Z=             -0.2751  Tot=              2.4580
 Quadrupole moment (field-independent basis, Debye-Ang):
   XX=            -44.4428   YY=            -52.7526   ZZ=            -47.6961
   XY=              9.3821   XZ=              1.4726   YZ=              1.1675
 Traceless Quadrupole moment (field-independent basis, Debye-Ang):
   XX=              3.8544   YY=             -4.4554   ZZ=              0.6011
   XY=              9.3821   XZ=              1.4726   YZ=              1.1675
 Octapole moment (field-independent basis, Debye-Ang**2):
  XXX=            -10.9033  YYY=            -23.6506  ZZZ=             -3.4346  XYY=             -0.2135
  XXY=             16.2020  XXZ=              2.0097  XZZ=             -4.7657  YZZ=             -0.6154
  YYZ=             -2.3276  XYZ=              1.3969
 Hexadecapole moment (field-independent basis, Debye-Ang**3):
 XXXX=          -1075.4453 YYYY=           -375.6731 ZZZZ=           -114.1447 XXXY=             87.0556
 XXXZ=             28.0113 YYYX=             -9.8136 YYYZ=              5.6388 ZZZX=              2.7986
 ZZZY=             -0.0846 XXYY=           -272.9648 XXZZ=           -215.8118 YYZZ=            -78.6377
 XXYZ=             10.0598 YYXZ=             -1.8125 ZZXY=             -3.4783
 N-N= 3.486279753785D+02 E-N=-1.679665545178D+03  KE= 4.178836273864D+02
  Exact polarizability:  88.997  -2.066  65.808   3.873   1.311  45.901
 Approx polarizability:  98.541  -8.105  73.826   6.817   1.824  47.941
                          Isotropic Fermi Contact Couplings
        Atom                 a.u.       MegaHertz       Gauss      10(-4) cm-1
     1  O(17)              0.13645     -82.71563     -29.51499     -27.59096
     2  H(1)              -0.01599     -71.46381     -25.50006     -23.83776
     3  C(13)              0.00798       8.97146       3.20124       2.99256
     4  H(1)               0.00348      15.57664       5.55813       5.19581
     5  C(13)              0.01412      15.87377       5.66416       5.29492
     6  C(13)             -0.00428      -4.80921      -1.71604      -1.60418
     7  O(17)              0.00270      -1.63730      -0.58423      -0.54614
     8  O(17)              0.00244      -1.48007      -0.52813      -0.49370
     9  C(13)              0.00050       0.56602       0.20197       0.18880
    10  C(13)             -0.00000      -0.00066      -0.00023      -0.00022
    11  H(1)               0.00003       0.13723       0.04897       0.04577
    12  H(1)              -0.00002      -0.07363      -0.02627      -0.02456
    13  H(1)               0.00001       0.04897       0.01747       0.01633
    14  H(1)               0.00000       0.00574       0.00205       0.00192
    15  H(1)              -0.00000      -0.00221      -0.00079      -0.00074
 --------------------------------------------------------
       Center         ----  Spin Dipole Couplings  ----
                      3XX-RR        3YY-RR        3ZZ-RR
 --------------------------------------------------------
     1   Atom       -1.461707      3.098286     -1.636579
     2   Atom        0.153275     -0.044039     -0.109236
     3   Atom        0.010540      0.015032     -0.025572
     4   Atom       -0.004519      0.013010     -0.008491
     5   Atom       -0.070160      0.128283     -0.058123
     6   Atom        0.004879      0.000558     -0.005437
     7   Atom        0.014229     -0.010558     -0.003671
     8   Atom        0.008434     -0.004565     -0.003869
     9   Atom        0.003116     -0.001336     -0.001780
    10   Atom        0.001671     -0.000786     -0.000884
    11   Atom        0.002107     -0.001018     -0.001089
    12   Atom        0.001566     -0.000731     -0.000835
    13   Atom        0.001050     -0.000505     -0.000545
    14   Atom        0.001731     -0.000908     -0.000823
    15   Atom        0.001362     -0.000633     -0.000730
 --------------------------------------------------------
                        XY            XZ            YZ
 --------------------------------------------------------
     1   Atom       -1.017608     -0.094316      0.441002
     2   Atom        0.039856      0.052362      0.016751
     3   Atom       -0.001910      0.005488      0.005074
     4   Atom        0.010850      0.002058      0.004362
     5   Atom       -0.035167     -0.005908      0.017406
     6   Atom       -0.004038      0.001090      0.000153
     7   Atom        0.000098      0.002390     -0.000915
     8   Atom        0.003132      0.002433      0.000401
     9   Atom        0.000250      0.000681      0.000057
    10   Atom       -0.000182     -0.000387      0.000008
    11   Atom        0.000246      0.000818      0.000146
    12   Atom       -0.000574      0.000791     -0.000141
    13   Atom       -0.000051     -0.000140      0.000005
    14   Atom        0.000131     -0.000786     -0.000066
    15   Atom       -0.000472     -0.000565      0.000090
 --------------------------------------------------------


 ---------------------------------------------------------------------------------
              Anisotropic Spin Dipole Couplings in Principal Axis System
 ---------------------------------------------------------------------------------

       Atom             a.u.   MegaHertz   Gauss  10(-4) cm-1        Axes

              Baa    -1.6786   121.462    43.341    40.515  0.9466  0.1767  0.2698
     1 O(17)  Bbb    -1.6772   121.362    43.305    40.482 -0.2469 -0.1411  0.9587
              Bcc     3.3558  -242.824   -86.646   -80.997 -0.2075  0.9741  0.0900
 
              Baa    -0.1204   -64.257   -22.929   -21.434 -0.1686 -0.1264  0.9775
     2 H(1)   Bbb    -0.0512   -27.322    -9.749    -9.114 -0.2125  0.9731  0.0891
              Bcc     0.1716    91.579    32.678    30.548  0.9625  0.1927  0.1909
 
              Baa    -0.0271    -3.631    -1.295    -1.211 -0.1495 -0.1250  0.9808
     3 C(13)  Bbb     0.0111     1.486     0.530     0.496  0.9557  0.2361  0.1758
              Bcc     0.0160     2.144     0.765     0.715 -0.2535  0.9637  0.0842
 
              Baa    -0.0097    -5.177    -1.847    -1.727  0.8959 -0.4399  0.0622
     4 H(1)   Bbb    -0.0093    -4.980    -1.777    -1.661 -0.1312 -0.1282  0.9830
              Bcc     0.0190    10.158     3.625     3.388  0.4245  0.8888  0.1725
 
              Baa    -0.0767   -10.291    -3.672    -3.433  0.9741  0.1530  0.1665
     5 C(13)  Bbb    -0.0593    -7.962    -2.841    -2.656 -0.1491 -0.1190  0.9816
              Bcc     0.1360    18.254     6.513     6.089 -0.1700  0.9810  0.0931
 
              Baa    -0.0056    -0.754    -0.269    -0.252 -0.1485 -0.1214  0.9814
     6 C(13)  Bbb    -0.0017    -0.233    -0.083    -0.078  0.4908  0.8525  0.1798
              Bcc     0.0074     0.987     0.352     0.329  0.8585 -0.5084  0.0670
 
              Baa    -0.0107     0.773     0.276     0.258 -0.0168  0.9907  0.1349
     7 O(17)  Bbb    -0.0039     0.279     0.100     0.093 -0.1290 -0.1360  0.9823
              Bcc     0.0145    -1.052    -0.375    -0.351  0.9915 -0.0009  0.1301
 
              Baa    -0.0053     0.384     0.137     0.128 -0.2446  0.9584  0.1472
     8 O(17)  Bbb    -0.0043     0.311     0.111     0.104 -0.1403 -0.1852  0.9726
              Bcc     0.0096    -0.695    -0.248    -0.232  0.9594  0.2172  0.1798
 
              Baa    -0.0019    -0.251    -0.090    -0.084 -0.1329 -0.0429  0.9902
     9 C(13)  Bbb    -0.0013    -0.181    -0.065    -0.060 -0.0612  0.9975  0.0350
              Bcc     0.0032     0.433     0.154     0.144  0.9892  0.0560  0.1352
 
              Baa    -0.0009    -0.127    -0.045    -0.042  0.1541  0.1292  0.9796
    10 C(13)  Bbb    -0.0008    -0.107    -0.038    -0.036  0.0512  0.9890 -0.1385
              Bcc     0.0017     0.234     0.083     0.078  0.9867 -0.0715 -0.1458
 
              Baa    -0.0013    -0.700    -0.250    -0.234 -0.2025 -0.2939  0.9342
    11 H(1)   Bbb    -0.0010    -0.541    -0.193    -0.181 -0.1454  0.9524  0.2681
              Bcc     0.0023     1.241     0.443     0.414  0.9684  0.0815  0.2355
 
              Baa    -0.0011    -0.574    -0.205    -0.192 -0.3104 -0.1317  0.9415
    12 H(1)   Bbb    -0.0009    -0.458    -0.163    -0.153  0.1671  0.9674  0.1904
              Bcc     0.0019     1.032     0.368     0.344  0.9358 -0.2164  0.2782
 
              Baa    -0.0006    -0.297    -0.106    -0.099  0.0869 -0.0005  0.9962
    13 H(1)   Bbb    -0.0005    -0.270    -0.096    -0.090  0.0328  0.9995 -0.0024
              Bcc     0.0011     0.568     0.203     0.189  0.9957 -0.0329 -0.0869
 
              Baa    -0.0011    -0.561    -0.200    -0.187  0.2576  0.1989  0.9456
    14 H(1)   Bbb    -0.0009    -0.485    -0.173    -0.162 -0.1015  0.9787 -0.1782
              Bcc     0.0020     1.046     0.373     0.349  0.9609  0.0501 -0.2723
 
              Baa    -0.0009    -0.468    -0.167    -0.156  0.2771  0.1869  0.9425
    15 H(1)   Bbb    -0.0007    -0.390    -0.139    -0.130  0.1532  0.9598 -0.2354
              Bcc     0.0016     0.858     0.306     0.286  0.9486 -0.2096 -0.2373
 

 ---------------------------------------------------------------------------------

 Calling FoFJK, ICntrl=    100127 FMM=F ISym2X=0 I1Cent= 0 IOpClX= 1 NMat=1 NMatS=1 NMatT=0.
 Full mass-weighted force constant matrix:
 Low frequencies --- -425.7220 -138.3780 -123.3008  -81.3181  -74.9966  -38.4449
 Low frequencies ---   -0.0008    0.0006    0.0006
 ******    3 imaginary frequencies (negative Signs) ****** 
 Diagonal vibrational polarizability:
       68.6289677     102.7487673     885.6200882
 Harmonic frequencies (cm**-1), IR intensities (KM/Mole), Raman scattering
 activities (A**4/AMU), depolarization ratios for plane and unpolarized
 incident light, reduced masses (AMU), force constants (mDyne/A),
 and normal coordinates:
                      1                      2                      3
                      A                      A                      A
 Frequencies --   -424.7992              -126.5080              -109.4200
 Red. masses --      1.0718                 4.2918                 7.0542
 Frc consts  --      0.1140                 0.0405                 0.0498
 IR Inten    --    159.2113                16.2081                 5.5292
  Atom  AN      X      Y      Z        X      Y      Z        X      Y      Z
     1   8     0.01   0.01  -0.06     0.27   0.12   0.15    -0.23  -0.12   0.26
     2   1    -0.17  -0.10   0.98     0.40  -0.62   0.15    -0.33   0.31   0.36
     3   6     0.00   0.00   0.00    -0.02  -0.07  -0.09     0.05   0.08  -0.25
     4   1     0.00   0.00  -0.01    -0.02   0.02  -0.08     0.06   0.05  -0.33
     5   6    -0.00   0.00   0.01    -0.02  -0.13  -0.09     0.04   0.10  -0.17
     6   6     0.00   0.00   0.00    -0.03  -0.06  -0.03     0.01   0.04  -0.02
     7   8     0.00   0.00  -0.00     0.03  -0.02   0.14    -0.08  -0.04   0.33
     8   8     0.00  -0.00   0.01    -0.11  -0.01  -0.13     0.08   0.04  -0.19
     9   6     0.00   0.00  -0.01    -0.14   0.10  -0.03     0.07  -0.02  -0.06
    10   6    -0.00  -0.00  -0.01    -0.04   0.05   0.02     0.13  -0.04  -0.03
    11   1     0.01   0.00  -0.01    -0.24   0.14  -0.10     0.08  -0.03  -0.05
    12   1     0.01   0.00  -0.01    -0.14   0.17   0.05    -0.01  -0.04  -0.05
    13   1    -0.00   0.00  -0.02    -0.07   0.13   0.09     0.14  -0.13   0.02
    14   1    -0.01  -0.00  -0.01    -0.04  -0.03  -0.07     0.21   0.00  -0.02
    15   1    -0.01  -0.00  -0.01     0.06   0.00   0.09     0.07  -0.02  -0.06
                      4                      5                      6
                      A                      A                      A
 Frequencies --     14.0482                45.5190               134.5336
 Red. masses --      3.2665                 2.8160                 3.5971
 Frc consts  --      0.0004                 0.0034                 0.0384
 IR Inten    --      6.3777                 2.1964                 2.9455
  Atom  AN      X      Y      Z        X      Y      Z        X      Y      Z
     1   8     0.06   0.03  -0.03     0.01   0.02  -0.08     0.19  -0.18   0.02
     2   1     0.07  -0.01  -0.09     0.01  -0.00  -0.04     0.17  -0.07   0.02
     3   6     0.05   0.04  -0.18    -0.05   0.00   0.15    -0.06  -0.17  -0.03
     4   1     0.08   0.07  -0.36    -0.07   0.00   0.28    -0.06  -0.36  -0.05
     5   6     0.02   0.00   0.03    -0.02  -0.01   0.01    -0.06   0.12   0.00
     6   6     0.00  -0.04   0.12    -0.02  -0.04  -0.04    -0.07   0.15   0.00
     7   8    -0.02  -0.05   0.10    -0.07  -0.08   0.07    -0.12   0.11  -0.01
     8   8     0.02  -0.05   0.17     0.04  -0.04  -0.14     0.01   0.12   0.01
     9   6     0.06  -0.06  -0.02     0.02  -0.09   0.00     0.04  -0.04   0.01
    10   6    -0.18   0.14  -0.16     0.08   0.24   0.04     0.01  -0.05  -0.01
    11   1     0.13  -0.14   0.10    -0.01  -0.22   0.24     0.16  -0.09   0.08
    12   1     0.18  -0.15  -0.20    -0.02  -0.26  -0.18    -0.05  -0.13  -0.06
    13   1    -0.14   0.07  -0.32     0.09   0.08   0.14     0.09  -0.48   0.01
    14   1    -0.27   0.27   0.05     0.18   0.46   0.25     0.29   0.23   0.15
    15   1    -0.31   0.23  -0.31     0.01   0.39  -0.25    -0.35   0.08  -0.20
                      7                      8                      9
                      A                      A                      A
 Frequencies --    178.4834               193.9179               248.3185
 Red. masses --      2.1643                 1.9916                 3.8885
 Frc consts  --      0.0406                 0.0441                 0.1413
 IR Inten    --     20.9633                20.7107                 1.1308
  Atom  AN      X      Y      Z        X      Y      Z        X      Y      Z
     1   8    -0.13   0.19   0.01     0.04  -0.10  -0.01    -0.00  -0.02   0.02
     2   1    -0.03  -0.35  -0.03    -0.04   0.33   0.03     0.00  -0.03   0.00
     3   6     0.03  -0.14  -0.02     0.02   0.19   0.04    -0.01   0.05  -0.15
     4   1     0.03  -0.16  -0.02     0.01   0.32   0.09     0.07   0.14  -0.63
     5   6     0.02  -0.05  -0.00     0.03  -0.06  -0.03    -0.08  -0.06   0.35
     6   6     0.03   0.00   0.00     0.02  -0.04  -0.02    -0.05  -0.05   0.17
     7   8     0.06   0.03  -0.00     0.09   0.01   0.01    -0.02  -0.02  -0.12
     8   8    -0.00   0.02   0.01    -0.06  -0.01  -0.02    -0.01  -0.02  -0.08
     9   6     0.01  -0.02   0.00    -0.07   0.03   0.00    -0.02   0.06  -0.08
    10   6    -0.00  -0.05  -0.00    -0.06  -0.03   0.01     0.16   0.05   0.02
    11   1     0.04  -0.02   0.01    -0.08   0.05  -0.03    -0.09   0.09  -0.12
    12   1    -0.02  -0.03  -0.01    -0.07   0.06   0.04    -0.02   0.11  -0.02
    13   1     0.09  -0.56   0.04     0.02  -0.53   0.05     0.15  -0.10   0.23
    14   1     0.34   0.26   0.16     0.27   0.25   0.14     0.39   0.14  -0.01
    15   1    -0.42   0.09  -0.20    -0.47   0.09  -0.16     0.12   0.09  -0.05
                     10                     11                     12
                      A                      A                      A
 Frequencies --    314.5301               350.3966               420.7102
 Red. masses --      2.9094                 1.3183                 3.7258
 Frc consts  --      0.1696                 0.0954                 0.3885
 IR Inten    --     12.7759               140.5200                 4.5304
  Atom  AN      X      Y      Z        X      Y      Z        X      Y      Z
     1   8    -0.00  -0.02  -0.00     0.04   0.07   0.01    -0.00   0.00   0.00
     2   1     0.05  -0.27  -0.03    -0.12   0.96   0.08    -0.02   0.15  -0.00
     3   6     0.00   0.00   0.03     0.01  -0.12  -0.01    -0.11   0.00   0.01
     4   1    -0.01  -0.09   0.13     0.01  -0.15  -0.02    -0.14   0.10   0.19
     5   6     0.02   0.10  -0.07     0.01  -0.01   0.00    -0.08  -0.11  -0.15
     6   6     0.03  -0.04  -0.02    -0.00  -0.02  -0.00    -0.07  -0.01   0.02
     7   8    -0.15  -0.17  -0.03    -0.01  -0.03  -0.01     0.05   0.08   0.05
     8   8     0.06  -0.08   0.09    -0.00  -0.02  -0.01    -0.09  -0.03   0.24
     9   6     0.02   0.23  -0.01    -0.02   0.03  -0.00     0.01  -0.02  -0.16
    10   6     0.03   0.03  -0.01    -0.01   0.01   0.01     0.22   0.04  -0.09
    11   1    -0.15   0.38  -0.26    -0.06   0.05  -0.03     0.05  -0.01  -0.18
    12   1     0.19   0.48   0.21     0.00   0.07   0.03     0.12   0.02  -0.17
    13   1     0.08  -0.26   0.01    -0.01  -0.02   0.01     0.15   0.05   0.31
    14   1     0.26   0.12  -0.04     0.01   0.02  -0.00     0.46   0.09  -0.17
    15   1    -0.21   0.04   0.02    -0.04   0.01   0.01     0.45   0.07  -0.18
                     13                     14                     15
                      A                      A                      A
 Frequencies --    580.6764               624.1098               778.7259
 Red. masses --      4.1948                 6.7275                 3.3564
 Frc consts  --      0.8334                 1.5439                 1.1992
 IR Inten    --      6.3897                15.6702                67.0794
  Atom  AN      X      Y      Z        X      Y      Z        X      Y      Z
     1   8     0.00  -0.00   0.00     0.01  -0.01  -0.00     0.00  -0.00   0.00
     2   1     0.02  -0.09  -0.01     0.01  -0.04  -0.01    -0.01  -0.00   0.04
     3   6     0.24  -0.00   0.04    -0.20  -0.02  -0.03     0.00   0.01  -0.08
     4   1     0.24  -0.28   0.05    -0.19  -0.58  -0.11    -0.14  -0.13   0.85
     5   6     0.21   0.23   0.04    -0.17   0.46   0.04     0.02   0.03  -0.15
     6   6     0.04  -0.01   0.03     0.00  -0.14  -0.02    -0.05  -0.06   0.39
     7   8    -0.05  -0.07  -0.01     0.30   0.06   0.06     0.02   0.00  -0.09
     8   8    -0.17   0.03   0.05     0.04  -0.23  -0.03     0.01   0.01  -0.09
     9   6    -0.23  -0.09  -0.14    -0.05  -0.04  -0.02     0.01   0.02   0.00
    10   6    -0.00  -0.02  -0.01    -0.02   0.01   0.01     0.00   0.01   0.01
    11   1    -0.06  -0.18   0.00    -0.25   0.06  -0.17     0.02  -0.03   0.09
    12   1    -0.26  -0.21  -0.26     0.10   0.14   0.12    -0.03  -0.05  -0.06
    13   1    -0.09   0.04   0.44    -0.03   0.00   0.06     0.02  -0.02  -0.06
    14   1     0.24   0.02  -0.11    -0.00   0.05   0.05    -0.02  -0.03  -0.03
    15   1     0.28   0.01  -0.10     0.00   0.04  -0.06    -0.06  -0.02   0.07
                     16                     17                     18
                      A                      A                      A
 Frequencies --    808.9599               816.0605               873.9067
 Red. masses --      1.2712                 1.2900                 1.8264
 Frc consts  --      0.4901                 0.5062                 0.8218
 IR Inten    --     71.7031                 3.6174                14.4838
  Atom  AN      X      Y      Z        X      Y      Z        X      Y      Z
     1   8    -0.00  -0.01  -0.00    -0.00  -0.00  -0.00     0.00   0.00  -0.00
     2   1    -0.00  -0.02  -0.00    -0.00   0.01   0.00     0.00   0.00  -0.01
     3   6     0.01  -0.13  -0.02    -0.05  -0.02  -0.00     0.02   0.02  -0.17
     4   1    -0.02   0.96   0.14    -0.04   0.14  -0.06    -0.14  -0.13   0.94
     5   6     0.00   0.08   0.01    -0.03   0.03   0.00    -0.02  -0.02   0.15
     6   6    -0.00   0.00   0.00     0.04  -0.03  -0.02     0.02   0.02  -0.13
     7   8     0.00   0.01   0.00     0.03  -0.06   0.00    -0.00  -0.00   0.03
     8   8     0.01  -0.02  -0.00    -0.02   0.04   0.01    -0.00  -0.00   0.03
     9   6    -0.02  -0.02  -0.01     0.01   0.09   0.01    -0.00   0.00  -0.00
    10   6    -0.01  -0.01   0.00     0.01   0.03  -0.01    -0.00   0.00   0.00
    11   1    -0.03   0.02  -0.08     0.10  -0.18   0.49     0.00  -0.01   0.02
    12   1    -0.00   0.04   0.05     0.01  -0.27  -0.42     0.02  -0.01  -0.02
    13   1    -0.02   0.02   0.04     0.05  -0.17  -0.05    -0.00  -0.01   0.02
    14   1    -0.01   0.03   0.05     0.17  -0.18  -0.35     0.02  -0.01  -0.03
    15   1     0.03   0.02  -0.06    -0.14  -0.16   0.38     0.00  -0.01   0.02
                     19                     20                     21
                      A                      A                      A
 Frequencies --    897.5597               946.4339              1110.6908
 Red. masses --      3.2808                 2.5968                 4.2623
 Frc consts  --      1.5573                 1.3705                 3.0980
 IR Inten    --     18.1150                 4.3189                 7.4621
  Atom  AN      X      Y      Z        X      Y      Z        X      Y      Z
     1   8     0.00  -0.00  -0.00     0.00   0.00   0.00    -0.00  -0.00  -0.00
     2   1    -0.00   0.02   0.00    -0.00   0.01   0.00     0.00   0.00  -0.00
     3   6    -0.08  -0.01  -0.02    -0.11   0.01  -0.01     0.07  -0.01   0.01
     4   1    -0.09   0.02   0.02    -0.12  -0.03  -0.03     0.08  -0.00   0.01
     5   6    -0.05   0.06   0.01    -0.07  -0.04  -0.02     0.03   0.05   0.01
     6   6     0.10  -0.09  -0.00     0.13   0.02   0.03    -0.14  -0.09  -0.04
     7   8     0.07  -0.17  -0.01     0.03  -0.09  -0.01     0.01   0.02   0.01
     8   8    -0.17   0.21   0.02     0.13   0.12   0.01    -0.19  -0.01  -0.03
     9   6     0.08  -0.01   0.08    -0.02  -0.00  -0.12     0.33   0.02  -0.19
    10   6     0.11  -0.04  -0.05    -0.17  -0.04   0.09    -0.09   0.02   0.22
    11   1     0.27   0.10  -0.13     0.31   0.02  -0.20     0.32   0.07  -0.29
    12   1    -0.27   0.05   0.32     0.03   0.00  -0.14     0.44   0.04  -0.24
    13   1     0.13   0.17  -0.39    -0.29   0.07   0.70    -0.07  -0.02   0.14
    14   1    -0.26   0.11   0.33     0.13   0.11   0.09    -0.15  -0.01   0.25
    15   1     0.05   0.14  -0.38     0.24   0.03  -0.09    -0.19  -0.03   0.34
                     22                     23                     24
                      A                      A                      A
 Frequencies --   1156.7000              1227.1548              1313.2958
 Red. masses --      2.0641                 1.7620                 3.1873
 Frc consts  --      1.6271                 1.5634                 3.2389
 IR Inten    --     19.2191                 6.3267               463.2744
  Atom  AN      X      Y      Z        X      Y      Z        X      Y      Z
     1   8    -0.00  -0.00  -0.00    -0.00  -0.00  -0.00     0.00   0.00   0.00
     2   1    -0.00   0.00   0.00    -0.00   0.00   0.00    -0.01   0.02   0.00
     3   6     0.02  -0.00   0.00     0.02  -0.00   0.00    -0.07   0.00  -0.01
     4   1     0.03  -0.00   0.00     0.03  -0.00   0.00    -0.08   0.02  -0.01
     5   6     0.01   0.01   0.01     0.01   0.00   0.00    -0.01  -0.01  -0.00
     6   6    -0.05  -0.03  -0.01    -0.07  -0.04  -0.02     0.26   0.22   0.07
     7   8     0.00   0.01  -0.00    -0.01   0.03   0.00    -0.04  -0.00  -0.00
     8   8    -0.07  -0.00  -0.05     0.02  -0.07  -0.00    -0.15  -0.12  -0.03
     9   6     0.11   0.00   0.19    -0.01   0.19   0.01     0.11   0.03  -0.02
    10   6    -0.10  -0.01  -0.15     0.01  -0.13  -0.00    -0.01  -0.08   0.01
    11   1     0.09   0.08   0.08     0.38  -0.02   0.35    -0.72  -0.07   0.26
    12   1     0.27   0.05   0.18    -0.21  -0.18  -0.33     0.23  -0.07  -0.22
    13   1    -0.19  -0.02   0.53    -0.07   0.26   0.05    -0.04   0.10   0.04
    14   1     0.42   0.10  -0.32    -0.11   0.15   0.38    -0.04   0.09   0.23
    15   1     0.39  -0.04  -0.14     0.15   0.10  -0.44     0.08   0.01  -0.17
                     25                     26                     27
                      A                      A                      A
 Frequencies --   1365.5330              1441.4368              1457.3708
 Red. masses --      1.3653                 1.3247                 1.2542
 Frc consts  --      1.5000                 1.6217                 1.5695
 IR Inten    --    147.5681                17.8204                18.6659
  Atom  AN      X      Y      Z        X      Y      Z        X      Y      Z
     1   8    -0.00  -0.00  -0.00     0.00   0.00   0.00     0.00   0.00   0.00
     2   1     0.00  -0.01   0.00    -0.00  -0.00  -0.00     0.00  -0.00  -0.00
     3   6     0.01  -0.00   0.00    -0.01   0.00  -0.00    -0.00   0.00  -0.00
     4   1     0.02  -0.01   0.00    -0.02   0.00  -0.00    -0.00   0.00  -0.00
     5   6     0.00   0.00   0.00    -0.00  -0.00   0.00    -0.00  -0.00   0.00
     6   6    -0.07  -0.07  -0.02     0.06   0.04   0.01     0.01   0.01   0.00
     7   8     0.02  -0.02  -0.00    -0.01   0.01  -0.00    -0.00  -0.00  -0.00
     8   8     0.04   0.10   0.01    -0.04  -0.04  -0.03    -0.01  -0.01  -0.01
     9   6    -0.04  -0.01   0.01    -0.10  -0.01   0.07    -0.04  -0.00   0.03
    10   6     0.02  -0.06   0.01     0.02   0.01   0.05     0.09   0.01  -0.11
    11   1    -0.55  -0.07   0.19     0.56   0.12  -0.30     0.15   0.05  -0.10
    12   1     0.71   0.12  -0.23     0.58  -0.00  -0.28     0.18  -0.02  -0.10
    13   1     0.00   0.06  -0.03     0.08  -0.02  -0.25    -0.05   0.02   0.55
    14   1    -0.07   0.01   0.14     0.05  -0.13  -0.14    -0.44   0.09   0.32
    15   1     0.03   0.03  -0.18     0.02   0.11  -0.16    -0.37  -0.18   0.35
                     28                     29                     30
                      A                      A                      A
 Frequencies --   1528.2674              1536.8405              1544.9459
 Red. masses --      1.0417                 1.0690                 1.0713
 Frc consts  --      1.4334                 1.4875                 1.5066
 IR Inten    --     14.9732                 4.5750                22.3604
  Atom  AN      X      Y      Z        X      Y      Z        X      Y      Z
     1   8     0.00   0.00  -0.00     0.00   0.00  -0.00     0.00  -0.00  -0.00
     2   1     0.00  -0.00   0.00    -0.00  -0.00   0.00    -0.00   0.00   0.00
     3   6     0.00   0.00   0.00    -0.00   0.00  -0.00    -0.00   0.00  -0.00
     4   1    -0.00  -0.00   0.00    -0.00   0.00  -0.00    -0.00   0.00  -0.00
     5   6    -0.00   0.00  -0.00     0.00  -0.00   0.00     0.00  -0.00  -0.00
     6   6    -0.00   0.00  -0.00     0.02   0.00   0.00     0.02   0.00   0.00
     7   8     0.00  -0.00   0.00    -0.01   0.01   0.00    -0.01   0.01  -0.00
     8   8     0.00   0.00   0.00    -0.02  -0.01  -0.01    -0.01  -0.01  -0.01
     9   6    -0.01  -0.02   0.01    -0.01  -0.01  -0.06    -0.04  -0.01  -0.04
    10   6    -0.00  -0.05  -0.01     0.03  -0.01   0.02    -0.03   0.00  -0.03
    11   1    -0.01   0.04  -0.12     0.24  -0.28   0.44     0.23  -0.18   0.27
    12   1     0.01  -0.05  -0.03     0.14   0.40   0.39     0.18   0.28   0.20
    13   1    -0.10   0.64  -0.17    -0.06   0.21   0.17     0.06  -0.16  -0.26
    14   1     0.51   0.27   0.05    -0.01  -0.20  -0.21     0.08   0.35   0.34
    15   1    -0.35  -0.12   0.23    -0.35   0.13  -0.20     0.40  -0.23   0.36
                     31                     32                     33
                      A                      A                      A
 Frequencies --   1917.1900              2314.8146              3108.2235
 Red. masses --     12.3332                 5.6339                 1.0352
 Frc consts  --     26.7089                17.7865                 5.8924
 IR Inten    --    324.1711                84.6230                12.0015
  Atom  AN      X      Y      Z        X      Y      Z        X      Y      Z
     1   8     0.00   0.00   0.00    -0.00   0.00   0.00     0.00   0.00  -0.00
     2   1     0.00  -0.03  -0.00    -0.00   0.00  -0.00    -0.00  -0.00   0.00
     3   6     0.08   0.00   0.01    -0.37   0.00  -0.06     0.00   0.00   0.00
     4   1     0.12   0.01   0.02    -0.75   0.01  -0.11    -0.00  -0.00  -0.00
     5   6    -0.05  -0.01  -0.01     0.52  -0.01   0.08    -0.00  -0.00  -0.00
     6   6    -0.47   0.64   0.01    -0.10   0.01  -0.01     0.00   0.00   0.00
     7   8     0.32  -0.42  -0.01     0.01  -0.01  -0.00     0.00  -0.00  -0.00
     8   8    -0.00  -0.06  -0.01    -0.00  -0.00  -0.00    -0.00  -0.00  -0.00
     9   6    -0.02   0.01  -0.00     0.00   0.00   0.00     0.00   0.00  -0.00
    10   6     0.01  -0.00   0.01    -0.00  -0.00   0.00    -0.03  -0.01   0.04
    11   1     0.16  -0.04   0.07     0.01   0.00   0.00    -0.00   0.01   0.00
    12   1     0.08   0.11   0.03    -0.00   0.00   0.00     0.01  -0.02   0.02
    13   1     0.02  -0.03  -0.04     0.00  -0.00   0.00     0.59   0.11   0.11
    14   1    -0.03  -0.02  -0.00    -0.00  -0.00  -0.00    -0.22   0.43  -0.35
    15   1     0.03   0.03  -0.04     0.00   0.00  -0.00    -0.05  -0.46  -0.23
                     34                     35                     36
                      A                      A                      A
 Frequencies --   3139.5768              3187.7224              3192.3258
 Red. masses --      1.0598                 1.1009                 1.1025
 Frc consts  --      6.1551                 6.5910                 6.6195
 IR Inten    --     18.6706                12.1091                 6.4528
  Atom  AN      X      Y      Z        X      Y      Z        X      Y      Z
     1   8    -0.00  -0.00  -0.00    -0.00   0.00   0.00     0.00  -0.00   0.00
     2   1     0.00   0.00   0.00     0.00  -0.00  -0.00    -0.00  -0.00  -0.00
     3   6    -0.00  -0.00  -0.00     0.00   0.00   0.00     0.00  -0.00   0.00
     4   1    -0.00   0.00  -0.00    -0.00  -0.00  -0.00    -0.00   0.00  -0.00
     5   6     0.00   0.00   0.00    -0.00   0.00   0.00     0.00  -0.00  -0.00
     6   6    -0.00  -0.00  -0.00     0.00   0.00  -0.00    -0.00   0.00  -0.00
     7   8    -0.00   0.00  -0.00    -0.00  -0.00  -0.00     0.00  -0.00   0.00
     8   8     0.00   0.00   0.00     0.00  -0.00   0.00     0.00   0.00  -0.00
     9   6     0.02  -0.01   0.06     0.00  -0.04  -0.01    -0.01   0.05  -0.00
    10   6    -0.01  -0.00  -0.01    -0.06   0.04  -0.03    -0.05  -0.05  -0.03
    11   1    -0.04  -0.52  -0.26     0.03   0.39   0.21    -0.03  -0.35  -0.19
    12   1    -0.25   0.60  -0.47    -0.06   0.13  -0.11     0.13  -0.29   0.24
    13   1     0.12   0.02   0.03     0.50   0.11   0.08     0.55   0.10   0.09
    14   1     0.02  -0.05   0.03     0.24  -0.49   0.41     0.02  -0.07   0.05
    15   1    -0.00   0.03   0.01    -0.03  -0.15  -0.09     0.03   0.53   0.26
                     37                     38                     39
                      A                      A                      A
 Frequencies --   3212.6997              3533.9966              3783.4643
 Red. masses --      1.1055                 1.1759                 1.0674
 Frc consts  --      6.7225                 8.6527                 9.0027
 IR Inten    --     15.4971                68.7447                 8.9061
  Atom  AN      X      Y      Z        X      Y      Z        X      Y      Z
     1   8    -0.00   0.00   0.00     0.00   0.00   0.00    -0.06  -0.01  -0.01
     2   1     0.00  -0.00   0.00    -0.00  -0.00  -0.00     0.97   0.17   0.19
     3   6     0.00   0.00  -0.00    -0.12  -0.00  -0.02    -0.00   0.00  -0.00
     4   1    -0.00  -0.00  -0.00     0.98   0.01   0.15     0.00   0.00   0.00
     5   6    -0.00   0.00  -0.00     0.04  -0.00   0.01     0.00   0.00   0.00
     6   6     0.00  -0.00  -0.00    -0.00  -0.00  -0.00     0.00   0.00   0.00
     7   8    -0.00   0.00   0.00    -0.00   0.00   0.00    -0.00  -0.00  -0.00
     8   8     0.00   0.00   0.00     0.00  -0.00  -0.00    -0.00  -0.00  -0.00
     9   6     0.01  -0.07  -0.00    -0.00  -0.00  -0.00    -0.00  -0.00  -0.00
    10   6    -0.00  -0.07  -0.00     0.00  -0.00   0.00     0.00   0.00  -0.00
    11   1     0.03   0.49   0.27     0.00   0.00   0.00    -0.00  -0.00  -0.00
    12   1    -0.12   0.28  -0.24     0.00   0.00  -0.00     0.00  -0.00   0.00
    13   1     0.11   0.01   0.02     0.00   0.00  -0.00     0.00  -0.00  -0.00
    14   1    -0.15   0.28  -0.25    -0.00   0.00  -0.00    -0.00  -0.00   0.00
    15   1     0.05   0.52   0.28    -0.00   0.00   0.00     0.00  -0.00  -0.00

 -------------------
 - Thermochemistry -
 -------------------
 Temperature   298.150 Kelvin.  Pressure   1.00000 Atm.
 Atom     1 has atomic number  8 and mass  15.99491
 Atom     2 has atomic number  1 and mass   1.00783
 Atom     3 has atomic number  6 and mass  12.00000
 Atom     4 has atomic number  1 and mass   1.00783
 Atom     5 has atomic number  6 and mass  12.00000
 Atom     6 has atomic number  6 and mass  12.00000
 Atom     7 has atomic number  8 and mass  15.99491
 Atom     8 has atomic number  8 and mass  15.99491
 Atom     9 has atomic number  6 and mass  12.00000
 Atom    10 has atomic number  6 and mass  12.00000
 Atom    11 has atomic number  1 and mass   1.00783
 Atom    12 has atomic number  1 and mass   1.00783
 Atom    13 has atomic number  1 and mass   1.00783
 Atom    14 has atomic number  1 and mass   1.00783
 Atom    15 has atomic number  1 and mass   1.00783
 Molecular mass:   115.03952 amu.
 Principal axes and moments of inertia in atomic units:
                           1         2         3
     Eigenvalues --   544.883401571.485521968.73350
           X            0.99957   0.02873  -0.00580
           Y           -0.02873   0.99959  -0.00012
           Z            0.00580   0.00029   0.99998
 This molecule is an asymmetric top.
 Rotational symmetry number  1.
 Warning -- assumption of classical behavior for rotation
           may cause significant error
 Rotational temperatures (Kelvin)      0.15896     0.05512     0.04399
 Rotational constants (GHZ):           3.31216     1.14843     0.91670
    3 imaginary frequencies ignored.
 Zero-point vibrational energy     294874.3 (Joules/Mol)
                                   70.47666 (Kcal/Mol)
 Warning -- explicit consideration of  10 degrees of freedom as
           vibrations may cause significant error
 Vibrational temperatures:     20.21    65.49   193.56   256.80   279.00
          (Kelvin)            357.27   452.54   504.14   605.31   835.46
                              897.95  1120.41  1163.91  1174.13  1257.36
                             1291.39  1361.71  1598.04  1664.23  1765.60
                             1889.54  1964.70  2073.91  2096.83  2198.84
                             2211.17  2222.83  2758.41  3330.50  4472.04
                             4517.15  4586.42  4593.04  4622.36  5084.63
                             5443.56
 
 Zero-point correction=                           0.112312 (Hartree/Particle)
 Thermal correction to Energy=                    0.121095
 Thermal correction to Enthalpy=                  0.122039
 Thermal correction to Gibbs Free Energy=         0.075716
 Sum of electronic and zero-point Energies=           -419.852849
 Sum of electronic and thermal Energies=              -419.844066
 Sum of electronic and thermal Enthalpies=            -419.843122
 Sum of electronic and thermal Free Energies=         -419.889444
 
                     E (Thermal)             CV                S
                      KCal/Mol        Cal/Mol-Kelvin    Cal/Mol-Kelvin
 Total                   75.988             28.806             97.494
 Electronic               0.000              0.000              1.377
 Translational            0.889              2.981             40.136
 Rotational               0.889              2.981             28.912
 Vibrational             74.211             22.845             27.069
 Vibration     1          0.593              1.986              7.336
 Vibration     2          0.595              1.979              5.003
 Vibration     3          0.613              1.919              2.880
 Vibration     4          0.629              1.869              2.344
 Vibration     5          0.635              1.848              2.190
 Vibration     6          0.662              1.766              1.742
 Vibration     7          0.702              1.646              1.338
 Vibration     8          0.727              1.574              1.164
 Vibration     9          0.783              1.425              0.890
 Vibration    10          0.937              1.073              0.484
                       Q            Log10(Q)             Ln(Q)
 Total Bot       0.148924D-34        -34.827035        -80.192211
 Total V=0       0.680326D+17         16.832717         38.758764
 Vib (Bot)       0.330343D-48        -48.481035       -111.631709
 Vib (Bot)    1  0.147481D+02          1.168737          2.691116
 Vib (Bot)    2  0.454335D+01          0.657376          1.513664
 Vib (Bot)    3  0.151360D+01          0.180010          0.414489
 Vib (Bot)    4  0.112590D+01          0.051501          0.118586
 Vib (Bot)    5  0.103060D+01          0.013091          0.030144
 Vib (Bot)    6  0.786597D+00         -0.104248         -0.240040
 Vib (Bot)    7  0.599602D+00         -0.222137         -0.511489
 Vib (Bot)    8  0.526409D+00         -0.278677         -0.641678
 Vib (Bot)    9  0.417137D+00         -0.379721         -0.874341
 Vib (Bot)   10  0.262244D+00         -0.581295         -1.338482
 Vib (V=0)       0.150910D+04          3.178717          7.319266
 Vib (V=0)    1  0.152566D+02          1.183458          2.725012
 Vib (V=0)    2  0.507078D+01          0.705075          1.623495
 Vib (V=0)    3  0.209404D+01          0.320986          0.739097
 Vib (V=0)    4  0.173193D+01          0.238531          0.549238
 Vib (V=0)    5  0.164549D+01          0.216295          0.498037
 Vib (V=0)    6  0.143206D+01          0.155961          0.359113
 Vib (V=0)    7  0.128072D+01          0.107454          0.247422
 Vib (V=0)    8  0.122602D+01          0.088498          0.203774
 Vib (V=0)    9  0.115116D+01          0.061134          0.140766
 Vib (V=0)   10  0.106460D+01          0.027186          0.062598
 Electronic      0.200000D+01          0.301030          0.693147
 Translational   0.484981D+08          7.685724         17.697035
 Rotational      0.464779D+06          5.667246         13.049316
 ***** Axes restored to original set *****
 -------------------------------------------------------------------
 Center     Atomic                   Forces (Hartrees/Bohr)
 Number     Number              X              Y              Z
 -------------------------------------------------------------------
      1        8           0.016197822   -0.004016933    0.002251683
      2        1          -0.016472307   -0.002875006   -0.003229110
      3        6           0.021125669    0.006597757    0.004074537
      4        1           0.001017343   -0.000058621    0.000165021
      5        6          -0.025504749   -0.000217192   -0.003916094
      6        6           0.051189386   -0.015996243    0.005553634
      7        8          -0.033037205    0.038320881    0.000297372
      8        8           0.002743482   -0.015029537   -0.001702375
      9        6          -0.014679763   -0.007498481   -0.004619587
     10        6          -0.000298260   -0.000082138    0.000091932
     11        1          -0.000136677   -0.000719148   -0.000492545
     12        1          -0.000761063    0.001259957   -0.000795418
     13        1          -0.001499361   -0.000121755    0.000279754
     14        1           0.000397633   -0.000791345    0.000887876
     15        1          -0.000281950    0.001227806    0.001153320
 -------------------------------------------------------------------
 Cartesian Forces:  Max     0.051189386 RMS     0.013126708

 GradGradGradGradGradGradGradGradGradGradGradGradGradGradGradGradGradGrad
 Berny optimization.
 Search for a local minimum.
 Step number   1 out of a maximum of    2
 All quantities printed in internal units (Hartrees-Bohrs-Radians)
 Second derivative matrix not updated -- analytic derivatives used.
 ITU=  0
     Eigenvalues ---   -0.01317  -0.00519  -0.00281  -0.00011   0.00014
     Eigenvalues ---    0.00142   0.00439   0.00646   0.01085   0.01709
     Eigenvalues ---    0.01980   0.03284   0.03517   0.05771   0.06692
     Eigenvalues ---    0.07658   0.08536   0.09562   0.10541   0.11139
     Eigenvalues ---    0.12161   0.14882   0.18029   0.18121   0.21404
     Eigenvalues ---    0.30036   0.31052   0.43407   0.49668   0.64258
     Eigenvalues ---    0.74073   0.78300   0.80105   0.88563   0.93054
     Eigenvalues ---    0.95758   0.98478   1.87663   2.85117
 Eigenvalue     1 is  -1.32D-02 should be greater than     0.000000 Eigenvector:
                          Z2        Z1        Z7        Z8        Z5
   1                    0.69557  -0.51711  -0.27862   0.19070   0.16085
                          Z3        X2        Z4        X1        X14
   1                    0.15694  -0.12205   0.11866   0.09421  -0.08169
 Eigenvalue     2 is  -5.19D-03 should be greater than     0.000000 Eigenvector:
                          Z2        Z7        Z8        Z3        Z5
   1                    0.56970   0.53949  -0.30063  -0.19741  -0.19637
                          Z1        Z4        Y2        Y14       Y15
   1                    0.17791  -0.16204  -0.15481   0.12195   0.11311
 Eigenvalue     3 is  -2.81D-03 should be greater than     0.000000 Eigenvector:
                          X2        Y2        X1        X11       Y1
   1                    0.54992  -0.46109   0.42007  -0.21370   0.20641
                          Y5        X9        X8        Y12       X13
   1                   -0.15662  -0.14627  -0.13787   0.11915  -0.11886
 Eigenvalue     4 is  -1.12D-04 should be greater than     0.000000 Eigenvector:
                          Y14       Y15       Z4        Z15       Y12
   1                    0.40858   0.34662   0.28823  -0.27153  -0.26276
                          Z2        Z1        Y11       Z14       Z11
   1                   -0.25255  -0.24883  -0.23091   0.21499   0.20949
 Quadratic step=1.250D+00 exceeds max=3.000D-01 adjusted using Lamda=-1.313D-02.
 Angle between NR and scaled steps=  50.43 degrees.
 Angle between quadratic step and forces=  71.31 degrees.
 Linear search not attempted -- first point.
 B after Tr=     0.003440   -0.005346   -0.000386
         Rot=    1.000000   -0.000383   -0.000054    0.000836 Ang=  -0.11 deg.
 Variable       Old X    -DE/DX   Delta X   Delta X   Delta X     New X
                                 (Linear)    (Quad)   (Total)
    X1        5.15805   0.01620   0.00000  -0.00424  -0.00617   5.15189
    Y1       -3.00635  -0.00402   0.00000  -0.19823  -0.21218  -3.21854
    Z1        0.03121   0.00225   0.00000  -0.02511  -0.02851   0.00270
    X2        3.37752  -0.01647   0.00000  -0.08206  -0.08411   3.29341
    Y2       -3.30587  -0.00288   0.00000   0.04474   0.03414  -3.27173
    Z2       -0.31904  -0.00323   0.00000  -0.00541  -0.00866  -0.32770
    X3        4.68041   0.02113   0.00000   0.03159   0.03762   4.71803
    Y3        1.37925   0.00660   0.00000   0.13486   0.12120   1.50045
    Z3        0.54085   0.00407   0.00000   0.02083   0.02109   0.56195
    X4        6.66993   0.00102   0.00000   0.03547   0.04142   6.71135
    Y4        1.38131  -0.00006   0.00000   0.07034   0.05313   1.43444
    Z4        0.84456   0.00017   0.00000   0.01370   0.01369   0.85826
    X5        2.43739  -0.02550   0.00000   0.01581   0.02179   2.45918
    Y5        1.44423  -0.00022   0.00000   0.06181   0.05220   1.49643
    Z5        0.20587  -0.00392   0.00000   0.00882   0.00932   0.21519
    X6       -0.27760   0.05119   0.00000   0.04424   0.05008  -0.22752
    Y6        1.41356  -0.01600   0.00000   0.03255   0.02774   1.44130
    Z6       -0.20697   0.00555   0.00000   0.00952   0.01027  -0.19671
    X7       -1.60542  -0.03304   0.00000  -0.05224  -0.04335  -1.64877
    Y7        3.24529   0.03832   0.00000   0.02561   0.02314   3.26843
    Z7       -0.14935   0.00030   0.00000  -0.00592  -0.00362  -0.15297
    X8       -1.06233   0.00274   0.00000   0.02843   0.03020  -1.03213
    Y8       -0.94841  -0.01503   0.00000  -0.00998  -0.01309  -0.96149
    Z8       -0.66710  -0.00170   0.00000   0.00234   0.00133  -0.66577
    X9       -3.74350  -0.01468   0.00000  -0.02038  -0.01921  -3.76271
    Y9       -1.26109  -0.00750   0.00000  -0.02692  -0.02514  -1.28622
    Z9       -1.08043  -0.00462   0.00000  -0.01064  -0.01160  -1.09204
   X10       -5.16862  -0.00030   0.00000  -0.00892  -0.00751  -5.17613
   Y10       -1.30194  -0.00008   0.00000  -0.01179  -0.00956  -1.31150
   Z10        1.40377   0.00009   0.00000   0.00071  -0.00012   1.40364
   X11       -3.88986  -0.00014   0.00000   0.00504   0.00311  -3.88675
   Y11       -3.05535  -0.00072   0.00000  -0.03029  -0.02754  -3.08289
   Z11       -2.07558  -0.00049   0.00000  -0.00823  -0.01056  -2.08614
   X12       -4.39830  -0.00076   0.00000  -0.00818  -0.00457  -4.40287
   Y12        0.26071   0.00126   0.00000  -0.01596  -0.01216   0.24854
   Z12       -2.30567  -0.00080   0.00000  -0.00963  -0.00935  -2.31501
   X13       -7.16532  -0.00150   0.00000  -0.01663  -0.01588  -7.18120
   Y13       -1.67680  -0.00012   0.00000  -0.00813  -0.00228  -1.67908
   Z13        1.04556   0.00028   0.00000   0.01648   0.01558   1.06114
   X14       -4.43598   0.00040   0.00000  -0.00408  -0.00502  -4.44100
   Y14       -2.78738  -0.00079   0.00000  -0.00700  -0.00695  -2.79433
   Z14        2.63144   0.00089   0.00000   0.00847   0.00642   2.63786
   X15       -5.01137  -0.00028   0.00000  -0.00294   0.00161  -5.00976
   Y15        0.51334   0.00123   0.00000  -0.00389  -0.00266   0.51068
   Z15        2.36470   0.00115   0.00000  -0.00584  -0.00529   2.35941
         Item               Value     Threshold  Converged?
 Maximum Force            0.051189     0.000450     NO 
 RMS     Force            0.013127     0.000300     NO 
 Maximum Displacement     0.212185     0.001800     NO 
 RMS     Displacement     0.044402     0.001200     NO 
 Predicted change in Energy=-4.880382D-03
 GradGradGradGradGradGradGradGradGradGradGradGradGradGradGradGradGradGrad


 ----------------------------------------------------------------------

 Electric dipole moment (input orientation):
 (Debye = 10**-18 statcoulomb cm , SI units = C m)
                  (au)            (Debye)         (10**-30 SI)
   Tot        0.967058D+00      0.245802D+01      0.819906D+01
   x         -0.748657D+00     -0.190290D+01     -0.634738D+01
   y         -0.601215D+00     -0.152814D+01     -0.509731D+01
   z         -0.115130D+00     -0.292632D+00     -0.976116D+00

 Dipole polarizability, Alpha (input orientation).
 (esu units = cm**3 , SI units = C**2 m**2 J**-1)
 Alpha(0;0):
               (au)            (10**-24 esu)      (10**-40 SI)
   iso        0.669022D+02      0.991389D+01      0.110307D+02
   aniso      0.381917D+02      0.565943D+01      0.629696D+01
   xx         0.889867D+02      0.131865D+02      0.146719D+02
   yx        -0.216486D+01     -0.320799D+00     -0.356938D+00
   yy         0.657861D+02      0.974849D+01      0.108467D+02
   zx         0.385500D+01      0.571252D+00      0.635603D+00
   zy         0.152802D+01      0.226430D+00      0.251937D+00
   zz         0.459339D+02      0.680670D+01      0.757348D+01

 ----------------------------------------------------------------------

 Dipole orientation:
     8          3.66442890          4.20581849         -2.12783622
     1          3.23745074          3.41835455         -0.52151182
     6          1.16185366          1.44635818         -4.54524616
     1          1.84985363          2.48948649         -6.12288735
     6          0.35149718          0.23086493         -2.80930707
     6         -0.57664947         -1.17339875         -0.63925730
     8         -2.02575267         -2.90773277         -0.75694620
     8          0.43095183         -0.25078569          1.49145127
     6         -0.35981809         -1.45620953          3.81070627
     6         -2.92728990         -0.49797634          4.64362091
     1          1.11430083         -0.96327577          5.15796969
     1         -0.36990609         -3.49573682          3.51739596
     1         -3.41610342         -1.33403656          6.46507982
     1         -2.89857320          1.55275459          4.85377654
     1         -4.37890535         -1.02124408          3.27893820

 Electric dipole moment (dipole orientation):
 (Debye = 10**-18 statcoulomb cm , SI units = C m)
                  (au)            (Debye)         (10**-30 SI)
   Tot        0.967058D+00      0.245802D+01      0.819906D+01
   x          0.000000D+00      0.000000D+00      0.000000D+00
   y          0.000000D+00      0.000000D+00      0.000000D+00
   z          0.967058D+00      0.245802D+01      0.819906D+01

 Dipole polarizability, Alpha (dipole orientation).
 (esu units = cm**3 , SI units = C**2 m**2 J**-1)
 Alpha(0;0):
               (au)            (10**-24 esu)      (10**-40 SI)
   iso        0.669022D+02      0.991389D+01      0.110307D+02
   aniso      0.381917D+02      0.565943D+01      0.629696D+01
   xx         0.580029D+02      0.859514D+01      0.956339D+01
   yx         0.154429D+02      0.228841D+01      0.254619D+01
   yy         0.644415D+02      0.954924D+01      0.106250D+02
   zx        -0.735624D+01     -0.109008D+01     -0.121288D+01
   zy        -0.929795D+01     -0.137781D+01     -0.153303D+01
   zz         0.782623D+02      0.115973D+02      0.129037D+02

 ----------------------------------------------------------------------
 1\1\GINC-AJ\Freq\UM062X\6-31+G\C5H7O3(2)\AAYUSH\20-Jun-2025\0\\# freq 
 6-31+g m062x\\Title Card Required\\0,2\O,2.729524,-1.590893,0.016514\H
 ,1.787306,-1.749392,-0.16883\C,2.476768,0.729867,0.286208\H,3.529574,0
 .730959,0.446923\C,1.289812,0.764253,0.10894\C,-0.146897,0.748022,-0.1
 09525\O,-0.849551,1.717331,-0.079033\O,-0.562161,-0.501875,-0.353013\C
 ,-1.980977,-0.667338,-0.571741\C,-2.735115,-0.688957,0.742841\H,-2.058
 425,-1.616824,-1.098348\H,-2.327478,0.13796,-1.220107\H,-3.791724,-0.8
 87325,0.553288\H,-2.34742,-1.475019,1.3925\H,-2.651904,0.271646,1.2513
 47\\Version=ES64L-G16RevA.03\State=2-A\HF=-419.9651605\S2=0.755613\S2-
 1=0.\S2A=0.750023\RMSD=6.241e-09\RMSF=1.313e-02\ZeroPoint=0.1123117\Th
 ermal=0.1210947\Dipole=-0.7486568,-0.6012147,-0.1151303\DipoleDeriv=-0
 .1527799,-0.0654167,0.0440942,0.0958683,-0.2496426,0.0414642,0.0686098
 ,0.0150036,-0.4417188,0.1066847,-0.0174073,-0.0562665,-0.1381494,0.419
 3295,-0.0145203,-0.0742625,0.0030946,0.3853302,-0.2287827,0.200837,0.0
 228184,0.0437948,-0.3167699,-0.0191999,-0.0041205,0.0095122,-0.1352806
 ,0.2937595,0.0093228,0.0073404,-0.0095258,0.275143,0.0039469,0.0065855
 ,0.0058914,0.2403781,-0.6682153,-0.1703828,-0.0967417,-0.0350185,-0.20
 41799,-0.0164338,-0.1009911,-0.045791,-0.0988002,2.0243704,-0.073386,0
 .1819895,0.4655978,1.8291699,0.1570687,0.2808897,0.1709394,0.453853,-0
 .8919577,0.3607285,-0.0255381,0.0756042,-0.9938633,-0.0306763,-0.05335
 18,-0.0152865,-0.3606805,-1.2942442,-0.4030555,-0.0641435,-0.6382873,-
 1.1265428,-0.1210382,-0.1650952,-0.1686639,-0.428612,0.835926,0.258956
 8,0.0098409,0.1703552,0.3308541,0.0007432,0.0296301,0.0661105,0.348976
 2,-0.0978878,-0.0567498,0.0273905,-0.0290673,0.0114795,-0.0176981,0.06
 78925,-0.0410016,-0.0924258,0.0108896,0.0000106,0.0289128,-0.0464546,-
 0.0462898,-0.0997681,-0.0009884,-0.0735392,0.0275947,-0.0145755,-0.045
 569,0.0020389,0.0446783,0.0099726,0.1070459,-0.0119588,0.042821,-0.001
 0754,-0.1192094,-0.0534569,-0.0187969,-0.0469457,0.1036934,-0.0026846,
 -0.0438664,0.0016013,0.0727382,0.0708175,0.0853663,-0.0489198,0.047511
 4,-0.0088426,0.0939064,0.0026048,0.0652892,-0.002815,0.1252048,-0.0297
 979,-0.0140192,0.0000385,-0.0335112,-0.0821559,-0.0015778,-0.035981,0.
 032538\Polar=88.9866678,-2.1648619,65.7860931,3.8549972,1.5280249,45.9
 338935\Quadrupole=2.8986924,-3.3649126,0.4662203,6.9476091,1.1761199,0
 .8225694\PG=C01 [X(C5H7O3)]\NImag=3\\0.48599665,0.07726072,0.02581140,
 0.09661125,0.01797112,0.01077259,-0.48272190,-0.08283391,-0.09658736,0
 .48095587,-0.07717962,-0.00999460,-0.01554894,0.08036566,0.01713340,-0
 .09579443,-0.01653934,-0.01200308,0.09587653,0.01701476,0.01259595,0.0
 0016883,-0.00681094,-0.00092903,-0.00097445,-0.00129806,-0.00035888,1.
 59366917,-0.00094905,-0.00496108,-0.00095012,0.00144711,-0.00286925,-0
 .00016454,-0.01291542,0.06168180,-0.00020729,-0.00175079,0.00009234,0.
 00002371,-0.00069779,0.00029961,0.23017420,-0.00418086,0.11113039,-0.0
 0053039,0.00130629,0.00012103,0.00012379,-0.00072567,-0.00012285,-0.42
 565655,-0.00162992,-0.05962903,0.41496260,-0.00155903,-0.00410789,-0.0
 0078898,0.00017465,-0.00052022,-0.00005979,-0.00321652,-0.02859694,0.0
 0073631,0.00101751,0.02047172,-0.00025555,-0.00032456,-0.00021106,-0.0
 0001186,-0.00021404,0.00022165,-0.05977187,0.00096554,-0.04636109,0.06
 045887,0.00011365,0.02982394,-0.00240567,0.01164519,0.00087505,0.00081
 152,-0.00099802,0.00013452,-1.17120604,0.01511999,-0.16856198,0.012282
 23,0.00343307,0.00004803,1.52428452,0.00205323,-0.00700904,-0.00080712
 ,0.00163020,-0.00255746,-0.00001762,0.02051403,-0.03525366,0.00603258,
 -0.00010735,0.00874600,-0.00081080,-0.01772983,0.12995653,-0.00038967,
 0.00064345,0.00157002,0.00052229,-0.00040204,-0.00070111,-0.16782885,0
 .00528331,-0.08004956,-0.00033553,-0.00027986,0.01440688,0.21560890,0.
 00181927,0.12818659,-0.00048920,-0.00247890,-0.00025930,0.00263400,0.0
 0385769,0.00073458,0.01038166,-0.00056591,-0.00122511,-0.00205028,0.00
 050119,-0.00075719,-0.27535541,-0.00607297,-0.02673072,0.80457919,-0.0
 0118753,0.00054236,0.00007076,0.00357790,-0.00152099,0.00006378,0.0076
 4005,0.00900397,-0.00014035,-0.00033026,0.00418947,0.00006539,-0.02040
 576,-0.07172072,0.00125972,-0.24404269,0.90763790,-0.00008899,-0.00017
 018,-0.00091324,0.00068449,0.00019571,0.00127123,-0.00038339,-0.001546
 36,0.01829669,-0.00087708,0.00017882,0.00328395,-0.02859992,0.00407025
 ,-0.10739995,0.05735858,0.06237130,0.22015914,-0.00001809,0.00081666,0
 .00010394,-0.00041967,-0.00168806,-0.00030599,-0.00388214,-0.00120330,
 -0.00045177,0.00041675,-0.00151625,-0.00001137,-0.05109181,0.04993195,
 -0.00501378,-0.36171249,0.36480931,0.00595258,0.38836080,0.00048757,-0
 .00052979,-0.00002204,-0.00122579,0.00085190,-0.00003816,-0.00368445,0
 .00037444,-0.00019769,-0.00009600,-0.00007283,0.00007978,0.03383946,-0
 .00385225,0.00055530,0.35584668,-0.55886887,-0.01621492,-0.41775205,0.
 66825602,0.00005755,0.00003498,0.00008392,-0.00023977,-0.00012825,-0.0
 0006287,-0.00080139,0.00014011,-0.00208800,0.00015892,-0.00012112,-0.0
 0075164,-0.00723152,0.00305317,0.02665156,0.00412188,-0.01336850,-0.06
 363758,-0.00177846,0.02942031,0.01707919,-0.00010063,0.00123789,0.0000
 0549,-0.00006142,-0.00261956,-0.00005800,-0.00389539,0.00150964,-0.000
 24011,0.00062968,0.00106294,0.00032082,-0.04028823,-0.05041140,-0.0159
 3417,-0.14050528,-0.09361576,-0.02411053,0.02874940,0.02334420,0.00203
 864,0.45107288,0.00088983,0.00046519,0.00007012,-0.00258820,-0.0013468
 3,-0.00027804,-0.00010033,0.00088656,0.00022079,0.00063906,-0.00035121
 ,0.00008543,-0.02407227,-0.01484133,-0.00765612,-0.05264317,-0.2774346
 9,-0.03684953,0.01162913,-0.10637698,-0.01908983,0.11691684,0.47896643
 ,0.00005699,0.00016696,0.00071646,-0.00016753,-0.00033527,-0.00178579,
 -0.00025413,0.00053107,-0.00082651,0.00022260,0.00010204,-0.00019955,-
 0.01160450,-0.01158970,0.01096369,-0.01927064,-0.04472117,-0.06961713,
 0.00101693,-0.01624087,0.02707676,0.07034520,0.07302565,0.09522887,0.0
 0012933,-0.00035624,0.00001390,-0.00052949,0.00096749,-0.00002624,0.00
 215495,-0.00097509,0.00014419,-0.00034455,0.00001247,-0.00007171,0.004
 32997,0.00261696,0.00129598,-0.02974290,-0.03722253,-0.01142800,-0.005
 50990,0.01623028,0.00185074,-0.19973906,-0.02231013,-0.02876080,0.4557
 3785,0.00019551,-0.00024046,-0.00001887,-0.00050856,0.00094716,0.00009
 903,0.00005120,-0.00022148,0.00009780,-0.00013445,0.00022523,0.0000357
 5,-0.00077639,-0.00345738,-0.00141663,-0.05308506,-0.01429039,-0.01205
 241,-0.00150788,0.00206314,0.00046984,0.01213528,-0.08612431,0.0001374
 8,-0.00970397,0.66845951,0.00000519,-0.00006885,-0.00013737,-0.0000627
 7,0.00025779,0.00022495,0.00029075,-0.00005819,-0.00070147,-0.00003917
 ,0.00011995,-0.00021707,-0.00084109,-0.00175543,0.00730355,-0.01283987
 ,-0.01288513,-0.00327892,-0.00273654,0.00310687,-0.00488483,-0.0229427
 1,-0.00339967,-0.06727930,0.02625927,0.00811838,0.56192269,-0.00001156
 ,0.00011662,0.00002141,0.00009345,-0.00032567,0.00001986,-0.00032004,0
 .00011463,0.00000073,0.00008379,-0.00000097,0.00011045,-0.00040230,-0.
 00049036,-0.00188277,0.00013150,0.00685605,0.00282164,0.00069409,-0.00
 272407,0.00117755,-0.04282399,-0.00792243,0.03261362,-0.09795013,0.001
 09124,0.04365808,0.57311564,-0.00004649,-0.00000493,0.00007512,0.00003
 535,-0.00001527,-0.00014764,0.00006227,-0.00009286,-0.00014599,0.00001
 623,0.00002877,0.00004719,0.00000946,0.00002348,0.00011987,-0.00175519
 ,0.00230452,0.00150037,0.00106002,0.00003178,-0.00064870,-0.00619607,0
 .00191610,0.00561350,0.00125131,-0.09000887,-0.00162954,-0.00129693,0.
 60354079,0.00000743,0.00004363,-0.00002059,0.00001112,-0.00015919,0.00
 005207,-0.00026070,-0.00003838,0.00009201,0.00003459,-0.00000227,0.000
 01999,0.00021917,0.00006908,-0.00082508,-0.00146194,0.00493699,0.00180
 617,0.00212341,-0.00102378,-0.00092470,-0.00457091,-0.00359712,0.00924
 697,0.05642236,0.00137102,-0.19586923,0.04502406,0.00367850,0.53110995
 ,0.00001485,0.00003113,0.00003092,-0.00012359,-0.00014179,-0.00010842,
 -0.00049848,0.00012018,-0.00003965,0.00005202,0.00005447,-0.00001851,-
 0.00073283,-0.00146962,0.00013779,-0.00637505,0.00421752,-0.00235389,0
 .00228212,-0.00059867,0.00047632,-0.02175909,-0.04108011,-0.01947691,-
 0.04448977,-0.00325923,-0.00458360,0.00238105,0.01598259,0.00918214,0.
 06658292,-0.00000508,0.00002452,0.00004677,0.00000809,-0.00006963,-0.0
 0008335,-0.00017341,0.00006098,0.00005424,0.00002458,-0.00001980,-0.00
 000776,-0.00028446,-0.00006266,-0.00036279,0.00158852,0.00068932,-0.00
 016446,-0.00148578,0.00018658,-0.00035802,-0.00170035,-0.00290860,-0.0
 0015560,-0.01631621,-0.27099724,-0.11631814,0.00060165,0.00357021,0.00
 299567,0.01905930,0.28701309,0.00002869,0.00003062,-0.00003653,-0.0000
 9270,-0.00009448,0.00006268,-0.00007506,0.00009027,-0.00001164,0.00000
 149,-0.00001417,-0.00000327,-0.00029683,-0.00035156,0.00007633,-0.0005
 3068,0.00313158,0.00012313,0.00121909,-0.00001010,0.00057069,-0.003629
 27,-0.00694600,-0.00158491,-0.00978244,-0.11449818,-0.11587217,0.00048
 783,-0.02735888,-0.01587443,0.00851372,0.12694342,0.12384181,-0.000050
 49,0.00009077,0.00004566,0.00022906,-0.00026309,-0.00008289,-0.0000343
 7,-0.00006515,0.00005281,0.00006306,0.00003597,-0.00003719,-0.00023300
 ,-0.00032194,0.00038393,-0.00005008,0.00837656,0.00029971,0.00190175,-
 0.00271791,0.00011393,-0.03388241,0.02116450,-0.02570846,-0.07272126,0
 .05577337,-0.04617554,0.00758904,-0.01362068,0.01283471,0.00290209,-0.
 00148263,0.00197843,0.09525864,0.00001151,-0.00000072,-0.00004164,-0.0
 0003649,-0.00001249,0.00005367,0.00009122,-0.00002836,-0.00009061,0.00
 001554,0.00002631,-0.00003761,0.00024137,-0.00014369,0.00092681,-0.002
 47169,0.00102071,-0.00086614,-0.00109272,-0.00154559,-0.00132077,-0.00
 275187,0.00585284,-0.00591997,0.06640617,-0.20864447,0.12428030,-0.000
 17927,0.00144662,-0.00201984,0.00834440,-0.01930168,0.01787853,-0.0678
 2302,0.21983416,-0.00001119,-0.00000866,0.00001179,0.00001658,0.000004
 02,-0.00002634,0.00017775,-0.00004994,0.00011126,0.00000300,0.00003493
 ,-0.00000996,0.00023349,-0.00026913,-0.00020040,-0.00187449,0.00388379
 ,0.00117873,0.00238274,-0.00092410,0.00004570,-0.00603776,0.00183963,-
 0.00216248,-0.05010543,0.11768270,-0.14755704,-0.00725244,0.02328639,-
 0.01871851,0.00598073,-0.01283754,0.01090570,0.05415628,-0.13226141,0.
 15856284,-0.00001618,0.00003936,0.00002165,0.00004388,-0.00009287,-0.0
 0003229,-0.00010593,0.00001852,-0.00000421,0.00003876,-0.00000342,0.00
 000612,-0.00024188,-0.00007056,-0.00024691,0.00088448,0.00244343,0.000
 38037,0.00029858,-0.00070713,0.00007863,-0.00191448,-0.00154089,0.0038
 8003,-0.01594861,-0.00306475,-0.00716215,-0.30597120,-0.04871184,-0.04
 602820,0.00029565,0.00057649,0.00001338,0.00036658,-0.00039167,0.00016
 806,0.33501231,0.00000714,0.00000676,-0.00001310,-0.00000768,-0.000017
 36,0.00002592,-0.00006186,0.00000265,0.00005295,0.00000847,-0.00000405
 ,-0.00000331,-0.00001932,0.00006828,-0.00028941,0.00078484,-0.00053832
 ,-0.00029754,-0.00053795,-0.00003714,0.00061644,0.00063772,0.00112137,
 0.00008702,-0.00032087,-0.00113259,-0.00053716,-0.04921280,-0.05671831
 ,-0.00894538,0.00000110,-0.00008009,0.00011230,0.00003702,-0.00012598,
 0.00018262,0.05394894,0.05723170,-0.00000551,-0.00002428,0.00003783,-0
 .00002076,0.00007840,-0.00005858,0.00010673,0.00000154,-0.00001557,-0.
 00000950,-0.00000519,-0.00002464,0.00008583,0.00019081,0.00047240,0.00
 061638,-0.00270344,-0.00118118,-0.00083572,0.00085523,0.00017700,0.006
 97551,0.00191703,-0.00520460,0.02888162,0.00562462,0.00692002,-0.04898
 750,-0.00909636,-0.05829529,-0.00063363,-0.00069000,0.00110576,-0.0009
 4442,0.00062273,0.00085071,0.05027272,0.00985402,0.06106596,0.00002821
 ,-0.00002328,-0.00004620,-0.00005744,0.00004344,0.00008370,0.00003605,
 0.00000470,-0.00001004,-0.00002622,-0.00000672,-0.00000174,0.00009808,
 0.00001295,0.00010121,-0.00032467,-0.00156845,-0.00018097,-0.00033948,
 0.00050007,0.00004077,0.00297762,0.00088229,-0.00112085,0.00423849,-0.
 01446386,0.01512090,-0.08510754,0.07297579,-0.06087907,0.00046380,-0.0
 0000660,-0.00110767,-0.00151022,-0.00006433,0.00329251,-0.01080982,0.0
 2502432,-0.01970235,0.08944785,0.00002114,-0.00000391,-0.00006917,-0.0
 0001926,0.00001017,0.00010288,-0.00008050,0.00000079,-0.00000512,-0.00
 000527,-0.00001056,0.00001468,-0.00009526,0.00008138,-0.00014937,0.000
 46414,-0.00108712,0.00035473,-0.00081997,0.00024640,0.00032841,-0.0006
 9984,-0.00005415,-0.00067534,0.00066313,0.00106051,-0.00108784,0.07236
 940,-0.19605801,0.11728483,-0.00062612,0.00061944,0.00000899,0.0004353
 3,0.00109874,-0.00045642,-0.00339115,0.00465475,-0.00499965,-0.0800558
 9,0.20906576,-0.00001795,-0.00001628,0.00002907,0.00005782,0.00006922,
 -0.00006143,0.00006339,-0.00005842,0.00003321,-0.00000360,0.00001625,0
 .00000002,0.00004066,0.00009737,-0.00014390,-0.00010248,0.00032513,0.0
 0006654,0.00003896,-0.00030362,0.00015101,-0.00153156,-0.00144351,0.00
 298221,-0.01163000,0.02486959,-0.02256184,-0.05753717,0.11545518,-0.14
 385383,-0.00046167,-0.00028865,0.00098374,0.00359902,-0.00108554,-0.00
 402846,-0.00129417,0.00387522,-0.00320452,0.06232448,-0.12955690,0.159
 63272,0.00000623,-0.00004137,-0.00002840,-0.00000363,0.00009812,0.0000
 4079,0.00016273,-0.00003091,-0.00002645,-0.00004471,0.00001064,-0.0000
 0730,0.00015084,-0.00008529,0.00031231,-0.00200547,0.00045215,0.000525
 39,0.00027008,-0.00074219,-0.00006378,0.00154039,0.00013588,-0.0017715
 5,0.00038508,0.01725752,0.01204923,-0.05150178,-0.01976583,-0.01265817
 ,-0.00099569,-0.00040409,0.00327203,0.00017162,-0.00029916,-0.00112982
 ,-0.00193213,-0.03028905,-0.01579939,0.00088530,0.01184012,0.00645426,
 0.05291114,0.00000013,0.00000220,0.00002608,-0.00001908,-0.00001854,-0
 .00003156,-0.00001728,0.00001241,0.00001454,0.00000122,-0.00000400,-0.
 00000931,0.00009277,0.00002251,-0.00005151,0.00007252,0.00007285,-0.00
 050964,-0.00064311,-0.00072682,0.00097195,0.00115036,0.00022961,-0.000
 02580,-0.00094276,0.00236164,0.00185666,-0.01899708,-0.26996402,-0.114
 59376,-0.00063514,0.00127554,0.00107767,0.00038090,0.00052358,-0.00010
 689,0.00094751,-0.00443168,-0.00162547,-0.00325442,-0.01962420,-0.0119
 5506,0.02186347,0.29026891,0.00000350,0.00001217,0.00000784,-0.0000098
 0,-0.00003989,-0.00002894,-0.00014953,0.00003499,-0.00000166,0.0000162
 7,-0.00003057,0.00002186,-0.00010979,0.00026882,-0.00031103,0.00222102
 ,-0.00228984,-0.00015758,-0.00170401,0.00095777,0.00051379,-0.00063064
 ,0.00210118,0.00244532,-0.00306345,-0.03052010,-0.01801199,-0.01027537
 ,-0.11074900,-0.10794550,0.00335465,0.00122621,-0.00428688,-0.00051598
 ,-0.00011851,0.00103645,-0.00005302,-0.00472060,-0.00264529,0.00208531
 ,0.01890528,0.00997546,0.00883083,0.12496209,0.11938815\\-0.01619782,0
 .00401693,-0.00225168,0.01647231,0.00287501,0.00322911,-0.02112567,-0.
 00659776,-0.00407454,-0.00101734,0.00005862,-0.00016502,0.02550475,0.0
 0021719,0.00391609,-0.05118939,0.01599624,-0.00555363,0.03303721,-0.03
 832088,-0.00029737,-0.00274348,0.01502954,0.00170238,0.01467976,0.0074
 9848,0.00461959,0.00029826,0.00008214,-0.00009193,0.00013668,0.0007191
 5,0.00049255,0.00076106,-0.00125996,0.00079542,0.00149936,0.00012176,-
 0.00027975,-0.00039763,0.00079134,-0.00088788,0.00028195,-0.00122781,-
 0.00115332\\\@


 A SOLDIER'S LIFE IS A LIFE OF HONOR, BUT A DOG WOULD NOT LEAD IT.
 -- PRINCE RUPERT, FOUNDER OF THE HUDSON'S BAY COMPANY
 Job cpu time:       0 days  0 hours 18 minutes 56.7 seconds.
 Elapsed time:       0 days  0 hours  0 minutes 47.4 seconds.
 File lengths (MBytes):  RWF=     59 Int=      0 D2E=      0 Chk=      8 Scr=      1
 Normal termination of Gaussian 16 at Fri Jun 20 14:27:13 2025.
