 Entering Gaussian System, Link 0=g16
 Initial command:
 /opt/g16/l1.exe "/home/aayush/scratches/g16/Gau-83059.inp" -scrdir="/home/aayush/scratches/g16/"
 Entering Link 1 = /opt/g16/l1.exe PID=     83062.
  
 Copyright (c) 1988,1990,1992,1993,1995,1998,2003,2009,2016,
            Gaussian, Inc.  All Rights Reserved.
  
 This is part of the Gaussian(R) 16 program.  It is based on
 the Gaussian(R) 09 system (copyright 2009, Gaussian, Inc.),
 the Gaussian(R) 03 system (copyright 2003, Gaussian, Inc.),
 the Gaussian(R) 98 system (copyright 1998, Gaussian, Inc.),
 the Gaussian(R) 94 system (copyright 1995, Gaussian, Inc.),
 the Gaussian 92(TM) system (copyright 1992, Gaussian, Inc.),
 the Gaussian 90(TM) system (copyright 1990, Gaussian, Inc.),
 the Gaussian 88(TM) system (copyright 1988, Gaussian, Inc.),
 the Gaussian 86(TM) system (copyright 1986, Carnegie Mellon
 University), and the Gaussian 82(TM) system (copyright 1983,
 Carnegie Mellon University). Gaussian is a federally registered
 trademark of Gaussian, Inc.
  
 This software contains proprietary and confidential information,
 including trade secrets, belonging to Gaussian, Inc.
  
 This software is provided under written license and may be
 used, copied, transmitted, or stored only in accord with that
 written license.
  
 The following legend is applicable only to US Government
 contracts under FAR:
  
                    RESTRICTED RIGHTS LEGEND
  
 Use, reproduction and disclosure by the US Government is
 subject to restrictions as set forth in subparagraphs (a)
 and (c) of the Commercial Computer Software - Restricted
 Rights clause in FAR 52.227-19.
  
 Gaussian, Inc.
 340 Quinnipiac St., Bldg. 40, Wallingford CT 06492
  
  
 ---------------------------------------------------------------
 Warning -- This program may not be used in any manner that
 competes with the business of Gaussian, Inc. or will provide
 assistance to any competitor of Gaussian, Inc.  The licensee
 of this program is prohibited from giving any competitor of
 Gaussian, Inc. access to this program.  By using this program,
 the user acknowledges that Gaussian, Inc. is engaged in the
 business of creating and licensing software in the field of
 computational chemistry and represents and warrants to the
 licensee that it is not a competitor of Gaussian, Inc. and that
 it will not use this program in any manner prohibited above.
 ---------------------------------------------------------------
  

 Cite this work as:
 Gaussian 16, Revision A.03,
 M. J. Frisch, G. W. Trucks, H. B. Schlegel, G. E. Scuseria, 
 M. A. Robb, J. R. Cheeseman, G. Scalmani, V. Barone, 
 G. A. Petersson, H. Nakatsuji, X. Li, M. Caricato, A. V. Marenich, 
 J. Bloino, B. G. Janesko, R. Gomperts, B. Mennucci, H. P. Hratchian, 
 J. V. Ortiz, A. F. Izmaylov, J. L. Sonnenberg, D. Williams-Young, 
 F. Ding, F. Lipparini, F. Egidi, J. Goings, B. Peng, A. Petrone, 
 T. Henderson, D. Ranasinghe, V. G. Zakrzewski, J. Gao, N. Rega, 
 G. Zheng, W. Liang, M. Hada, M. Ehara, K. Toyota, R. Fukuda, 
 J. Hasegawa, M. Ishida, T. Nakajima, Y. Honda, O. Kitao, H. Nakai, 
 T. Vreven, K. Throssell, J. A. Montgomery, Jr., J. E. Peralta, 
 F. Ogliaro, M. J. Bearpark, J. J. Heyd, E. N. Brothers, K. N. Kudin, 
 V. N. Staroverov, T. A. Keith, R. Kobayashi, J. Normand, 
 K. Raghavachari, A. P. Rendell, J. C. Burant, S. S. Iyengar, 
 J. Tomasi, M. Cossi, J. M. Millam, M. Klene, C. Adamo, R. Cammi, 
 J. W. Ochterski, R. L. Martin, K. Morokuma, O. Farkas, 
 J. B. Foresman, and D. J. Fox, Gaussian, Inc., Wallingford CT, 2016.
 
 ******************************************
 Gaussian 16:  ES64L-G16RevA.03 25-Dec-2016
                23-Jun-2025 
 ******************************************
 %nprocshared=24
 Will use up to   24 processors via shared memory.
 %mem=12GB
 %chk=ethyl_propiolate_ts1.chk
 --------------------------
 # freq 6-311++g(d,p) m062x
 --------------------------
 1/10=4,30=1,38=1/1,3;
 2/12=2,17=6,18=5,40=1/2;
 3/5=4,6=6,7=1111,11=2,25=1,30=1,71=2,74=-55,140=1/1,2,3;
 4//1;
 5/5=2,38=5,98=1/2;
 8/6=4,10=90,11=11/1;
 11/6=1,8=1,9=11,15=111,16=1/1,2,10;
 10/6=1/2;
 6/7=2,8=2,9=2,10=2,28=1/1;
 7/8=1,10=1,25=1/1,2,3,16;
 1/10=4,30=1/3;
 99//99;
 -------------------
 Title Card Required
 -------------------
 Symbolic Z-matrix:
 Charge =  0 Multiplicity = 2
 O                     2.78617  -1.4448    0.02455 
 H                     1.86296  -1.68282  -0.16594 
 C                     2.54121   0.6414    0.25783 
 H                     3.59135   0.70696   0.42697 
 C                     1.35483   0.79029   0.09541 
 C                    -0.08234   0.78449  -0.12124 
 O                    -0.7822    1.75594  -0.09302 
 O                    -0.49854  -0.46522  -0.36083 
 C                    -1.91694  -0.63252  -0.57915 
 C                    -2.67062  -0.65093   0.73558 
 H                    -1.99303  -1.58382  -1.10264 
 H                    -2.26428   0.17027  -1.23022 
 H                    -3.72695  -0.85159   0.54691 
 H                    -2.28149  -1.43423   1.38769 
 H                    -2.58888   0.31149   1.24095 
 

 GradGradGradGradGradGradGradGradGradGradGradGradGradGradGradGradGradGrad
 Berny optimization.
 Initialization pass.
 Trust Radius=3.00D-01 FncErr=1.00D-07 GrdErr=1.00D-07 EigMax=2.50D+02 EigMin=1.00D-04
 Number of steps in this run=      2 maximum allowed number of steps=      2.
 GradGradGradGradGradGradGradGradGradGradGradGradGradGradGradGradGradGrad

                          Input orientation:                          
 ---------------------------------------------------------------------
 Center     Atomic      Atomic             Coordinates (Angstroms)
 Number     Number       Type             X           Y           Z
 ---------------------------------------------------------------------
      1          8           0        2.786166   -1.444803    0.024554
      2          1           0        1.862963   -1.682822   -0.165941
      3          6           0        2.541211    0.641399    0.257829
      4          1           0        3.591348    0.706964    0.426972
      5          6           0        1.354834    0.790291    0.095413
      6          6           0       -0.082338    0.784488   -0.121237
      7          8           0       -0.782195    1.755936   -0.093021
      8          8           0       -0.498542   -0.465216   -0.360826
      9          6           0       -1.916936   -0.632520   -0.579148
     10          6           0       -2.670624   -0.650926    0.735583
     11          1           0       -1.993025   -1.583816   -1.102642
     12          1           0       -2.264282    0.170270   -1.230224
     13          1           0       -3.726948   -0.851586    0.546911
     14          1           0       -2.281491   -1.434229    1.387685
     15          1           0       -2.588881    0.311487    1.240945
 ---------------------------------------------------------------------
                    Distance matrix (angstroms):
                    1          2          3          4          5
     1  O    0.000000
     2  H    0.972237   0.000000
     3  C    2.113447   2.457968   0.000000
     4  H    2.332458   3.008311   1.065690   0.000000
     5  C    2.655066   2.538265   1.206664   2.262492   0.000000
     6  C    3.635837   3.142262   2.654652   3.715173   1.453422
     7  O    4.794972   4.339036   3.522828   4.527539   2.352631
     8  O    3.449263   2.664067   3.293544   4.326873   2.284613
     9  C    4.810762   3.944808   4.711526   5.757403   3.630964
    10  C    5.559888   4.736134   5.390879   6.414936   4.323336
    11  H    4.912287   3.969364   5.230847   6.226766   4.275498
    12  H    5.448849   4.647666   5.052626   6.109234   3.903811
    13  H    6.560901   5.696158   6.449991   7.483376   5.359489
    14  H    5.247798   4.433063   5.370592   6.324390   4.454359
    15  H    5.784055   5.076959   5.233852   6.246134   4.134536
                    6          7          8          9         10
     6  C    0.000000
     7  O    1.197626   0.000000
     8  O    1.338801   2.255148   0.000000
     9  C    2.362910   2.688620   1.444817   0.000000
    10  C    3.081198   3.169500   2.440193   1.515553   0.000000
    11  H    3.197303   3.693154   2.008740   1.088485   2.169907
    12  H    2.523489   2.450337   2.068220   1.090422   2.168842
    13  H    4.050474   3.985004   3.375777   2.142928   1.091642
    14  H    3.469269   3.823288   2.678653   2.155010   1.090974
    15  H    2.891717   2.670208   2.745625   2.157637   1.090097
                   11         12         13         14         15
    11  H    0.000000
    12  H    1.779515   0.000000
    13  H    2.502733   2.518291   0.000000
    14  H    2.511437   3.070531   1.770796   0.000000
    15  H    3.072396   2.496394   1.769073   1.778636   0.000000
 Stoichiometry    C5H7O3(2)
 Framework group  C1[X(C5H7O3)]
 Deg. of freedom    39
 Full point group                 C1      NOp   1
 Largest Abelian subgroup         C1      NOp   1
 Largest concise Abelian subgroup C1      NOp   1
                         Standard orientation:                         
 ---------------------------------------------------------------------
 Center     Atomic      Atomic             Coordinates (Angstroms)
 Number     Number       Type             X           Y           Z
 ---------------------------------------------------------------------
      1          8           0        2.786166   -1.444803    0.024554
      2          1           0        1.862963   -1.682822   -0.165941
      3          6           0        2.541211    0.641399    0.257829
      4          1           0        3.591348    0.706964    0.426972
      5          6           0        1.354834    0.790291    0.095413
      6          6           0       -0.082338    0.784488   -0.121237
      7          8           0       -0.782195    1.755936   -0.093021
      8          8           0       -0.498542   -0.465216   -0.360826
      9          6           0       -1.916936   -0.632520   -0.579148
     10          6           0       -2.670624   -0.650926    0.735583
     11          1           0       -1.993025   -1.583816   -1.102642
     12          1           0       -2.264282    0.170270   -1.230224
     13          1           0       -3.726948   -0.851586    0.546911
     14          1           0       -2.281491   -1.434229    1.387685
     15          1           0       -2.588881    0.311487    1.240945
 ---------------------------------------------------------------------
 Rotational constants (GHZ):           3.4884872           1.1506714           0.9308116
 Standard basis: 6-311++G(d,p) (5D, 7F)
 There are   233 symmetry adapted cartesian basis functions of A   symmetry.
 There are   225 symmetry adapted basis functions of A   symmetry.
   225 basis functions,   351 primitive gaussians,   233 cartesian basis functions
    31 alpha electrons       30 beta electrons
       nuclear repulsion energy       350.8964527380 Hartrees.
 NAtoms=   15 NActive=   15 NUniq=   15 SFac= 1.00D+00 NAtFMM=   60 NAOKFM=F Big=F
 Integral buffers will be    131072 words long.
 Raffenetti 2 integral format.
 Two-electron integral symmetry is turned on.
 One-electron integrals computed using PRISM.
 NBasis=   225 RedAO= T EigKep=  1.22D-06  NBF=   225
 NBsUse=   225 1.00D-06 EigRej= -1.00D+00 NBFU=   225
 ExpMin= 3.60D-02 ExpMax= 8.59D+03 ExpMxC= 1.30D+03 IAcc=3 IRadAn=         5 AccDes= 0.00D+00
 Harris functional with IExCor= 1009 and IRadAn=       5 diagonalized for initial guess.
 HarFok:  IExCor= 1009 AccDes= 0.00D+00 IRadAn=         5 IDoV= 1 UseB2=F ITyADJ=14
 ICtDFT=  3500011 ScaDFX=  1.000000  1.000000  1.000000  1.000000
 FoFCou: FMM=F IPFlag=           0 FMFlag=      100000 FMFlg1=           0
         NFxFlg=           0 DoJE=T BraDBF=F KetDBF=T FulRan=T
         wScrn=  0.000000 ICntrl=       500 IOpCl=  0 I1Cent=   200000004 NGrid=           0
         NMat0=    1 NMatS0=      1 NMatT0=    0 NMatD0=    1 NMtDS0=    0 NMtDT0=    0
 Petite list used in FoFCou.
 Initial guess <Sx>= 0.0000 <Sy>= 0.0000 <Sz>= 0.5000 <S**2>= 0.7500 S= 0.5000
 Requested convergence on RMS density matrix=1.00D-08 within 128 cycles.
 Requested convergence on MAX density matrix=1.00D-06.
 Requested convergence on             energy=1.00D-06.
 No special actions if energy rises.
 Restarting incremental Fock formation.
 SCF Done:  E(UM062X) =  -420.205824599     A.U. after   23 cycles
            NFock= 23  Conv=0.90D-08     -V/T= 2.0032
 <Sx>= 0.0000 <Sy>= 0.0000 <Sz>= 0.5000 <S**2>= 0.7641 S= 0.5070
 <L.S>=  0.00000000000    
 Annihilation of the first spin contaminant:
 S**2 before annihilation     0.7641,   after     0.7501
 DoSCS=F DFT=T ScalE2(SS,OS)=  1.000000  1.000000
 Range of M.O.s used for correlation:     1   225
 NBasis=   225 NAE=    31 NBE=    30 NFC=     0 NFV=     0
 NROrb=    225 NOA=    31 NOB=    30 NVA=   194 NVB=   195

 **** Warning!!: The largest alpha MO coefficient is  0.24462105D+03


 **** Warning!!: The largest beta MO coefficient is  0.24273730D+03

 Symmetrizing basis deriv contribution to polar:
 IMax=3 JMax=2 DiffMx= 0.00D+00
 G2DrvN: will do    16 centers at a time, making    1 passes.
 Calling FoFCou, ICntrl=  3107 FMM=F I1Cent=   0 AccDes= 0.00D+00.
 End of G2Drv F.D. properties file   721 does not exist.
 End of G2Drv F.D. properties file   722 does not exist.
 End of G2Drv F.D. properties file   788 does not exist.
          IDoAtm=111111111111111
          Differentiating once with respect to electric field.
                with respect to dipole field.
          Differentiating once with respect to nuclear coordinates.
 Keep R1 and R2 ints in memory in canonical form, NReq=671901991.
          There are    48 degrees of freedom in the 1st order CPHF.  IDoFFX=6 NUNeed=     3.
     45 vectors produced by pass  0 Test12= 2.47D-14 2.08D-09 XBig12= 1.04D+02 4.04D+00.
 AX will form    45 AO Fock derivatives at one time.
     45 vectors produced by pass  1 Test12= 2.47D-14 2.08D-09 XBig12= 2.44D+01 6.16D-01.
     45 vectors produced by pass  2 Test12= 2.47D-14 2.08D-09 XBig12= 9.69D-01 1.29D-01.
     45 vectors produced by pass  3 Test12= 2.47D-14 2.08D-09 XBig12= 1.09D-02 1.27D-02.
     45 vectors produced by pass  4 Test12= 2.47D-14 2.08D-09 XBig12= 1.12D-04 1.13D-03.
     45 vectors produced by pass  5 Test12= 2.47D-14 2.08D-09 XBig12= 1.14D-06 1.23D-04.
     38 vectors produced by pass  6 Test12= 2.47D-14 2.08D-09 XBig12= 1.18D-08 1.12D-05.
     23 vectors produced by pass  7 Test12= 2.47D-14 2.08D-09 XBig12= 7.79D-11 6.58D-07.
      4 vectors produced by pass  8 Test12= 2.47D-14 2.08D-09 XBig12= 5.67D-13 7.31D-08.
      3 vectors produced by pass  9 Test12= 2.47D-14 2.08D-09 XBig12= 5.99D-15 8.25D-09.
      1 vectors produced by pass 10 Test12= 2.47D-14 2.08D-09 XBig12= 3.55D-16 2.14D-09.
 InvSVY:  IOpt=1 It=  1 EMax= 7.11D-15
 Solved reduced A of dimension   339 with    48 vectors.
 Isotropic polarizability for W=    0.000000       73.88 Bohr**3.
 End of Minotr F.D. properties file   721 does not exist.
 End of Minotr F.D. properties file   722 does not exist.
 End of Minotr F.D. properties file   788 does not exist.

 **********************************************************************

            Population analysis using the SCF density.

 **********************************************************************

 Orbital symmetries:
 Alpha Orbitals:
       Occupied  (A) (A) (A) (A) (A) (A) (A) (A) (A) (A) (A) (A)
                 (A) (A) (A) (A) (A) (A) (A) (A) (A) (A) (A) (A)
                 (A) (A) (A) (A) (A) (A) (A)
       Virtual   (A) (A) (A) (A) (A) (A) (A) (A) (A) (A) (A) (A)
                 (A) (A) (A) (A) (A) (A) (A) (A) (A) (A) (A) (A)
                 (A) (A) (A) (A) (A) (A) (A) (A) (A) (A) (A) (A)
                 (A) (A) (A) (A) (A) (A) (A) (A) (A) (A) (A) (A)
                 (A) (A) (A) (A) (A) (A) (A) (A) (A) (A) (A) (A)
                 (A) (A) (A) (A) (A) (A) (A) (A) (A) (A) (A) (A)
                 (A) (A) (A) (A) (A) (A) (A) (A) (A) (A) (A) (A)
                 (A) (A) (A) (A) (A) (A) (A) (A) (A) (A) (A) (A)
                 (A) (A) (A) (A) (A) (A) (A) (A) (A) (A) (A) (A)
                 (A) (A) (A) (A) (A) (A) (A) (A) (A) (A) (A) (A)
                 (A) (A) (A) (A) (A) (A) (A) (A) (A) (A) (A) (A)
                 (A) (A) (A) (A) (A) (A) (A) (A) (A) (A) (A) (A)
                 (A) (A) (A) (A) (A) (A) (A) (A) (A) (A) (A) (A)
                 (A) (A) (A) (A) (A) (A) (A) (A) (A) (A) (A) (A)
                 (A) (A) (A) (A) (A) (A) (A) (A) (A) (A) (A) (A)
                 (A) (A) (A) (A) (A) (A) (A) (A) (A) (A) (A) (A)
                 (A) (A)
 Beta  Orbitals:
       Occupied  (A) (A) (A) (A) (A) (A) (A) (A) (A) (A) (A) (A)
                 (A) (A) (A) (A) (A) (A) (A) (A) (A) (A) (A) (A)
                 (A) (A) (A) (A) (A) (A)
       Virtual   (A) (A) (A) (A) (A) (A) (A) (A) (A) (A) (A) (A)
                 (A) (A) (A) (A) (A) (A) (A) (A) (A) (A) (A) (A)
                 (A) (A) (A) (A) (A) (A) (A) (A) (A) (A) (A) (A)
                 (A) (A) (A) (A) (A) (A) (A) (A) (A) (A) (A) (A)
                 (A) (A) (A) (A) (A) (A) (A) (A) (A) (A) (A) (A)
                 (A) (A) (A) (A) (A) (A) (A) (A) (A) (A) (A) (A)
                 (A) (A) (A) (A) (A) (A) (A) (A) (A) (A) (A) (A)
                 (A) (A) (A) (A) (A) (A) (A) (A) (A) (A) (A) (A)
                 (A) (A) (A) (A) (A) (A) (A) (A) (A) (A) (A) (A)
                 (A) (A) (A) (A) (A) (A) (A) (A) (A) (A) (A) (A)
                 (A) (A) (A) (A) (A) (A) (A) (A) (A) (A) (A) (A)
                 (A) (A) (A) (A) (A) (A) (A) (A) (A) (A) (A) (A)
                 (A) (A) (A) (A) (A) (A) (A) (A) (A) (A) (A) (A)
                 (A) (A) (A) (A) (A) (A) (A) (A) (A) (A) (A) (A)
                 (A) (A) (A) (A) (A) (A) (A) (A) (A) (A) (A) (A)
                 (A) (A) (A) (A) (A) (A) (A) (A) (A) (A) (A) (A)
                 (A) (A) (A)
 The electronic state is 2-A.
 Alpha  occ. eigenvalues --  -19.69489 -19.66055 -19.64267 -10.71670 -10.61517
 Alpha  occ. eigenvalues --  -10.59114 -10.57953 -10.54547  -1.26661  -1.17518
 Alpha  occ. eigenvalues --   -1.12005  -0.91795  -0.88008  -0.79040  -0.71600
 Alpha  occ. eigenvalues --   -0.65521  -0.62415  -0.59549  -0.57462  -0.54692
 Alpha  occ. eigenvalues --   -0.53689  -0.50338  -0.49593  -0.47738  -0.46200
 Alpha  occ. eigenvalues --   -0.43044  -0.42141  -0.40013  -0.39451  -0.37576
 Alpha  occ. eigenvalues --   -0.34727
 Alpha virt. eigenvalues --   -0.02399  -0.00740   0.00785   0.01302   0.01642
 Alpha virt. eigenvalues --    0.02838   0.04649   0.04977   0.05294   0.06091
 Alpha virt. eigenvalues --    0.06569   0.07047   0.08136   0.08920   0.10209
 Alpha virt. eigenvalues --    0.10909   0.11874   0.12101   0.12253   0.13071
 Alpha virt. eigenvalues --    0.13478   0.14075   0.14476   0.15721   0.16010
 Alpha virt. eigenvalues --    0.16815   0.17896   0.18138   0.18754   0.20302
 Alpha virt. eigenvalues --    0.20480   0.20976   0.22263   0.23266   0.23412
 Alpha virt. eigenvalues --    0.25867   0.26465   0.27395   0.28810   0.29314
 Alpha virt. eigenvalues --    0.29979   0.31057   0.31755   0.32025   0.32830
 Alpha virt. eigenvalues --    0.33509   0.34193   0.36005   0.36293   0.37375
 Alpha virt. eigenvalues --    0.40305   0.42034   0.45712   0.45870   0.49726
 Alpha virt. eigenvalues --    0.50600   0.51542   0.55026   0.55757   0.57295
 Alpha virt. eigenvalues --    0.61402   0.62322   0.63544   0.65453   0.66551
 Alpha virt. eigenvalues --    0.66933   0.68639   0.69236   0.70731   0.72603
 Alpha virt. eigenvalues --    0.74052   0.76406   0.76988   0.78127   0.80995
 Alpha virt. eigenvalues --    0.84264   0.90000   0.91764   0.95977   1.00001
 Alpha virt. eigenvalues --    1.01607   1.05464   1.07249   1.07462   1.10756
 Alpha virt. eigenvalues --    1.12767   1.14361   1.16371   1.18572   1.20628
 Alpha virt. eigenvalues --    1.21234   1.22950   1.24803   1.28514   1.33027
 Alpha virt. eigenvalues --    1.34278   1.34396   1.36448   1.40616   1.43891
 Alpha virt. eigenvalues --    1.45408   1.48650   1.50881   1.51915   1.52629
 Alpha virt. eigenvalues --    1.57452   1.58752   1.59729   1.60790   1.63385
 Alpha virt. eigenvalues --    1.65455   1.67511   1.69585   1.73180   1.74680
 Alpha virt. eigenvalues --    1.80900   1.81498   1.83456   1.84755   1.86794
 Alpha virt. eigenvalues --    1.89344   1.94159   1.98829   2.02524   2.07340
 Alpha virt. eigenvalues --    2.09660   2.12152   2.12862   2.20011   2.30516
 Alpha virt. eigenvalues --    2.34838   2.40059   2.44462   2.50727   2.53004
 Alpha virt. eigenvalues --    2.55310   2.60159   2.61549   2.62033   2.63831
 Alpha virt. eigenvalues --    2.64637   2.66643   2.71100   2.73106   2.74292
 Alpha virt. eigenvalues --    2.78963   2.81995   2.85571   2.86914   2.91049
 Alpha virt. eigenvalues --    2.93903   2.96157   2.97691   3.00147   3.02058
 Alpha virt. eigenvalues --    3.08038   3.11988   3.14684   3.17993   3.18141
 Alpha virt. eigenvalues --    3.23550   3.24539   3.29254   3.32146   3.42554
 Alpha virt. eigenvalues --    3.43388   3.52925   3.64298   3.72060   3.84160
 Alpha virt. eigenvalues --    3.85450   3.89037   3.90291   4.02287   4.09912
 Alpha virt. eigenvalues --    4.16559   4.27088   5.05980   5.12409   5.12713
 Alpha virt. eigenvalues --    5.16172   5.30779   5.44901   5.57482   5.71321
 Alpha virt. eigenvalues --    5.93523  23.62291  23.92585  23.93495  24.05199
 Alpha virt. eigenvalues --   25.09105  49.94662  49.99098  50.10373
  Beta  occ. eigenvalues --  -19.69480 -19.64567 -19.64238 -10.71686 -10.61515
  Beta  occ. eigenvalues --  -10.59152 -10.57769 -10.54547  -1.26615  -1.17442
  Beta  occ. eigenvalues --   -1.05264  -0.91311  -0.87658  -0.78955  -0.71411
  Beta  occ. eigenvalues --   -0.65446  -0.62059  -0.59440  -0.57362  -0.54521
  Beta  occ. eigenvalues --   -0.51100  -0.50179  -0.47666  -0.46272  -0.42988
  Beta  occ. eigenvalues --   -0.40361  -0.39907  -0.39621  -0.37880  -0.36152
  Beta virt. eigenvalues --   -0.08869  -0.02352  -0.00628   0.00993   0.01346
  Beta virt. eigenvalues --    0.01794   0.02922   0.04923   0.05047   0.05690
  Beta virt. eigenvalues --    0.06479   0.06869   0.07110   0.08332   0.09039
  Beta virt. eigenvalues --    0.10776   0.11150   0.12056   0.12162   0.12286
  Beta virt. eigenvalues --    0.13116   0.13756   0.14159   0.14539   0.15788
  Beta virt. eigenvalues --    0.16166   0.17136   0.18009   0.18326   0.18791
  Beta virt. eigenvalues --    0.20438   0.20834   0.21274   0.22208   0.23361
  Beta virt. eigenvalues --    0.23625   0.25954   0.26194   0.27261   0.28744
  Beta virt. eigenvalues --    0.29371   0.30000   0.31044   0.31651   0.32007
  Beta virt. eigenvalues --    0.32772   0.33723   0.34100   0.36162   0.36498
  Beta virt. eigenvalues --    0.37511   0.40302   0.42131   0.45848   0.45953
  Beta virt. eigenvalues --    0.49759   0.50639   0.51684   0.55198   0.55833
  Beta virt. eigenvalues --    0.57542   0.61403   0.62607   0.63648   0.65557
  Beta virt. eigenvalues --    0.66732   0.67098   0.68706   0.69413   0.70823
  Beta virt. eigenvalues --    0.72671   0.74158   0.76505   0.77032   0.78437
  Beta virt. eigenvalues --    0.81006   0.84647   0.90187   0.91794   0.96076
  Beta virt. eigenvalues --    1.00147   1.01987   1.05928   1.08199   1.08429
  Beta virt. eigenvalues --    1.11212   1.13522   1.14577   1.16885   1.18962
  Beta virt. eigenvalues --    1.20926   1.22243   1.23071   1.24931   1.28684
  Beta virt. eigenvalues --    1.33733   1.34363   1.35248   1.36679   1.40853
  Beta virt. eigenvalues --    1.44362   1.45479   1.48763   1.50908   1.52760
  Beta virt. eigenvalues --    1.53604   1.57544   1.58827   1.59792   1.60858
  Beta virt. eigenvalues --    1.63482   1.65583   1.67809   1.69702   1.73247
  Beta virt. eigenvalues --    1.74740   1.81078   1.82234   1.83620   1.84933
  Beta virt. eigenvalues --    1.86875   1.89640   1.94308   1.98866   2.02641
  Beta virt. eigenvalues --    2.07465   2.09935   2.12243   2.13931   2.20029
  Beta virt. eigenvalues --    2.30538   2.34862   2.40153   2.44758   2.50730
  Beta virt. eigenvalues --    2.53011   2.55327   2.60059   2.61551   2.62071
  Beta virt. eigenvalues --    2.63883   2.64700   2.66537   2.70978   2.73345
  Beta virt. eigenvalues --    2.74295   2.79090   2.82178   2.86539   2.91041
  Beta virt. eigenvalues --    2.92079   2.94216   2.97681   2.99958   3.01052
  Beta virt. eigenvalues --    3.02163   3.09893   3.12276   3.14867   3.19248
  Beta virt. eigenvalues --    3.19751   3.24305   3.26766   3.29498   3.32191
  Beta virt. eigenvalues --    3.42614   3.43437   3.53017   3.64400   3.72156
  Beta virt. eigenvalues --    3.84165   3.85452   3.89971   3.92618   4.02348
  Beta virt. eigenvalues --    4.10095   4.16735   4.27111   5.07754   5.12611
  Beta virt. eigenvalues --    5.16204   5.21077   5.30877   5.44969   5.59805
  Beta virt. eigenvalues --    5.71397   5.93551  23.62334  23.92596  23.93508
  Beta virt. eigenvalues --   24.05200  25.09252  49.94173  49.99079  50.10349
          Condensed to atoms (all electrons):
               1          2          3          4          5          6
     1  O    8.101423   0.264283  -0.192443  -0.020774  -0.001939   0.128603
     2  H    0.264283   0.470976   0.156463   0.003615  -0.026319  -0.127081
     3  C   -0.192443   0.156463  22.189689   0.804389  -6.184467  -8.472909
     4  H   -0.020774   0.003615   0.804389   0.417253  -0.284868  -0.111623
     5  C   -0.001939  -0.026319  -6.184467  -0.284868  13.024752  -2.033330
     6  C    0.128603  -0.127081  -8.472909  -0.111623  -2.033330  16.071781
     7  O   -0.001498   0.001265   0.007640  -0.001060   0.157108   0.190171
     8  O    0.010802   0.008322   0.073655  -0.002361  -0.286774   0.005859
     9  C    0.003798  -0.002200  -0.272222  -0.000591  -0.444964   0.536038
    10  C   -0.002279   0.001477   0.038271  -0.000509   0.065162  -0.180180
    11  H    0.000152  -0.001316  -0.001048   0.000185   0.003979   0.012444
    12  H    0.000224  -0.000389   0.006852  -0.000058  -0.018239   0.004669
    13  H   -0.000053   0.000111  -0.000899  -0.000017   0.007206  -0.002145
    14  H    0.000532  -0.000782   0.002601   0.000060  -0.007160   0.006094
    15  H    0.000184  -0.000161  -0.012271  -0.000015  -0.050735   0.044014
               7          8          9         10         11         12
     1  O   -0.001498   0.010802   0.003798  -0.002279   0.000152   0.000224
     2  H    0.001265   0.008322  -0.002200   0.001477  -0.001316  -0.000389
     3  C    0.007640   0.073655  -0.272222   0.038271  -0.001048   0.006852
     4  H   -0.001060  -0.002361  -0.000591  -0.000509   0.000185  -0.000058
     5  C    0.157108  -0.286774  -0.444964   0.065162   0.003979  -0.018239
     6  C    0.190171   0.005859   0.536038  -0.180180   0.012444   0.004669
     7  O    8.013685  -0.136928   0.054696  -0.065761   0.004482  -0.021867
     8  O   -0.136928   8.395470   0.121026  -0.042310  -0.087116  -0.015782
     9  C    0.054696   0.121026   5.511751   0.003692   0.447138   0.404716
    10  C   -0.065761  -0.042310   0.003692   5.480081  -0.070510  -0.019925
    11  H    0.004482  -0.087116   0.447138  -0.070510   0.526626  -0.035054
    12  H   -0.021867  -0.015782   0.404716  -0.019925  -0.035054   0.509151
    13  H   -0.000725   0.015995  -0.047579   0.404043  -0.001152  -0.005087
    14  H    0.000971  -0.005621  -0.026516   0.407401  -0.009680   0.004869
    15  H    0.004886  -0.020837   0.011273   0.375198   0.011875  -0.010809
              13         14         15
     1  O   -0.000053   0.000532   0.000184
     2  H    0.000111  -0.000782  -0.000161
     3  C   -0.000899   0.002601  -0.012271
     4  H   -0.000017   0.000060  -0.000015
     5  C    0.007206  -0.007160  -0.050735
     6  C   -0.002145   0.006094   0.044014
     7  O   -0.000725   0.000971   0.004886
     8  O    0.015995  -0.005621  -0.020837
     9  C   -0.047579  -0.026516   0.011273
    10  C    0.404043   0.407401   0.375198
    11  H   -0.001152  -0.009680   0.011875
    12  H   -0.005087   0.004869  -0.010809
    13  H    0.527218  -0.032178  -0.031782
    14  H   -0.032178   0.540255  -0.046598
    15  H   -0.031782  -0.046598   0.541901
          Atomic-Atomic Spin Densities.
               1          2          3          4          5          6
     1  O    0.945377   0.002596  -0.042334   0.006235  -0.127152   0.057898
     2  H    0.002596  -0.027069   0.002671  -0.000932   0.026394  -0.014583
     3  C   -0.042334   0.002671  -0.463626   0.033036   0.332785   0.007183
     4  H    0.006235  -0.000932   0.033036   0.011397  -0.036429   0.003062
     5  C   -0.127152   0.026394   0.332785  -0.036429   0.800337  -0.677489
     6  C    0.057898  -0.014583   0.007183   0.003062  -0.677489   0.603469
     7  O   -0.001136   0.000521   0.002164  -0.000470   0.026750  -0.031721
     8  O    0.006561  -0.002110  -0.014076   0.000459  -0.084017   0.087206
     9  C    0.003561  -0.002926   0.006856   0.000614  -0.060685   0.037189
    10  C   -0.000998   0.001038  -0.000047  -0.000245   0.018702  -0.009126
    11  H    0.000372  -0.000466   0.000720   0.000067  -0.007324   0.004125
    12  H    0.000060  -0.000060  -0.002217   0.000013  -0.007445   0.008111
    13  H   -0.000013   0.000005   0.000544  -0.000004   0.001638  -0.001368
    14  H    0.000061  -0.000155  -0.000491   0.000019  -0.002348   0.001856
    15  H    0.000022  -0.000020  -0.000311   0.000014  -0.003110   0.002566
               7          8          9         10         11         12
     1  O   -0.001136   0.006561   0.003561  -0.000998   0.000372   0.000060
     2  H    0.000521  -0.002110  -0.002926   0.001038  -0.000466  -0.000060
     3  C    0.002164  -0.014076   0.006856  -0.000047   0.000720  -0.002217
     4  H   -0.000470   0.000459   0.000614  -0.000245   0.000067   0.000013
     5  C    0.026750  -0.084017  -0.060685   0.018702  -0.007324  -0.007445
     6  C   -0.031721   0.087206   0.037189  -0.009126   0.004125   0.008111
     7  O    0.018284  -0.004933  -0.004626   0.002129  -0.000366  -0.000425
     8  O   -0.004933   0.004248   0.004697  -0.001069   0.000206   0.000048
     9  C   -0.004626   0.004697   0.018150  -0.007574   0.002720   0.001994
    10  C    0.002129  -0.001069  -0.007574   0.000820  -0.001921  -0.000763
    11  H   -0.000366   0.000206   0.002720  -0.001921   0.001348   0.000371
    12  H   -0.000425   0.000048   0.001994  -0.000763   0.000371   0.000135
    13  H    0.000145   0.000081  -0.000179  -0.000460  -0.000175  -0.000115
    14  H   -0.000117  -0.000026   0.000960  -0.000156   0.000253   0.000067
    15  H   -0.000187   0.000058   0.000804  -0.000052   0.000182   0.000130
              13         14         15
     1  O   -0.000013   0.000061   0.000022
     2  H    0.000005  -0.000155  -0.000020
     3  C    0.000544  -0.000491  -0.000311
     4  H   -0.000004   0.000019   0.000014
     5  C    0.001638  -0.002348  -0.003110
     6  C   -0.001368   0.001856   0.002566
     7  O    0.000145  -0.000117  -0.000187
     8  O    0.000081  -0.000026   0.000058
     9  C   -0.000179   0.000960   0.000804
    10  C   -0.000460  -0.000156  -0.000052
    11  H   -0.000175   0.000253   0.000182
    12  H   -0.000115   0.000067   0.000130
    13  H    0.000003   0.000026  -0.000022
    14  H    0.000026  -0.000054  -0.000024
    15  H   -0.000022  -0.000024   0.000078
 Mulliken charges and spin densities:
               1          2
     1  O   -0.291015   0.851111
     2  H    0.251735  -0.015094
     3  C   -2.143301  -0.137142
     4  H    0.196373   0.016838
     5  C    2.080589   0.200605
     6  C   -0.072406   0.078380
     7  O   -0.207065   0.006011
     8  O   -0.033399  -0.002668
     9  C   -0.300056   0.001555
    10  C   -0.393851   0.000278
    11  H    0.198994   0.000114
    12  H    0.196730  -0.000095
    13  H    0.167042   0.000107
    14  H    0.165753  -0.000127
    15  H    0.183877   0.000129
 Sum of Mulliken charges =  -0.00000   1.00000
 Mulliken charges and spin densities with hydrogens summed into heavy atoms:
               1          2
     1  O   -0.039279   0.836016
     3  C   -1.946927  -0.120304
     5  C    2.080589   0.200605
     6  C   -0.072406   0.078380
     7  O   -0.207065   0.006011
     8  O   -0.033399  -0.002668
     9  C    0.095667   0.001574
    10  C    0.122820   0.000387
 APT charges:
               1
     1  O   -0.180913
     2  H    0.272567
     3  C   -0.320236
     4  H    0.250681
     5  C   -0.286119
     6  C    1.465547
     7  O   -0.781021
     8  O   -0.949256
     9  C    0.541331
    10  C   -0.043283
    11  H   -0.012698
    12  H   -0.011182
    13  H    0.011973
    14  H    0.010783
    15  H    0.031827
 Sum of APT charges =   0.00000
 APT charges with hydrogens summed into heavy atoms:
               1
     1  O    0.091654
     3  C   -0.069556
     5  C   -0.286119
     6  C    1.465547
     7  O   -0.781021
     8  O   -0.949256
     9  C    0.517451
    10  C    0.011300
 Electronic spatial extent (au):  <R**2>=           1231.7289
 Charge=             -0.0000 electrons
 Dipole moment (field-independent basis, Debye):
    X=             -1.7206    Y=             -1.3842    Z=             -0.2260  Tot=              2.2198
 Quadrupole moment (field-independent basis, Debye-Ang):
   XX=            -43.1188   YY=            -52.1295   ZZ=            -47.4569
   XY=              8.8290   XZ=              1.6362   YZ=              1.0433
 Traceless Quadrupole moment (field-independent basis, Debye-Ang):
   XX=              4.4496   YY=             -4.5611   ZZ=              0.1115
   XY=              8.8290   XZ=              1.6362   YZ=              1.0433
 Octapole moment (field-independent basis, Debye-Ang**2):
  XXX=             -5.1502  YYY=            -20.5509  ZZZ=             -3.3952  XYY=             -1.3154
  XXY=             15.0374  XXZ=              2.6130  XZZ=             -4.5641  YZZ=             -0.4229
  YYZ=             -2.3345  XYZ=              1.1629
 Hexadecapole moment (field-independent basis, Debye-Ang**3):
 XXXX=          -1047.1311 YYYY=           -355.4942 ZZZZ=           -113.2282 XXXY=             76.4910
 XXXZ=             29.6244 YYYX=             -9.1585 YYYZ=              4.9487 ZZZX=              2.9296
 ZZZY=             -0.0789 XXYY=           -266.6706 XXZZ=           -214.8328 YYZZ=            -74.7719
 XXYZ=              8.7343 YYXZ=             -1.2408 ZZXY=             -3.5006
 N-N= 3.508964527380D+02 E-N=-1.686216740433D+03  KE= 4.188712017787D+02
  Exact polarizability:  95.040  -6.999  76.367   2.721   1.742  50.221
 Approx polarizability: 104.719 -12.493  86.738   5.452   1.855  57.823
                          Isotropic Fermi Contact Couplings
        Atom                 a.u.       MegaHertz       Gauss      10(-4) cm-1
     1  O(17)              0.12486     -75.68683     -27.00694     -25.24641
     2  H(1)              -0.01423     -63.62133     -22.70167     -21.22179
     3  C(13)              0.01659      18.64499       6.65300       6.21930
     4  H(1)               0.00641      28.64277      10.22045       9.55420
     5  C(13)              0.03682      41.39561      14.77098      13.80809
     6  C(13)             -0.01032     -11.59788      -4.13841      -3.86864
     7  O(17)              0.00607      -3.67815      -1.31246      -1.22690
     8  O(17)              0.01067      -6.46622      -2.30731      -2.15690
     9  C(13)              0.00158       1.77877       0.63471       0.59333
    10  C(13)             -0.00001      -0.01418      -0.00506      -0.00473
    11  H(1)               0.00005       0.23882       0.08522       0.07966
    12  H(1)              -0.00003      -0.11656      -0.04159      -0.03888
    13  H(1)               0.00003       0.14000       0.04995       0.04670
    14  H(1)               0.00001       0.02264       0.00808       0.00755
    15  H(1)              -0.00000      -0.00990      -0.00353      -0.00330
 --------------------------------------------------------
       Center         ----  Spin Dipole Couplings  ----
                      3XX-RR        3YY-RR        3ZZ-RR
 --------------------------------------------------------
     1   Atom       -1.275663      2.928611     -1.652948
     2   Atom        0.131921     -0.025649     -0.106272
     3   Atom        0.055504     -0.022892     -0.032612
     4   Atom       -0.005853      0.012505     -0.006652
     5   Atom       -0.167989      0.283831     -0.115842
     6   Atom        0.007923      0.000760     -0.008684
     7   Atom        0.031754     -0.024855     -0.006899
     8   Atom        0.013992     -0.008881     -0.005111
     9   Atom        0.004688     -0.001941     -0.002747
    10   Atom        0.001903     -0.000877     -0.001026
    11   Atom        0.002034     -0.000835     -0.001199
    12   Atom        0.001881     -0.000892     -0.000990
    13   Atom        0.001160     -0.000545     -0.000615
    14   Atom        0.001724     -0.000859     -0.000865
    15   Atom        0.001655     -0.000812     -0.000842
 --------------------------------------------------------
                        XY            XZ            YZ
 --------------------------------------------------------
     1   Atom       -1.378778     -0.117455      0.391905
     2   Atom        0.052145      0.049854      0.021498
     3   Atom        0.002337      0.014207      0.002467
     4   Atom        0.010486      0.001629      0.004203
     5   Atom       -0.032427     -0.011469      0.047627
     6   Atom       -0.004095      0.002051      0.000687
     7   Atom        0.005826      0.006103     -0.001633
     8   Atom        0.006687      0.004121      0.000491
     9   Atom        0.001457      0.001086      0.000224
    10   Atom        0.000074     -0.000543     -0.000041
    11   Atom        0.000592      0.000906      0.000357
    12   Atom       -0.000414      0.001123     -0.000111
    13   Atom        0.000095     -0.000170     -0.000006
    14   Atom        0.000412     -0.000873     -0.000187
    15   Atom       -0.000274     -0.000777      0.000034
 --------------------------------------------------------


 ---------------------------------------------------------------------------------
              Anisotropic Spin Dipole Couplings in Principal Axis System
 ---------------------------------------------------------------------------------

       Atom             a.u.   MegaHertz   Gauss  10(-4) cm-1        Axes

              Baa    -1.6876   122.113    43.573    40.733  0.9286  0.2544  0.2701
     1 O(17)  Bbb    -1.6861   122.008    43.535    40.697 -0.2373 -0.1524  0.9594
              Bcc     3.3737  -244.121   -87.109   -81.430 -0.2853  0.9550  0.0811
 
              Baa    -0.1177   -62.821   -22.416   -20.955 -0.1672 -0.1334  0.9769
     2 H(1)   Bbb    -0.0409   -21.803    -7.780    -7.273 -0.3083  0.9482  0.0767
              Bcc     0.1586    84.624    30.196    28.228  0.9365  0.2883  0.1997
 
              Baa    -0.0352    -4.723    -1.685    -1.576 -0.1484 -0.1672  0.9747
     3 C(13)  Bbb    -0.0226    -3.037    -1.084    -1.013 -0.0586  0.9854  0.1601
              Bcc     0.0578     7.760     2.769     2.588  0.9872  0.0334  0.1560
 
              Baa    -0.0106    -5.671    -2.024    -1.892  0.9027 -0.4232  0.0774
     4 H(1)   Bbb    -0.0075    -3.976    -1.419    -1.326 -0.1451 -0.1303  0.9808
              Bcc     0.0181     9.647     3.442     3.218  0.4050  0.8966  0.1790
 
              Baa    -0.1716   -23.025    -8.216    -7.680  0.9861  0.0538  0.1569
     5 C(13)  Bbb    -0.1203   -16.142    -5.760    -5.384 -0.1491 -0.1275  0.9806
              Bcc     0.2919    39.167    13.976    13.065 -0.0728  0.9904  0.1177
 
              Baa    -0.0091    -1.220    -0.435    -0.407 -0.1496 -0.1306  0.9801
     6 C(13)  Bbb    -0.0008    -0.111    -0.040    -0.037  0.3821  0.9066  0.1791
              Bcc     0.0099     1.331     0.475     0.444  0.9119 -0.4013  0.0857
 
              Baa    -0.0257     1.861     0.664     0.621 -0.1129  0.9861  0.1221
     7 O(17)  Bbb    -0.0075     0.542     0.193     0.181 -0.1324 -0.1368  0.9817
              Bcc     0.0332    -2.404    -0.858    -0.802  0.9847  0.0947  0.1460
 
              Baa    -0.0108     0.779     0.278     0.260 -0.2774  0.9533  0.1194
     8 O(17)  Bbb    -0.0058     0.421     0.150     0.140 -0.1472 -0.1650  0.9752
              Bcc     0.0166    -1.200    -0.428    -0.400  0.9494  0.2529  0.1861
 
              Baa    -0.0029    -0.390    -0.139    -0.130 -0.1375 -0.0221  0.9903
     9 C(13)  Bbb    -0.0022    -0.302    -0.108    -0.101 -0.2047  0.9788 -0.0066
              Bcc     0.0051     0.691     0.247     0.231  0.9691  0.2036  0.1391
 
              Baa    -0.0011    -0.151    -0.054    -0.050  0.1728  0.1112  0.9787
    10 C(13)  Bbb    -0.0009    -0.118    -0.042    -0.039 -0.0469  0.9934 -0.1046
              Bcc     0.0020     0.269     0.096     0.090  0.9838  0.0278 -0.1768
 
              Baa    -0.0015    -0.803    -0.286    -0.268 -0.1810 -0.3336  0.9252
    11 H(1)   Bbb    -0.0009    -0.481    -0.172    -0.161 -0.2719  0.9210  0.2789
              Bcc     0.0024     1.284     0.458     0.428  0.9452  0.2011  0.2574
 
              Baa    -0.0014    -0.736    -0.263    -0.245 -0.3327 -0.0685  0.9405
    12 H(1)   Bbb    -0.0009    -0.505    -0.180    -0.168  0.1018  0.9889  0.1081
              Bcc     0.0023     1.241     0.443     0.414  0.9375 -0.1317  0.3220
 
              Baa    -0.0006    -0.337    -0.120    -0.112  0.0961 -0.0357  0.9947
    13 H(1)   Bbb    -0.0005    -0.293    -0.105    -0.098 -0.0512  0.9979  0.0407
              Bcc     0.0012     0.630     0.225     0.210  0.9941  0.0549 -0.0940
 
              Baa    -0.0011    -0.612    -0.218    -0.204  0.2483  0.2524  0.9352
    14 H(1)   Bbb    -0.0009    -0.487    -0.174    -0.162 -0.2158  0.9556 -0.2006
              Bcc     0.0021     1.099     0.392     0.367  0.9443  0.1521 -0.2917
 
              Baa    -0.0011    -0.572    -0.204    -0.191  0.2861  0.1802  0.9411
    15 H(1)   Bbb    -0.0008    -0.444    -0.158    -0.148  0.0450  0.9786 -0.2010
              Bcc     0.0019     1.016     0.362     0.339  0.9571 -0.0998 -0.2719
 

 ---------------------------------------------------------------------------------

 Calling FoFJK, ICntrl=    100127 FMM=F ISym2X=0 I1Cent= 0 IOpClX= 1 NMat=1 NMatS=1 NMatT=0.
 Full mass-weighted force constant matrix:
 Low frequencies --- -270.2353  -79.5152  -42.6807   -8.0390    0.0008    0.0009
 Low frequencies ---    0.0009   13.0750   29.5395
 ******    3 imaginary frequencies (negative Signs) ****** 
 Diagonal vibrational polarizability:
       45.3807100      60.2015327     132.1846839
 Harmonic frequencies (cm**-1), IR intensities (KM/Mole), Raman scattering
 activities (A**4/AMU), depolarization ratios for plane and unpolarized
 incident light, reduced masses (AMU), force constants (mDyne/A),
 and normal coordinates:
                      1                      2                      3
                      A                      A                      A
 Frequencies --   -270.2350               -62.2650               -18.0689
 Red. masses --     12.9904                 5.9772                 6.3177
 Frc consts  --      0.5589                 0.0137                 0.0012
 IR Inten    --     26.9464                 5.5348                 1.0804
  Atom  AN      X      Y      Z        X      Y      Z        X      Y      Z
     1   8     0.05  -0.60  -0.07    -0.10  -0.06   0.33     0.48   0.02   0.07
     2   1    -0.07  -0.17  -0.05    -0.09  -0.03   0.24     0.54  -0.19   0.03
     3   6    -0.02   0.76   0.10     0.05   0.03  -0.33    -0.02   0.01  -0.06
     4   1     0.03   0.07   0.01     0.08   0.03  -0.51    -0.03   0.15  -0.08
     5   6    -0.01   0.04   0.00     0.03   0.03  -0.17    -0.04  -0.16  -0.05
     6   6    -0.01   0.01   0.00     0.00   0.03   0.02    -0.05  -0.08   0.00
     7   8    -0.03  -0.01  -0.01    -0.02   0.01   0.25     0.02  -0.03   0.09
     8   8     0.00  -0.00   0.00     0.00   0.06  -0.12    -0.15  -0.03  -0.05
     9   6     0.01  -0.01   0.00    -0.01   0.07  -0.06    -0.17   0.10  -0.02
    10   6     0.00  -0.00  -0.00     0.06  -0.15  -0.03    -0.15   0.11  -0.01
    11   1     0.00  -0.01   0.00    -0.02   0.15  -0.21    -0.26   0.13  -0.06
    12   1     0.01  -0.01  -0.00    -0.05   0.16   0.08    -0.12   0.16   0.02
    13   1     0.00  -0.00  -0.00     0.05  -0.14  -0.01    -0.17   0.21   0.01
    14   1    -0.00   0.00   0.00     0.10  -0.24  -0.17    -0.20   0.05  -0.05
    15   1     0.00   0.00  -0.00     0.07  -0.22   0.12    -0.05   0.09   0.03
                      4                      5                      6
                      A                      A                      A
 Frequencies --     76.5496               115.4538               196.2098
 Red. masses --      3.3490                 3.4630                 2.1783
 Frc consts  --      0.0116                 0.0272                 0.0494
 IR Inten    --      1.2128                 1.3573                 4.2171
  Atom  AN      X      Y      Z        X      Y      Z        X      Y      Z
     1   8    -0.02   0.03  -0.05    -0.04   0.02   0.02    -0.10   0.11  -0.00
     2   1    -0.05   0.03   0.08    -0.00   0.05  -0.18    -0.11   0.12   0.01
     3   6     0.06   0.05  -0.17    -0.03   0.02   0.06     0.05   0.13   0.02
     4   1     0.09   0.06  -0.34    -0.04   0.03   0.12     0.05   0.19   0.03
     5   6     0.03   0.03   0.01    -0.02  -0.00  -0.02     0.03  -0.06  -0.00
     6   6     0.02  -0.03   0.11    -0.02  -0.06  -0.02     0.04  -0.11  -0.01
     7   8    -0.02  -0.06   0.10    -0.09  -0.11   0.16     0.07  -0.09  -0.01
     8   8     0.05  -0.06   0.18     0.05  -0.04  -0.20    -0.01  -0.09  -0.01
     9   6     0.08  -0.08  -0.02     0.02  -0.08  -0.03    -0.04   0.06  -0.00
    10   6    -0.17   0.12  -0.16     0.13   0.25   0.04    -0.01   0.03   0.01
    11   1     0.16  -0.15   0.11    -0.03  -0.20   0.20    -0.16   0.12  -0.09
    12   1     0.20  -0.17  -0.20    -0.02  -0.23  -0.20     0.03   0.16   0.08
    13   1    -0.13   0.08  -0.35     0.13   0.12   0.17    -0.10   0.53  -0.01
    14   1    -0.30   0.23   0.04     0.23   0.45   0.22    -0.32  -0.30  -0.19
    15   1    -0.29   0.20  -0.30     0.10   0.39  -0.24     0.40  -0.13   0.25
                      7                      8                      9
                      A                      A                      A
 Frequencies --    224.9998               238.8186               262.7545
 Red. masses --      1.1232                 1.6746                 3.9018
 Frc consts  --      0.0335                 0.0563                 0.1587
 IR Inten    --     89.9978                 9.4841                 9.2082
  Atom  AN      X      Y      Z        X      Y      Z        X      Y      Z
     1   8     0.02  -0.01  -0.05     0.05  -0.06   0.02    -0.02   0.01   0.02
     2   1    -0.15  -0.15   0.96     0.10  -0.03  -0.28     0.05   0.05  -0.32
     3   6    -0.01  -0.01  -0.01    -0.05  -0.08  -0.04     0.02   0.04  -0.18
     4   1    -0.01  -0.01  -0.06    -0.04  -0.12  -0.08     0.08   0.12  -0.63
     5   6    -0.02   0.01   0.05    -0.04   0.08   0.04    -0.08  -0.09   0.40
     6   6    -0.01   0.01   0.01    -0.04   0.05   0.02    -0.03  -0.04   0.11
     7   8    -0.03  -0.00  -0.00    -0.11   0.00  -0.02     0.02  -0.00  -0.13
     8   8     0.01   0.00  -0.02     0.05   0.02   0.03    -0.02  -0.01  -0.05
     9   6     0.01   0.00  -0.02     0.06  -0.02  -0.00    -0.03   0.04  -0.06
    10   6     0.04   0.02  -0.00     0.05   0.03  -0.01     0.10   0.02   0.01
    11   1     0.00   0.00  -0.01     0.07  -0.04   0.02    -0.07   0.06  -0.09
    12   1     0.00   0.00  -0.01     0.06  -0.04  -0.03    -0.03   0.08  -0.01
    13   1     0.02   0.09   0.02    -0.04   0.57  -0.05     0.11  -0.18   0.17
    14   1    -0.00  -0.03  -0.03    -0.31  -0.28  -0.16     0.32   0.14   0.01
    15   1     0.11  -0.00   0.02     0.49  -0.10   0.18     0.01   0.07  -0.07
                     10                     11                     12
                      A                      A                      A
 Frequencies --    337.2209               422.9536               574.2280
 Red. masses --      2.9309                 3.8871                 4.5230
 Frc consts  --      0.1964                 0.4097                 0.8787
 IR Inten    --      9.1206                 2.4037                 1.1204
  Atom  AN      X      Y      Z        X      Y      Z        X      Y      Z
     1   8     0.02  -0.02  -0.00    -0.02   0.02  -0.00     0.02  -0.03  -0.00
     2   1     0.02  -0.03  -0.02     0.00  -0.04  -0.02    -0.04   0.18   0.02
     3   6    -0.02  -0.04   0.01    -0.10   0.03   0.01     0.17  -0.04   0.02
     4   1    -0.02  -0.08   0.07    -0.12   0.10   0.11     0.19  -0.19   0.02
     5   6     0.01   0.10  -0.06    -0.08  -0.15  -0.14     0.18   0.34   0.05
     6   6     0.00  -0.05   0.01    -0.07  -0.01   0.06     0.04  -0.03   0.03
     7   8    -0.15  -0.16  -0.04     0.07   0.09   0.04     0.01  -0.06  -0.01
     8   8     0.05  -0.08   0.10    -0.10  -0.02   0.23    -0.16  -0.01   0.05
     9   6     0.03   0.24  -0.02     0.00  -0.04  -0.16    -0.24  -0.09  -0.14
    10   6     0.06   0.04  -0.01     0.22   0.03  -0.09    -0.00  -0.01  -0.01
    11   1    -0.15   0.39  -0.27     0.07  -0.05  -0.16    -0.10  -0.16  -0.04
    12   1     0.20   0.49   0.20     0.10  -0.02  -0.19    -0.25  -0.17  -0.23
    13   1     0.11  -0.29   0.04     0.15   0.06   0.33    -0.09   0.04   0.46
    14   1     0.33   0.14  -0.05     0.46   0.08  -0.17     0.25   0.03  -0.11
    15   1    -0.20   0.05   0.00     0.47   0.06  -0.19     0.30   0.02  -0.12
                     13                     14                     15
                      A                      A                      A
 Frequencies --    599.3523               717.7022               777.6432
 Red. masses --      8.7565                 1.0681                 2.4947
 Frc consts  --      1.8533                 0.3242                 0.8888
 IR Inten    --      7.5108               149.7829                 0.4093
  Atom  AN      X      Y      Z        X      Y      Z        X      Y      Z
     1   8     0.02  -0.03  -0.00     0.04  -0.04   0.00    -0.00  -0.00   0.00
     2   1     0.06  -0.18  -0.02    -0.24   0.96   0.09     0.00  -0.01  -0.01
     3   6    -0.34  -0.04  -0.06    -0.01  -0.02  -0.01     0.03   0.02  -0.16
     4   1    -0.35  -0.04  -0.07    -0.02   0.05  -0.00    -0.13  -0.06   0.91
     5   6    -0.26   0.43   0.03    -0.02  -0.02  -0.00    -0.02  -0.02   0.16
     6   6     0.01  -0.16  -0.03    -0.01  -0.00  -0.00     0.03   0.04  -0.26
     7   8     0.37   0.09   0.07     0.00   0.01   0.00    -0.02  -0.00   0.07
     8   8     0.08  -0.24  -0.04     0.01  -0.01  -0.00    -0.01  -0.01   0.07
     9   6     0.02  -0.01   0.02     0.00  -0.00   0.00    -0.01  -0.01  -0.00
    10   6    -0.01   0.00   0.01     0.00   0.00   0.00    -0.00  -0.00  -0.01
    11   1    -0.22   0.11  -0.16    -0.02   0.02  -0.03    -0.01   0.03  -0.08
    12   1     0.16   0.18   0.19     0.02   0.03   0.03     0.02   0.04   0.05
    13   1     0.00  -0.02  -0.08     0.00   0.00  -0.02    -0.02   0.02   0.05
    14   1    -0.06   0.04   0.09    -0.01   0.00   0.01     0.01   0.03   0.03
    15   1    -0.09   0.03  -0.03    -0.01   0.01  -0.01     0.05   0.02  -0.07
                     16                     17                     18
                      A                      A                      A
 Frequencies --    784.5097               796.4565               803.6829
 Red. masses --      2.0628                 1.1401                 1.1884
 Frc consts  --      0.7480                 0.4261                 0.4522
 IR Inten    --     57.4686                36.2370                28.0507
  Atom  AN      X      Y      Z        X      Y      Z        X      Y      Z
     1   8    -0.00  -0.01   0.00    -0.01  -0.04  -0.01    -0.01  -0.02  -0.00
     2   1    -0.01   0.00   0.03    -0.00  -0.04  -0.01     0.01  -0.08  -0.01
     3   6     0.01   0.01  -0.12    -0.00  -0.05   0.01     0.04  -0.03   0.01
     4   1    -0.16   0.07   0.91    -0.05   0.90  -0.02     0.00   0.48   0.06
     5   6     0.00   0.01  -0.04    -0.01   0.03   0.01     0.03   0.00  -0.01
     6   6    -0.03  -0.04   0.25     0.02  -0.01  -0.04    -0.03   0.02   0.04
     7   8     0.02  -0.00  -0.07     0.01  -0.02   0.01    -0.02   0.04  -0.01
     8   8     0.00   0.02  -0.06    -0.01   0.03   0.02     0.02  -0.02  -0.01
     9   6     0.01   0.02   0.00     0.00   0.04   0.00    -0.01  -0.07  -0.01
    10   6     0.00   0.01   0.01     0.00   0.01  -0.01    -0.00  -0.03   0.01
    11   1     0.02  -0.04   0.12     0.05  -0.08   0.21    -0.06   0.17  -0.42
    12   1    -0.02  -0.07  -0.09     0.00  -0.12  -0.19    -0.03   0.23   0.37
    13   1     0.02  -0.03  -0.05     0.02  -0.07  -0.02    -0.05   0.16   0.04
    14   1    -0.00  -0.05  -0.05     0.07  -0.08  -0.16    -0.15   0.16   0.32
    15   1    -0.06  -0.04   0.10    -0.05  -0.07   0.16     0.12   0.15  -0.35
                     19                     20                     21
                      A                      A                      A
 Frequencies --    892.6346               929.5087              1073.6126
 Red. masses --      3.1351                 2.7976                 4.1457
 Frc consts  --      1.4718                 1.4241                 2.8154
 IR Inten    --     16.2386                 4.9412                22.6269
  Atom  AN      X      Y      Z        X      Y      Z        X      Y      Z
     1   8    -0.00   0.00  -0.00     0.00   0.00   0.00    -0.00  -0.00  -0.00
     2   1     0.01  -0.07  -0.01    -0.01   0.04   0.00    -0.00   0.01  -0.00
     3   6     0.05  -0.00   0.01    -0.12   0.01  -0.02     0.08  -0.01   0.01
     4   1     0.05   0.08   0.02    -0.13  -0.00  -0.02     0.09  -0.03   0.01
     5   6     0.03  -0.05  -0.01    -0.07  -0.03  -0.02     0.04   0.05   0.01
     6   6    -0.06   0.10   0.01     0.14  -0.01   0.02    -0.14  -0.08  -0.04
     7   8    -0.06   0.15   0.01     0.04  -0.13  -0.01     0.01   0.03   0.01
     8   8     0.19  -0.18  -0.02     0.10   0.16   0.02    -0.21  -0.03  -0.04
     9   6    -0.07  -0.01  -0.10    -0.01   0.01  -0.10     0.35   0.03  -0.13
    10   6    -0.14   0.03   0.07    -0.15  -0.05   0.08    -0.11   0.00   0.17
    11   1    -0.23  -0.06   0.01     0.38   0.03  -0.20     0.36   0.08  -0.25
    12   1     0.29   0.00  -0.28    -0.01  -0.01  -0.12     0.47   0.02  -0.22
    13   1    -0.19  -0.14   0.54    -0.28   0.10   0.65    -0.13  -0.00   0.31
    14   1     0.26  -0.06  -0.27     0.10   0.12   0.14    -0.08   0.05   0.23
    15   1     0.02  -0.12   0.32     0.25   0.04  -0.13    -0.08  -0.05   0.28
                     22                     23                     24
                      A                      A                      A
 Frequencies --   1127.6617              1202.9789              1265.0575
 Red. masses --      2.0710                 1.7806                 5.4984
 Frc consts  --      1.5516                 1.5182                 5.1845
 IR Inten    --     22.0589                 9.1141               586.3789
  Atom  AN      X      Y      Z        X      Y      Z        X      Y      Z
     1   8     0.00  -0.00  -0.00    -0.00  -0.00  -0.00     0.00   0.00   0.00
     2   1    -0.00   0.01   0.00    -0.00   0.00   0.00    -0.01   0.03   0.00
     3   6     0.01  -0.00   0.00     0.02  -0.00   0.00    -0.10   0.00  -0.02
     4   1     0.02  -0.00   0.00     0.03  -0.01   0.00    -0.13   0.07  -0.01
     5   6     0.01   0.01   0.00     0.01   0.00   0.00    -0.02  -0.03  -0.01
     6   6    -0.02  -0.01   0.00    -0.06  -0.03  -0.02     0.39   0.32   0.10
     7   8     0.00   0.01  -0.00    -0.01   0.04   0.01    -0.05  -0.03  -0.01
     8   8    -0.05  -0.01  -0.05     0.03  -0.07  -0.00    -0.19  -0.19  -0.04
     9   6     0.08   0.01   0.22    -0.02   0.19   0.01     0.13   0.04  -0.03
    10   6    -0.09  -0.01  -0.17     0.02  -0.14  -0.00     0.00  -0.07  -0.00
    11   1     0.04   0.06   0.14     0.30  -0.04   0.39    -0.62  -0.06   0.22
    12   1     0.17   0.03   0.21    -0.20  -0.18  -0.36    -0.03  -0.13  -0.17
    13   1    -0.18  -0.01   0.47    -0.07   0.28   0.02    -0.05   0.12   0.06
    14   1     0.45   0.11  -0.33    -0.10   0.14   0.39    -0.07   0.11   0.25
    15   1     0.44  -0.03  -0.21     0.13   0.10  -0.45     0.03  -0.01  -0.10
                     25                     26                     27
                      A                      A                      A
 Frequencies --   1346.2963              1402.2062              1431.4006
 Red. masses --      1.1589                 1.2552                 1.3560
 Frc consts  --      1.2376                 1.4540                 1.6369
 IR Inten    --     44.1744                16.1966                 8.4120
  Atom  AN      X      Y      Z        X      Y      Z        X      Y      Z
     1   8    -0.00  -0.00  -0.00    -0.00  -0.00  -0.00     0.00   0.00   0.00
     2   1     0.00  -0.00   0.00     0.00   0.00   0.00     0.00  -0.00  -0.00
     3   6     0.00  -0.00   0.00     0.01  -0.00   0.00    -0.01   0.00  -0.00
     4   1     0.01  -0.01   0.00     0.01  -0.00   0.00    -0.01   0.00  -0.00
     5   6     0.00   0.00   0.00     0.00   0.00   0.00    -0.00  -0.00   0.00
     6   6    -0.02  -0.03  -0.01    -0.04  -0.02  -0.01     0.04   0.02   0.01
     7   8     0.01  -0.01  -0.00     0.01  -0.01   0.00    -0.01   0.01  -0.00
     8   8     0.01   0.08   0.00     0.02   0.03   0.02    -0.02  -0.02  -0.02
     9   6    -0.02  -0.01   0.00     0.05   0.01  -0.04    -0.09  -0.01   0.08
    10   6     0.01  -0.06   0.01     0.04  -0.00  -0.11     0.09   0.01  -0.07
    11   1    -0.60  -0.07   0.19    -0.36  -0.09   0.21     0.47   0.11  -0.23
    12   1     0.69   0.11  -0.21    -0.34   0.02   0.20     0.48  -0.00  -0.22
    13   1    -0.00   0.07  -0.03    -0.08   0.02   0.50     0.01   0.00   0.35
    14   1    -0.05   0.02   0.13    -0.28   0.16   0.30    -0.36  -0.03   0.15
    15   1     0.04   0.03  -0.17    -0.22  -0.20   0.32    -0.32  -0.07   0.15
                     28                     29                     30
                      A                      A                      A
 Frequencies --   1493.5908              1502.8815              1514.9032
 Red. masses --      1.0404                 1.0622                 1.0806
 Frc consts  --      1.3675                 1.4135                 1.4611
 IR Inten    --     11.9949                 1.8347                17.1708
  Atom  AN      X      Y      Z        X      Y      Z        X      Y      Z
     1   8    -0.00  -0.00  -0.00     0.00   0.00   0.00     0.00   0.00   0.00
     2   1     0.00  -0.00   0.00     0.00  -0.00   0.00    -0.00  -0.00   0.00
     3   6     0.00   0.00   0.00    -0.00   0.00  -0.00    -0.00   0.00  -0.00
     4   1     0.00  -0.00   0.00    -0.00   0.00  -0.00    -0.01   0.00  -0.00
     5   6    -0.00   0.00  -0.00     0.00  -0.00   0.00     0.00  -0.00   0.00
     6   6    -0.00   0.00  -0.00     0.01   0.00   0.00     0.02   0.00   0.00
     7   8     0.00  -0.00   0.00    -0.01   0.01   0.00    -0.01   0.01  -0.00
     8   8     0.00   0.01   0.00    -0.01  -0.01  -0.01    -0.01  -0.01  -0.01
     9   6    -0.01  -0.02   0.01     0.00  -0.01  -0.05    -0.05  -0.01  -0.05
    10   6    -0.00  -0.04  -0.01     0.02  -0.01   0.03    -0.03   0.00  -0.02
    11   1     0.00   0.05  -0.13     0.20  -0.26   0.39     0.30  -0.22   0.30
    12   1     0.02  -0.05  -0.03     0.10   0.36   0.37     0.21   0.33   0.24
    13   1    -0.10   0.63  -0.16    -0.06   0.22   0.18     0.05  -0.13  -0.25
    14   1     0.51   0.27   0.04     0.01  -0.25  -0.27     0.08   0.32   0.31
    15   1    -0.36  -0.13   0.24    -0.37   0.17  -0.26     0.35  -0.21   0.32
                     31                     32                     33
                      A                      A                      A
 Frequencies --   1849.1051              2200.1603              3075.6323
 Red. masses --     12.0931                 6.0568                 1.0354
 Frc consts  --     24.3618                17.2744                 5.7708
 IR Inten    --    387.2538                82.5126                 9.0847
  Atom  AN      X      Y      Z        X      Y      Z        X      Y      Z
     1   8    -0.00  -0.00  -0.00    -0.00   0.01   0.00     0.00   0.00  -0.00
     2   1     0.01  -0.03  -0.00    -0.00   0.01   0.00    -0.00  -0.00   0.00
     3   6     0.08  -0.00   0.01    -0.38   0.03  -0.05     0.00   0.00   0.00
     4   1     0.12   0.02   0.02    -0.73   0.03  -0.11    -0.00  -0.00  -0.00
     5   6    -0.05  -0.00  -0.01     0.54  -0.04   0.08    -0.00  -0.00  -0.00
     6   6    -0.48   0.63   0.01    -0.11   0.01  -0.02     0.00   0.00   0.00
     7   8     0.31  -0.42  -0.01     0.01  -0.01  -0.00     0.00  -0.00  -0.00
     8   8     0.01  -0.06  -0.01    -0.00  -0.00  -0.00    -0.00  -0.00  -0.00
     9   6    -0.04   0.01  -0.00     0.00   0.00   0.00    -0.00   0.00  -0.00
    10   6     0.01   0.00   0.01    -0.00  -0.00   0.00    -0.03  -0.01   0.04
    11   1     0.18  -0.05   0.08     0.01   0.00   0.00    -0.00   0.01   0.01
    12   1     0.09   0.12   0.03    -0.00   0.00   0.00     0.01  -0.02   0.02
    13   1     0.02  -0.04  -0.05     0.00  -0.00   0.00     0.59   0.11   0.11
    14   1    -0.03  -0.02   0.00    -0.00  -0.00  -0.00    -0.22   0.43  -0.35
    15   1     0.04   0.03  -0.04     0.00   0.00  -0.00    -0.04  -0.46  -0.23
                     34                     35                     36
                      A                      A                      A
 Frequencies --   3108.5484              3150.8436              3155.6245
 Red. masses --      1.0605                 1.1019                 1.1048
 Frc consts  --      6.0377                 6.4452                 6.4818
 IR Inten    --     16.7809                12.6505                 2.7329
  Atom  AN      X      Y      Z        X      Y      Z        X      Y      Z
     1   8    -0.00  -0.00  -0.00     0.00   0.00   0.00     0.00   0.00   0.00
     2   1     0.00   0.00   0.00     0.00  -0.00  -0.00    -0.00  -0.00  -0.00
     3   6    -0.00  -0.00  -0.00     0.00   0.00   0.00     0.00  -0.00   0.00
     4   1     0.00   0.00  -0.00    -0.00  -0.00  -0.00    -0.00   0.00   0.00
     5   6     0.00   0.00   0.00    -0.00   0.00   0.00    -0.00  -0.00  -0.00
     6   6    -0.00  -0.00  -0.00     0.00   0.00  -0.00    -0.00   0.00  -0.00
     7   8    -0.00   0.00  -0.00     0.00  -0.00  -0.00     0.00  -0.00   0.00
     8   8     0.00   0.00   0.00     0.00  -0.00   0.00     0.00  -0.00  -0.00
     9   6     0.02  -0.01   0.06    -0.00  -0.03  -0.01    -0.01   0.05  -0.00
    10   6    -0.01  -0.00  -0.01    -0.07   0.04  -0.04    -0.04  -0.06  -0.03
    11   1    -0.04  -0.50  -0.26     0.02   0.29   0.16    -0.03  -0.36  -0.19
    12   1    -0.25   0.60  -0.47    -0.02   0.05  -0.04     0.12  -0.27   0.22
    13   1     0.13   0.03   0.03     0.60   0.12   0.10     0.45   0.08   0.08
    14   1     0.02  -0.05   0.03     0.24  -0.51   0.41    -0.05   0.06  -0.06
    15   1    -0.00   0.02   0.01    -0.02  -0.07  -0.05     0.05   0.60   0.31
                     37                     38                     39
                      A                      A                      A
 Frequencies --   3175.7528              3474.8285              3781.0717
 Red. masses --      1.1076                 1.1597                 1.0676
 Frc consts  --      6.5813                 8.2499                 8.9927
 IR Inten    --     12.1920                75.5210                29.5633
  Atom  AN      X      Y      Z        X      Y      Z        X      Y      Z
     1   8    -0.00  -0.00  -0.00     0.00   0.00   0.00    -0.06  -0.02  -0.01
     2   1     0.00  -0.00   0.00    -0.00  -0.00  -0.00     0.95   0.24   0.20
     3   6     0.00   0.00   0.00    -0.11  -0.00  -0.02    -0.00   0.00   0.00
     4   1    -0.00  -0.00  -0.00     0.98   0.06   0.16     0.00   0.00   0.00
     5   6    -0.00   0.00   0.00     0.03  -0.00   0.00     0.00   0.00   0.00
     6   6     0.00  -0.00  -0.00    -0.00  -0.00  -0.00     0.00   0.00   0.00
     7   8    -0.00   0.00   0.00     0.00   0.00   0.00    -0.00  -0.00  -0.00
     8   8    -0.00   0.00   0.00     0.00   0.00   0.00    -0.00  -0.00  -0.00
     9   6     0.01  -0.07  -0.00    -0.00  -0.00  -0.00    -0.00  -0.00  -0.00
    10   6     0.00  -0.06  -0.00     0.00  -0.00   0.00    -0.00   0.00  -0.00
    11   1     0.04   0.55   0.31     0.00   0.00   0.00    -0.00  -0.00  -0.00
    12   1    -0.13   0.32  -0.27     0.00   0.00  -0.00     0.00  -0.00   0.00
    13   1     0.09   0.01   0.01     0.00   0.00  -0.00     0.00  -0.00  -0.00
    14   1    -0.13   0.25  -0.22    -0.00   0.00  -0.00    -0.00  -0.00   0.00
    15   1     0.04   0.45   0.24    -0.00   0.00   0.00     0.00  -0.00  -0.00

 -------------------
 - Thermochemistry -
 -------------------
 Temperature   298.150 Kelvin.  Pressure   1.00000 Atm.
 Atom     1 has atomic number  8 and mass  15.99491
 Atom     2 has atomic number  1 and mass   1.00783
 Atom     3 has atomic number  6 and mass  12.00000
 Atom     4 has atomic number  1 and mass   1.00783
 Atom     5 has atomic number  6 and mass  12.00000
 Atom     6 has atomic number  6 and mass  12.00000
 Atom     7 has atomic number  8 and mass  15.99491
 Atom     8 has atomic number  8 and mass  15.99491
 Atom     9 has atomic number  6 and mass  12.00000
 Atom    10 has atomic number  6 and mass  12.00000
 Atom    11 has atomic number  1 and mass   1.00783
 Atom    12 has atomic number  1 and mass   1.00783
 Atom    13 has atomic number  1 and mass   1.00783
 Atom    14 has atomic number  1 and mass   1.00783
 Atom    15 has atomic number  1 and mass   1.00783
 Molecular mass:   115.03952 amu.
 Principal axes and moments of inertia in atomic units:
                           1         2         3
     Eigenvalues --   517.342071568.424521938.88984
           X            0.99961   0.02720  -0.00569
           Y           -0.02720   0.99963  -0.00037
           Z            0.00568   0.00053   0.99998
 This molecule is an asymmetric top.
 Rotational symmetry number  1.
 Warning -- assumption of classical behavior for rotation
           may cause significant error
 Rotational temperatures (Kelvin)      0.16742     0.05522     0.04467
 Rotational constants (GHZ):           3.48849     1.15067     0.93081
    3 imaginary frequencies ignored.
 Zero-point vibrational energy     293580.5 (Joules/Mol)
                                   70.16744 (Kcal/Mol)
 Warning -- explicit consideration of  10 degrees of freedom as
           vibrations may cause significant error
 Vibrational temperatures:    110.14   166.11   282.30   323.72   343.61
          (Kelvin)            378.05   485.19   608.54   826.19   862.33
                             1032.61  1118.86  1128.73  1145.92  1156.32
                             1284.30  1337.36  1544.69  1622.45  1730.82
                             1820.14  1937.02  2017.46  2059.47  2148.94
                             2162.31  2179.61  2660.45  3165.54  4425.15
                             4472.51  4533.36  4540.24  4569.20  4999.50
                             5440.12
 
 Zero-point correction=                           0.111819 (Hartree/Particle)
 Thermal correction to Energy=                    0.119849
 Thermal correction to Enthalpy=                  0.120793
 Thermal correction to Gibbs Free Energy=         0.078121
 Sum of electronic and zero-point Energies=           -420.094006
 Sum of electronic and thermal Energies=              -420.085975
 Sum of electronic and thermal Enthalpies=            -420.085031
 Sum of electronic and thermal Free Energies=         -420.127704
 
                     E (Thermal)             CV                S
                      KCal/Mol        Cal/Mol-Kelvin    Cal/Mol-Kelvin
 Total                   75.207             28.114             89.812
 Electronic               0.000              0.000              1.377
 Translational            0.889              2.981             40.136
 Rotational               0.889              2.981             28.844
 Vibrational             73.429             22.152             19.455
 Vibration     1          0.599              1.965              3.977
 Vibration     2          0.608              1.937              3.175
 Vibration     3          0.636              1.845              2.168
 Vibration     4          0.650              1.803              1.918
 Vibration     5          0.657              1.781              1.812
 Vibration     6          0.670              1.741              1.643
 Vibration     7          0.718              1.601              1.225
 Vibration     8          0.785              1.420              0.882
 Vibration     9          0.931              1.087              0.496
 Vibration    10          0.957              1.033              0.451
                       Q            Log10(Q)             Ln(Q)
 Total Bot       0.116657D-35        -35.933087        -82.738991
 Total V=0       0.316230D+16         15.500002         35.690075
 Vib (Bot)       0.267865D-49        -49.572085       -114.143943
 Vib (Bot)    1  0.269173D+01          0.430032          0.990186
 Vib (Bot)    2  0.177187D+01          0.248431          0.572033
 Vib (Bot)    3  0.101769D+01          0.007617          0.017539
 Vib (Bot)    4  0.877267D+00         -0.056868         -0.130944
 Vib (Bot)    5  0.821485D+00         -0.085400         -0.196641
 Vib (Bot)    6  0.738207D+00         -0.131822         -0.303531
 Vib (Bot)    7  0.551597D+00         -0.258378         -0.594938
 Vib (Bot)    8  0.414211D+00         -0.382778         -0.881380
 Vib (Bot)    9  0.266901D+00         -0.573650         -1.320879
 Vib (Bot)   10  0.249301D+00         -0.603277         -1.389096
 Vib (V=0)       0.726115D+02          1.861005          4.285123
 Vib (V=0)    1  0.323778D+01          0.510247          1.174887
 Vib (V=0)    2  0.234106D+01          0.369413          0.850604
 Vib (V=0)    3  0.163389D+01          0.213222          0.490962
 Vib (V=0)    4  0.150975D+01          0.178905          0.411945
 Vib (V=0)    5  0.146169D+01          0.164854          0.379590
 Vib (V=0)    6  0.139160D+01          0.143514          0.330454
 Vib (V=0)    7  0.124449D+01          0.094990          0.218722
 Vib (V=0)    8  0.114928D+01          0.060428          0.139140
 Vib (V=0)    9  0.106678D+01          0.028074          0.064642
 Vib (V=0)   10  0.105870D+01          0.024775          0.057046
 Electronic      0.200000D+01          0.301030          0.693147
 Translational   0.484981D+08          7.685724         17.697035
 Rotational      0.448996D+06          5.652243         13.014770
 ***** Axes restored to original set *****
 -------------------------------------------------------------------
 Center     Atomic                   Forces (Hartrees/Bohr)
 Number     Number              X              Y              Z
 -------------------------------------------------------------------
      1        8           0.000770453   -0.010004452   -0.001181617
      2        1           0.000054153   -0.000151973   -0.000017362
      3        6           0.000337753    0.010186350    0.001383872
      4        1          -0.000122454    0.000040071   -0.000017195
      5        6          -0.000575336    0.000122840   -0.000067910
      6        6          -0.000038018   -0.000003112   -0.000008468
      7        8          -0.000219981   -0.000108110   -0.000045578
      8        8          -0.000129208   -0.000084152   -0.000042618
      9        6          -0.000029885   -0.000001914   -0.000008368
     10        6          -0.000027733   -0.000004322    0.000002331
     11        1          -0.000014241    0.000004820   -0.000004670
     12        1          -0.000002110    0.000004032    0.000004236
     13        1          -0.000003831    0.000003199    0.000002814
     14        1          -0.000003270   -0.000001994   -0.000001198
     15        1           0.000003708   -0.000001285    0.000001730
 -------------------------------------------------------------------
 Cartesian Forces:  Max     0.010186350 RMS     0.002151770

 GradGradGradGradGradGradGradGradGradGradGradGradGradGradGradGradGradGrad
 Berny optimization.
 Search for a local minimum.
 Step number   1 out of a maximum of    2
 All quantities printed in internal units (Hartrees-Bohrs-Radians)
 Second derivative matrix not updated -- analytic derivatives used.
 ITU=  0
     Eigenvalues ---   -0.03688  -0.00127  -0.00013   0.00094   0.00184
     Eigenvalues ---    0.00250   0.00341   0.01056   0.01422   0.02136
     Eigenvalues ---    0.02443   0.03203   0.03445   0.04679   0.06261
     Eigenvalues ---    0.07562   0.08224   0.09200   0.09659   0.10226
     Eigenvalues ---    0.11451   0.14020   0.16128   0.17070   0.20046
     Eigenvalues ---    0.28992   0.29944   0.43590   0.48905   0.62231
     Eigenvalues ---    0.71024   0.76943   0.78646   0.84984   0.87426
     Eigenvalues ---    0.94238   0.98289   1.74499   2.57311
 Eigenvalue     1 is  -3.69D-02 should be greater than     0.000000 Eigenvector:
                          Y3        Y1        Y2        Z3        X1
   1                    0.73514  -0.64807  -0.09308   0.09279   0.08832
                          Z1        X2        Y5        X7        Z2
   1                   -0.06979  -0.06557   0.03642  -0.03510  -0.02611
 Eigenvalue     2 is  -1.27D-03 should be greater than     0.000000 Eigenvector:
                          Z1        Z4        Z3        Z7        Y14
   1                    0.50890  -0.44387  -0.30664   0.27390  -0.18845
                          Z11       Z5        Y15       Z2        Y12
   1                   -0.18476  -0.18205  -0.17550   0.16402   0.15657
 Eigenvalue     3 is  -1.32D-04 should be greater than     0.000000 Eigenvector:
                          X2        X1        X11       Y2        X14
   1                    0.58133   0.51178  -0.24498  -0.19148  -0.17398
                          Y13       Y5        Y4        X9        X13
   1                    0.17016  -0.16363   0.16308  -0.15684  -0.14678
 Quadratic step=1.612D+00 exceeds max=3.000D-01 adjusted using Lamda=-1.096D-02.
 Angle between NR and scaled steps=  72.42 degrees.
 Angle between quadratic step and forces=   7.53 degrees.
 Linear search not attempted -- first point.
 B after Tr=     0.001434   -0.002911   -0.000328
         Rot=    1.000000    0.000016   -0.000001    0.000205 Ang=   0.02 deg.
 Variable       Old X    -DE/DX   Delta X   Delta X   Delta X     New X
                                 (Linear)    (Quad)   (Total)
    X1        5.26509   0.00077   0.00000   0.04269   0.04292   5.30801
    Y1       -2.73028  -0.01000   0.00000  -0.19659  -0.20168  -2.93196
    Z1        0.04640  -0.00118   0.00000  -0.01955  -0.01980   0.02660
    X2        3.52049   0.00005   0.00000  -0.00972  -0.00960   3.51089
    Y2       -3.18007  -0.00015   0.00000  -0.00092  -0.00529  -3.18536
    Z2       -0.31358  -0.00002   0.00000  -0.00108  -0.00132  -0.31490
    X3        4.80219   0.00034   0.00000  -0.00668  -0.00466   4.79753
    Y3        1.21207   0.01019   0.00000   0.21994   0.21508   1.42714
    Z3        0.48723   0.00138   0.00000   0.02770   0.02731   0.51454
    X4        6.78666  -0.00012   0.00000   0.00576   0.00774   6.79441
    Y4        1.33597   0.00004   0.00000   0.00531  -0.00036   1.33561
    Z4        0.80686  -0.00002   0.00000   0.00180   0.00141   0.80827
    X5        2.56027  -0.00058   0.00000  -0.00617  -0.00412   2.55614
    Y5        1.49343   0.00012   0.00000   0.00256  -0.00139   1.49204
    Z5        0.18030  -0.00007   0.00000  -0.00100  -0.00138   0.17892
    X6       -0.15560  -0.00004   0.00000  -0.00405  -0.00201  -0.15760
    Y6        1.48247  -0.00000   0.00000   0.00057  -0.00229   1.48018
    Z6       -0.22910  -0.00001   0.00000  -0.00095  -0.00132  -0.23042
    X7       -1.47813  -0.00022   0.00000  -0.00706  -0.00427  -1.48240
    Y7        3.31824  -0.00011   0.00000  -0.00223  -0.00454   3.31370
    Z7       -0.17578  -0.00005   0.00000  -0.00052  -0.00095  -0.17674
    X8       -0.94211  -0.00013   0.00000  -0.00535  -0.00428  -0.94639
    Y8       -0.87913  -0.00008   0.00000  -0.00120  -0.00374  -0.88287
    Z8       -0.68186  -0.00004   0.00000  -0.00258  -0.00288  -0.68474
    X9       -3.62248  -0.00003   0.00000  -0.00499  -0.00404  -3.62653
    Y9       -1.19529  -0.00000   0.00000   0.00154   0.00008  -1.19521
    Z9       -1.09443  -0.00001   0.00000  -0.00079  -0.00107  -1.09550
   X10       -5.04675  -0.00003   0.00000  -0.00336  -0.00243  -5.04918
   Y10       -1.23007  -0.00000   0.00000   0.00119   0.00040  -1.22967
   Z10        1.39005   0.00000   0.00000   0.00039   0.00011   1.39016
   X11       -3.76627  -0.00001   0.00000  -0.00783  -0.00763  -3.77390
   Y11       -2.99298   0.00000   0.00000   0.00233   0.00090  -2.99208
   Z11       -2.08369  -0.00000   0.00000  -0.00188  -0.00210  -2.08579
   X12       -4.27887  -0.00000   0.00000  -0.00464  -0.00308  -4.28196
   Y12        0.32176   0.00000   0.00000   0.00304   0.00181   0.32358
   Z12       -2.32479   0.00000   0.00000   0.00074   0.00041  -2.32438
   X13       -7.04291  -0.00000   0.00000  -0.00362  -0.00284  -7.04575
   Y13       -1.60926   0.00000   0.00000   0.00106   0.00107  -1.60819
   Z13        1.03351   0.00000   0.00000   0.00241   0.00215   1.03566
   X14       -4.31139  -0.00000   0.00000  -0.00169  -0.00136  -4.31276
   Y14       -2.71030  -0.00000   0.00000   0.00094  -0.00012  -2.71042
   Z14        2.62234  -0.00000   0.00000  -0.00078  -0.00101   2.62133
   X15       -4.89228   0.00000   0.00000  -0.00202  -0.00034  -4.89261
   Y15        0.58863  -0.00000   0.00000   0.00089   0.00006   0.58868
   Z15        2.34505   0.00000   0.00000   0.00077   0.00044   2.34549
         Item               Value     Threshold  Converged?
 Maximum Force            0.010186     0.000450     NO 
 RMS     Force            0.002152     0.000300     NO 
 Maximum Displacement     0.215076     0.001800     NO 
 RMS     Displacement     0.044807     0.001200     NO 
 Predicted change in Energy=-5.932327D-03
 GradGradGradGradGradGradGradGradGradGradGradGradGradGradGradGradGradGrad


 ----------------------------------------------------------------------

 Electric dipole moment (input orientation):
 (Debye = 10**-18 statcoulomb cm , SI units = C m)
                  (au)            (Debye)         (10**-30 SI)
   Tot        0.873331D+00      0.221979D+01      0.740441D+01
   x         -0.676930D+00     -0.172058D+01     -0.573925D+01
   y         -0.544582D+00     -0.138419D+01     -0.461716D+01
   z         -0.888984D-01     -0.225957D+00     -0.753712D+00

 Dipole polarizability, Alpha (input orientation).
 (esu units = cm**3 , SI units = C**2 m**2 J**-1)
 Alpha(0;0):
               (au)            (10**-24 esu)      (10**-40 SI)
   iso        0.738763D+02      0.109473D+02      0.121805D+02
   aniso      0.412165D+02      0.610765D+01      0.679568D+01
   xx         0.950403D+02      0.140835D+02      0.156700D+02
   yx        -0.699950D+01     -0.103722D+01     -0.115406D+01
   yy         0.763669D+02      0.113164D+02      0.125912D+02
   zx         0.272091D+01      0.403197D+00      0.448617D+00
   zy         0.174162D+01      0.258081D+00      0.287154D+00
   zz         0.502215D+02      0.744205D+01      0.828040D+01

 ----------------------------------------------------------------------

 Dipole orientation:
     8          3.55583150          4.10536029         -2.38324396
     1          3.23889274          3.40661417         -0.71386220
     6          1.27422115          1.62614205         -4.52764593
     1          1.87446839          2.61583366         -6.17563173
     6          0.36927102          0.26919475         -2.93410710
     6         -0.54350027         -1.17040339         -0.78049492
     8         -1.99151590         -2.90522887         -0.90553581
     8          0.48579639         -0.26960084          1.34784705
     6         -0.27450794         -1.49811666          3.66458443
     6         -2.83262559         -0.55116276          4.53733772
     1          1.21551302         -1.01480678          4.99771804
     1         -0.28481177         -3.53493744          3.35261334
     1         -3.29759179         -1.40379964          6.35733505
     1         -2.80407274          1.49767899          4.76494092
     1         -4.30044523         -1.06474586          3.18631029

 Electric dipole moment (dipole orientation):
 (Debye = 10**-18 statcoulomb cm , SI units = C m)
                  (au)            (Debye)         (10**-30 SI)
   Tot        0.873331D+00      0.221979D+01      0.740441D+01
   x          0.000000D+00      0.000000D+00      0.000000D+00
   y          0.000000D+00      0.000000D+00      0.000000D+00
   z          0.873331D+00      0.221979D+01      0.740441D+01

 Dipole polarizability, Alpha (dipole orientation).
 (esu units = cm**3 , SI units = C**2 m**2 J**-1)
 Alpha(0;0):
               (au)            (10**-24 esu)      (10**-40 SI)
   iso        0.738763D+02      0.109473D+02      0.121805D+02
   aniso      0.412165D+02      0.610765D+01      0.679568D+01
   xx         0.665785D+02      0.986591D+01      0.109773D+02
   yx         0.200118D+02      0.296544D+01      0.329950D+01
   yy         0.738511D+02      0.109436D+02      0.121764D+02
   zx        -0.661136D+01     -0.979702D+00     -0.109007D+01
   zy        -0.828501D+01     -0.122771D+01     -0.136601D+01
   zz         0.811993D+02      0.120325D+02      0.133879D+02

 ----------------------------------------------------------------------
 1\1\GINC-AJ\Freq\UM062X\6-311++G(d,p)\C5H7O3(2)\AAYUSH\23-Jun-2025\0\\
 # freq 6-311++g(d,p) m062x\\Title Card Required\\0,2\O,2.786166,-1.444
 803,0.024554\H,1.862963,-1.682822,-0.165941\C,2.541211,0.641399,0.2578
 29\H,3.591348,0.706964,0.426972\C,1.354834,0.790291,0.095413\C,-0.0823
 38,0.784488,-0.121237\O,-0.782195,1.755936,-0.093021\O,-0.498542,-0.46
 5216,-0.360826\C,-1.916936,-0.63252,-0.579148\C,-2.670624,-0.650926,0.
 735583\H,-1.993025,-1.583816,-1.102642\H,-2.264282,0.17027,-1.230224\H
 ,-3.726948,-0.851586,0.546911\H,-2.281491,-1.434229,1.387685\H,-2.5888
 81,0.311487,1.240945\\Version=ES64L-G16RevA.03\State=2-A\HF=-420.20582
 46\S2=0.764078\S2-1=0.\S2A=0.750092\RMSD=9.031e-09\RMSF=2.152e-03\Zero
 Point=0.1118189\Thermal=0.1198492\Dipole=-0.6769302,-0.5445821,-0.0888
 984\DipoleDeriv=-0.2152824,-0.1589474,0.012949,-0.055991,0.0725315,0.0
 568143,0.0299375,0.0355253,-0.3999893,0.1504602,0.0315159,-0.0286266,-
 0.1126477,0.3520756,-0.0093377,-0.0491527,0.0127366,0.3151663,-0.30624
 15,0.4609396,0.0338669,0.2291874,-0.5949743,-0.040127,-0.0065201,0.002
 0898,-0.0594931,0.2921214,0.0059545,0.0135671,-0.0441604,0.2605346,0.0
 025412,0.0087294,0.0091174,0.1993856,-0.5654025,-0.3480009,-0.100643,-
 0.0350463,-0.168676,-0.0085398,-0.0770871,-0.0620472,-0.1242788,2.1309
 779,-0.2534759,0.1749612,0.4770023,1.8314199,0.1520893,0.3030596,0.141
 7079,0.4342422,-0.9672852,0.4635665,-0.0241563,0.0926589,-1.0269119,-0
 .0279687,-0.0651499,-0.0051823,-0.3488658,-1.4054691,-0.3569292,-0.068
 0375,-0.6911804,-1.0778587,-0.1236636,-0.1992488,-0.1613014,-0.364439,
 0.9572866,0.2468591,-0.0052256,0.1689152,0.3203318,0.0051113,0.0167819
 ,0.0621375,0.3463736,-0.0752072,-0.0482699,0.024626,-0.022279,0.016715
 8,-0.0182711,0.060071,-0.0382703,-0.0713565,-0.0098789,0.0021597,0.027
 7816,-0.0441354,-0.0433409,-0.0893904,0.0009984,-0.0638761,0.0151261,-
 0.0285074,-0.0437413,0.0048172,0.040893,0.0057791,0.0941282,-0.0066775
 ,0.0346793,-0.0108164,-0.1082157,-0.0462676,-0.0162367,-0.0436995,0.08
 83651,-0.0024409,-0.0246401,0.0042036,0.0557684,0.0488945,0.0716334,-0
 .039564,0.0413614,-0.0084943,0.0782709,0.0078059,0.0556881,-0.008051,0
 .1017491,-0.0269966,-0.0100792,-0.0008784,-0.0274972,-0.069216,0.00109
 23,-0.0272081,0.0212278\Polar=95.0403487,-6.9994982,76.3669462,2.72090
 94,1.7416177,50.221461\Quadrupole=3.3081406,-3.3910743,0.0829337,6.564
 118,1.2164421,0.7757029\PG=C01 [X(C5H7O3)]\NImag=3\\0.47417959,0.11455
 340,0.03559656,0.09690377,0.02458595,0.01930896,-0.46639672,-0.1190435
 9,-0.09585849,0.46393126,-0.10845141,-0.04024998,-0.02379555,0.1139614
 3,0.04780253,-0.09440675,-0.02569714,-0.02133044,0.09469449,0.02577472
 ,0.02159213,-0.00060768,-0.03513008,-0.00456484,-0.00110908,-0.0040699
 7,-0.00073452,1.44773420,-0.01013604,0.03750538,0.00326093,0.00425274,
 -0.00252318,0.00043637,-0.02946759,0.00249662,-0.00143311,-0.00031707,
 -0.00106853,0.00043939,-0.00109832,0.00008373,0.20803974,-0.01251181,0
 .09363571,0.00032296,0.00106342,0.00003732,0.00013794,-0.00060796,-0.0
 0011181,-0.41018087,-0.01881459,-0.06049485,0.40109820,-0.00302219,-0.
 01444061,-0.00250297,0.00001071,-0.00083294,-0.00012161,-0.03432754,-0
 .01510675,-0.00300961,0.02133322,0.02394543,-0.00049925,-0.00185089,0.
 00066689,-0.00002825,-0.00023167,0.00024281,-0.06250278,-0.00065846,-0
 .04083122,0.06146853,0.00396779,0.02782342,-0.00633707,0.03927370,0.00
 368884,0.00173007,-0.00059872,0.00034696,-1.03571770,0.05519626,-0.145
 99494,0.00887400,0.01597089,0.00222209,1.37927753,0.00691255,-0.019355
 09,-0.00175824,0.00124298,-0.00317261,-0.00018029,0.09292697,-0.023934
 51,0.01552100,-0.00287270,0.00145155,-0.00134758,-0.09258149,0.1202817
 1,-0.00046230,0.00322021,0.00273421,0.00055789,-0.00047345,-0.00046351
 ,-0.14098731,0.00979316,-0.05492024,-0.00023407,0.00152188,0.00814456,
 0.18952764,-0.00552008,0.08602736,-0.00203094,-0.00096725,-0.00030421,
 0.00400778,0.00318289,0.00088883,0.00823408,-0.00429251,0.00034537,-0.
 00130291,0.00086442,-0.00097180,-0.26309521,-0.00211743,-0.02902958,0.
 77571141,-0.00302071,0.00293143,0.00009078,0.00486473,-0.00140454,0.00
 035456,0.01507766,-0.00238849,0.00181539,-0.00046999,0.00567258,-0.000
 09272,-0.02844109,-0.05477949,-0.00231182,-0.22704087,0.83402520,-0.00
 057350,0.00037814,-0.00088456,0.00110769,0.00011132,0.00114934,0.00264
 709,-0.00121215,0.00256775,-0.00114812,0.00011433,0.00566562,-0.032590
 27,0.00204686,-0.07658089,0.05477218,0.05182527,0.22446406,0.00038620,
 -0.00019888,0.00002787,-0.00081710,-0.00146808,-0.00032539,-0.00623107
 ,0.00150708,-0.00081826,0.00061889,-0.00171023,0.00003565,-0.04649471,
 0.04330413,-0.00442365,-0.35008358,0.32627119,0.00376774,0.37222452,0.
 00096653,-0.00093712,0.00001196,-0.00152229,0.00074542,-0.00011623,-0.
 00299522,0.00204920,-0.00023935,-0.00001278,-0.00042532,0.00010148,0.0
 3918069,-0.00556595,0.00213223,0.31461400,-0.52548732,-0.01399227,-0.3
 7873415,0.63797211,0.00018497,-0.00017718,0.00005913,-0.00032651,-0.00
 009545,-0.00011437,-0.00137158,0.00042700,0.00029558,0.00026079,-0.000
 15518,-0.00110214,-0.00502699,0.00270595,0.02131795,0.00184148,-0.0104
 8689,-0.08124174,-0.00073350,0.02610879,0.03790144,0.00014569,0.000347
 25,-0.00005328,-0.00074693,-0.00250825,-0.00024083,-0.00342097,0.00268
 909,-0.00015824,0.00067279,0.00077136,0.00030178,-0.04004352,-0.046326
 51,-0.01479951,-0.14093184,-0.06478553,-0.01838634,0.03200722,0.017992
 98,0.00132278,0.42581727,0.00188114,-0.00089529,0.00007584,-0.00309654
 ,-0.00117588,-0.00046541,-0.00180279,0.00176800,-0.00016041,0.00047011
 ,-0.00047099,0.00009146,-0.02626174,-0.01059253,-0.00700854,-0.0364919
 3,-0.25195304,-0.02952828,0.01569082,-0.10794093,-0.01832425,0.0845472
 4,0.45499741,0.00023959,-0.00017550,0.00055159,-0.00045535,-0.00035037
 ,-0.00118347,-0.00067415,0.00056416,0.00034297,0.00023529,0.00008486,-
 0.00039989,-0.01130323,-0.00970667,0.00874548,-0.01579356,-0.03571231,
 -0.07346803,0.00195550,-0.01683272,0.02776391,0.06003722,0.06300227,0.
 10058292,0.00035437,0.00006412,0.00010595,-0.00096021,0.00124957,-0.00
 001952,0.00212455,-0.00134285,0.00011080,-0.00037881,0.00006755,-0.000
 07059,0.00366067,0.00158800,0.00095787,-0.02384814,-0.04488384,-0.0116
 6225,-0.00676532,0.01846842,0.00210545,-0.18142610,-0.00481023,-0.0225
 2176,0.42855522,0.00027482,-0.00013193,0.00000376,-0.00060411,0.000947
 99,0.00008788,0.00005041,0.00004710,0.00005403,-0.00013379,0.00020837,
 0.00002110,-0.00181048,-0.00416398,-0.00148820,-0.04601112,-0.00878917
 ,-0.00978607,-0.00086540,0.00168208,0.00047312,0.01704070,-0.09031203,
 0.00037551,-0.02135140,0.65830107,0.00000313,0.00003595,-0.00006479,-0
 .00006424,0.00028008,0.00008535,0.00027190,-0.00008915,-0.00017498,-0.
 00003630,0.00010506,-0.00021993,-0.00104469,-0.00188806,0.00547973,-0.
 01054852,-0.01202469,-0.00317767,-0.00264365,0.00318966,-0.00542898,-0
 .01979005,-0.00198290,-0.06922013,0.02177705,0.00531984,0.55503173,-0.
 00001596,0.00000620,0.00001502,0.00009268,-0.00029266,-0.00000432,-0.0
 0035632,0.00021435,0.00002929,0.00006988,-0.00001633,0.00007873,-0.000
 43183,-0.00035211,-0.00174421,-0.00018094,0.00677459,0.00293595,0.0008
 1229,-0.00264583,0.00127908,-0.04205136,-0.00818303,0.03097396,-0.0949
 4423,0.00130888,0.04539590,0.56057807,-0.00004125,0.00000975,0.0000623
 2,0.00003261,-0.00002776,-0.00010679,0.00001262,-0.00002525,-0.0000527
 4,0.00000935,0.00001631,0.00001653,0.00000893,-0.00008381,-0.00007051,
 -0.00193573,0.00246644,0.00184682,0.00114970,0.00001531,-0.00079313,-0
 .00619265,0.00073538,0.00533736,0.00166547,-0.08599797,-0.00174578,-0.
 00106651,0.58987715,0.00004156,-0.00000344,-0.00003924,0.00000087,-0.0
 0014818,0.00005552,-0.00026368,0.00003725,0.00005800,0.00003150,-0.000
 00962,0.00001859,0.00021994,0.00003594,-0.00068191,-0.00126245,0.00484
 809,0.00179057,0.00215961,-0.00131722,-0.00091906,-0.00359527,-0.00282
 437,0.01004454,0.05739872,0.00075480,-0.19523993,0.04399362,0.00333408
 ,0.51941908,0.00008865,-0.00004661,0.00004125,-0.00013243,-0.00015473,
 -0.00011235,-0.00047479,0.00027752,-0.00004557,0.00003958,0.00003149,-
 0.00001544,-0.00093807,-0.00145058,0.00016966,-0.00577989,0.00498041,-
 0.00208805,0.00237120,-0.00108006,0.00039354,-0.02007514,-0.04067600,-
 0.01906267,-0.04491677,-0.00229863,-0.00374207,0.00238309,0.01579414,0
 .00776878,0.06524555,0.00000166,-0.00001965,0.00003841,0.00000249,-0.0
 0006735,-0.00007131,-0.00015318,0.00009707,0.00003562,0.00002919,-0.00
 002348,0.00000260,-0.00012596,-0.00007806,-0.00026906,0.00114861,0.000
 32327,-0.00015085,-0.00152290,0.00027956,-0.00043059,-0.00322806,-0.00
 238024,-0.00024248,-0.01469518,-0.26758927,-0.11393432,0.00110018,0.00
 367802,0.00205898,0.01828396,0.28160400,0.00004999,0.00000668,-0.00003
 472,-0.00009764,-0.00009049,0.00004972,-0.00007208,0.00006003,0.000002
 44,0.00000788,-0.00000440,-0.00000888,-0.00024175,-0.00022479,0.000083
 20,-0.00067151,0.00301891,0.00007028,0.00130634,-0.00002424,0.00060298
 ,-0.00424866,-0.00642087,-0.00172227,-0.00861460,-0.11226249,-0.113345
 16,-0.00035458,-0.02615366,-0.01410535,0.00818509,0.12433922,0.1195578
 2,-0.00010779,0.00006682,0.00002063,0.00025735,-0.00025881,-0.00005492
 ,-0.00004088,-0.00003096,-0.00003373,0.00004620,0.00001897,-0.00001589
 ,-0.00043613,-0.00020492,0.00055076,0.00034277,0.00862225,0.00019304,0
 .00189749,-0.00293019,0.00007285,-0.03203632,0.01990085,-0.02481088,-0
 .07181915,0.05454007,-0.04496557,0.00772540,-0.01356487,0.01117369,0.0
 0244710,-0.00116077,0.00232373,0.09263866,0.00002739,0.00000966,-0.000
 01987,-0.00004578,-0.00001406,0.00002374,0.00004660,-0.00004539,-0.000
 07118,0.00000177,0.00002642,-0.00003358,0.00017233,-0.00014693,0.00085
 179,-0.00217701,0.00108489,-0.00110990,-0.00117721,-0.00173418,-0.0012
 6327,-0.00139437,0.00647273,-0.00588833,0.06456500,-0.20529197,0.12290
 626,-0.00090136,0.00164589,-0.00136014,0.00769847,-0.01775339,0.016434
 06,-0.06595051,0.21411467,-0.00001509,0.00001742,0.00002329,0.00001630
 ,-0.00000623,-0.00003569,0.00014276,-0.00006417,0.00004042,-0.00000854
 ,0.00002778,-0.00000310,0.00005627,-0.00020949,-0.00007362,-0.00151679
 ,0.00403307,0.00101845,0.00205629,-0.00105436,0.00004028,-0.00642412,0
 .00030557,-0.00221587,-0.04861142,0.11686937,-0.14614870,-0.00771184,0
 .02200586,-0.01718343,0.00605082,-0.01144130,0.01128112,0.05331597,-0.
 12997530,0.15558923,-0.00001938,0.00000053,0.00000737,0.00004778,-0.00
 008402,-0.00001932,-0.00010606,0.00005179,-0.00000029,0.00003667,-0.00
 000850,0.00001011,-0.00017865,-0.00002699,-0.00023818,0.00068234,0.002
 54143,0.00049530,0.00037082,-0.00073510,0.00003964,-0.00227523,-0.0017
 2889,0.00366166,-0.01450209,-0.00266645,-0.00646707,-0.30138819,-0.048
 77699,-0.04555728,0.00031878,0.00048004,0.00006929,0.00036889,-0.00032
 317,0.00022210,0.32695311,0.00001598,-0.00000905,-0.00001371,-0.000012
 39,-0.00001790,0.00002404,-0.00007155,0.00002531,0.00002523,0.00000986
 ,-0.00000779,0.00000430,0.00000158,0.00007671,-0.00018919,0.00079671,-
 0.00074597,-0.00042372,-0.00062808,0.00004810,0.00063120,0.00066364,0.
 00147222,0.00008827,-0.00013807,-0.00227866,-0.00018041,-0.04926898,-0
 .05494120,-0.00889904,-0.00007487,0.00001099,0.00022071,0.00009998,-0.
 00003243,0.00004721,0.05357479,0.05511891,-0.00000737,-0.00000660,0.00
 004035,-0.00002605,0.00008808,-0.00004948,0.00013783,-0.00004801,-0.00
 001596,-0.00001648,0.00000011,-0.00001964,0.00012385,0.00020476,0.0004
 4265,0.00044746,-0.00308632,-0.00115709,-0.00082680,0.00101990,0.00019
 786,0.00763079,0.00230094,-0.00505519,0.02547524,0.00532579,0.00901450
 ,-0.04777022,-0.00902620,-0.05670810,-0.00062812,-0.00072783,0.0009738
 9,-0.00095138,0.00061333,0.00076320,0.04917385,0.00973615,0.05807968,0
 .00004700,-0.00000594,-0.00004943,-0.00005479,0.00002141,0.00007048,0.
 00000287,-0.00000397,0.00000036,-0.00001806,-0.00000292,-0.00000192,0.
 00007032,0.00001192,0.00004392,-0.00011271,-0.00131806,-0.00025459,-0.
 00038495,0.00039458,0.00003470,0.00281094,0.00069629,-0.00080599,0.004
 63781,-0.01419749,0.01241632,-0.08286664,0.07223337,-0.06006705,0.0004
 2475,0.00015594,-0.00100011,-0.00149192,-0.00012048,0.00337639,-0.0095
 3595,0.02346303,-0.01821517,0.08622818,0.00002925,-0.00000880,-0.00006
 222,-0.00002652,0.00000835,0.00008257,-0.00007045,0.00002497,-0.000005
 82,-0.00000453,-0.00001315,0.00001158,-0.00006155,0.00005104,-0.000112
 18,0.00044717,-0.00117669,0.00023230,-0.00082393,0.00033979,0.00032045
 ,-0.00040488,0.00016578,-0.00041089,-0.00091322,0.00080012,-0.00079488
 ,0.07188114,-0.19143300,0.11583457,-0.00062698,0.00063919,0.00010487,0
 .00048777,0.00113674,-0.00037500,-0.00228740,0.00501299,-0.00540565,-0
 .07847173,0.20240918,-0.00004326,0.00000442,0.00002698,0.00006302,0.00
 006609,-0.00004761,0.00008592,-0.00005570,-0.00000291,-0.00000620,0.00
 001006,0.00000557,0.00000719,0.00004591,-0.00004316,0.00000424,0.00029
 045,0.00000073,-0.00004860,-0.00020650,0.00020525,-0.00113075,-0.00128
 486,0.00275491,-0.01224643,0.02308334,-0.02050163,-0.05728401,0.114348
 21,-0.14179796,-0.00044797,-0.00030978,0.00092771,0.00375348,-0.001010
 18,-0.00411942,-0.00119486,0.00259009,-0.00336990,0.06162198,-0.127065
 02,0.15577295,-0.00000892,0.00001689,-0.00001778,0.00001241,0.00007933
 ,0.00002896,0.00014972,-0.00010031,0.00001404,-0.00003645,0.00001911,-
 0.00001098,0.00006030,-0.00005384,0.00011109,-0.00161223,0.00082785,0.
 00078412,0.00008811,-0.00096156,-0.00007671,0.00155348,-0.00013530,-0.
 00167562,0.00022819,0.01672397,0.00943788,-0.04942593,-0.01932818,-0.0
 1204256,-0.00100162,-0.00031600,0.00335860,0.00020834,-0.00042167,-0.0
 0094910,-0.00077284,-0.02843164,-0.01454743,0.00024315,0.01084586,0.00
 686626,0.05031429,0.00000888,-0.00000526,0.00002262,-0.00001647,-0.000
 01809,-0.00002509,-0.00002589,0.00000992,0.00001505,-0.00000057,0.0000
 0036,-0.00000195,0.00007666,0.00001194,-0.00007623,-0.00001994,0.00022
 089,-0.00035179,-0.00079407,-0.00104076,0.00105942,0.00078799,0.000109
 40,-0.00013315,0.00046667,0.00256824,0.00080337,-0.01855852,-0.2659352
 3,-0.11234171,-0.00065752,0.00127933,0.00099645,0.00036432,0.00052736,
 -0.00018044,-0.00001108,-0.00373225,-0.00098846,-0.00285597,-0.0179565
 1,-0.01050653,0.02123550,0.28396067,0.00001763,-0.00002095,0.00001088,
 -0.00002312,-0.00003057,-0.00003403,-0.00015432,0.00006055,-0.00001276
 ,0.00001505,-0.00002847,0.00001734,0.00000910,0.00027480,-0.00021182,0
 .00179887,-0.00256177,-0.00021682,-0.00148915,0.00121888,0.00042190,-0
 .00046554,0.00222379,0.00247852,-0.00418452,-0.02883178,-0.01608942,-0
 .00983238,-0.10900238,-0.10471133,0.00353310,0.00110270,-0.00433278,-0
 .00057177,-0.00009744,0.00102384,-0.00020230,-0.00366113,-0.00313678,0
 .00283012,0.01764531,0.01018850,0.00871922,0.12170844,0.11460475\\-0.0
 0077045,0.01000445,0.00118162,-0.00005415,0.00015197,0.00001736,-0.000
 33775,-0.01018635,-0.00138387,0.00012245,-0.00004007,0.00001719,0.0005
 7534,-0.00012284,0.00006791,0.00003802,0.00000311,0.00000847,0.0002199
 8,0.00010811,0.00004558,0.00012921,0.00008415,0.00004262,0.00002989,0.
 00000191,0.00000837,0.00002773,0.00000432,-0.00000233,0.00001424,-0.00
 000482,0.00000467,0.00000211,-0.00000403,-0.00000424,0.00000383,-0.000
 00320,-0.00000281,0.00000327,0.00000199,0.00000120,-0.00000371,0.00000
 129,-0.00000173\\\@


 EVERYTHING'S GOT A MORAL, IF ONLY YOU CAN FIND IT.

                                    -- LEWIS CARROL, ALICE IN WONDERLAND
 Job cpu time:       0 days  0 hours 57 minutes 40.2 seconds.
 Elapsed time:       0 days  0 hours  2 minutes 24.5 seconds.
 File lengths (MBytes):  RWF=    153 Int=      0 D2E=      0 Chk=      9 Scr=      1
 Normal termination of Gaussian 16 at Mon Jun 23 06:43:31 2025.
