 Entering Gaussian System, Link 0=g16
 Initial command:
 /opt/g16/l1.exe "/home/aayush/scratches/g16/Gau-76660.inp" -scrdir="/home/aayush/scratches/g16/"
 Entering Link 1 = /opt/g16/l1.exe PID=     76663.
  
 Copyright (c) 1988,1990,1992,1993,1995,1998,2003,2009,2016,
            Gaussian, Inc.  All Rights Reserved.
  
 This is part of the Gaussian(R) 16 program.  It is based on
 the Gaussian(R) 09 system (copyright 2009, Gaussian, Inc.),
 the Gaussian(R) 03 system (copyright 2003, Gaussian, Inc.),
 the Gaussian(R) 98 system (copyright 1998, Gaussian, Inc.),
 the Gaussian(R) 94 system (copyright 1995, Gaussian, Inc.),
 the Gaussian 92(TM) system (copyright 1992, Gaussian, Inc.),
 the Gaussian 90(TM) system (copyright 1990, Gaussian, Inc.),
 the Gaussian 88(TM) system (copyright 1988, Gaussian, Inc.),
 the Gaussian 86(TM) system (copyright 1986, Carnegie Mellon
 University), and the Gaussian 82(TM) system (copyright 1983,
 Carnegie Mellon University). Gaussian is a federally registered
 trademark of Gaussian, Inc.
  
 This software contains proprietary and confidential information,
 including trade secrets, belonging to Gaussian, Inc.
  
 This software is provided under written license and may be
 used, copied, transmitted, or stored only in accord with that
 written license.
  
 The following legend is applicable only to US Government
 contracts under FAR:
  
                    RESTRICTED RIGHTS LEGEND
  
 Use, reproduction and disclosure by the US Government is
 subject to restrictions as set forth in subparagraphs (a)
 and (c) of the Commercial Computer Software - Restricted
 Rights clause in FAR 52.227-19.
  
 Gaussian, Inc.
 340 Quinnipiac St., Bldg. 40, Wallingford CT 06492
  
  
 ---------------------------------------------------------------
 Warning -- This program may not be used in any manner that
 competes with the business of Gaussian, Inc. or will provide
 assistance to any competitor of Gaussian, Inc.  The licensee
 of this program is prohibited from giving any competitor of
 Gaussian, Inc. access to this program.  By using this program,
 the user acknowledges that Gaussian, Inc. is engaged in the
 business of creating and licensing software in the field of
 computational chemistry and represents and warrants to the
 licensee that it is not a competitor of Gaussian, Inc. and that
 it will not use this program in any manner prohibited above.
 ---------------------------------------------------------------
  

 Cite this work as:
 Gaussian 16, Revision A.03,
 M. J. Frisch, G. W. Trucks, H. B. Schlegel, G. E. Scuseria, 
 M. A. Robb, J. R. Cheeseman, G. Scalmani, V. Barone, 
 G. A. Petersson, H. Nakatsuji, X. Li, M. Caricato, A. V. Marenich, 
 J. Bloino, B. G. Janesko, R. Gomperts, B. Mennucci, H. P. Hratchian, 
 J. V. Ortiz, A. F. Izmaylov, J. L. Sonnenberg, D. Williams-Young, 
 F. Ding, F. Lipparini, F. Egidi, J. Goings, B. Peng, A. Petrone, 
 T. Henderson, D. Ranasinghe, V. G. Zakrzewski, J. Gao, N. Rega, 
 G. Zheng, W. Liang, M. Hada, M. Ehara, K. Toyota, R. Fukuda, 
 J. Hasegawa, M. Ishida, T. Nakajima, Y. Honda, O. Kitao, H. Nakai, 
 T. Vreven, K. Throssell, J. A. Montgomery, Jr., J. E. Peralta, 
 F. Ogliaro, M. J. Bearpark, J. J. Heyd, E. N. Brothers, K. N. Kudin, 
 V. N. Staroverov, T. A. Keith, R. Kobayashi, J. Normand, 
 K. Raghavachari, A. P. Rendell, J. C. Burant, S. S. Iyengar, 
 J. Tomasi, M. Cossi, J. M. Millam, M. Klene, C. Adamo, R. Cammi, 
 J. W. Ochterski, R. L. Martin, K. Morokuma, O. Farkas, 
 J. B. Foresman, and D. J. Fox, Gaussian, Inc., Wallingford CT, 2016.
 
 ******************************************
 Gaussian 16:  ES64L-G16RevA.03 25-Dec-2016
                23-Jun-2025 
 ******************************************
 %nprocshared=24
 Will use up to   24 processors via shared memory.
 %mem=12GB
 %chk=ethyl_propiolate_ts1.chk
 --------------------------
 # freq 6-311++g(d,p) m062x
 --------------------------
 1/10=4,30=1,38=1/1,3;
 2/12=2,17=6,18=5,40=1/2;
 3/5=4,6=6,7=1111,11=2,25=1,30=1,71=2,74=-55,140=1/1,2,3;
 4//1;
 5/5=2,38=5,98=1/2;
 8/6=4,10=90,11=11/1;
 11/6=1,8=1,9=11,15=111,16=1/1,2,10;
 10/6=1/2;
 6/7=2,8=2,9=2,10=2,28=1/1;
 7/8=1,10=1,25=1/1,2,3,16;
 1/10=4,30=1/3;
 99//99;
 -------------------
 Title Card Required
 -------------------
 Symbolic Z-matrix:
 Charge =  0 Multiplicity = 2
 O                     2.79578  -1.53152   0.02453 
 H                     1.8563   -1.70579  -0.15997 
 C                     2.5393    0.75835   0.26676 
 H                     3.59194   0.76405   0.42751 
 C                     1.35212   0.80221   0.0909 
 C                    -0.0845    0.78371  -0.12689 
 O                    -0.7883    1.75243  -0.10599 
 O                    -0.4978   -0.46921  -0.35772 
 C                    -1.91612  -0.63972  -0.57461 
 C                    -2.66989  -0.64972   0.74028 
 H                    -1.99169  -1.59461  -1.09165 
 H                    -2.26441   0.15831  -1.23098 
 H                    -3.7261   -0.8524    0.55307 
 H                    -2.28021  -1.42826   1.39777 
 H                    -2.58871   0.31618   1.239 
 

 GradGradGradGradGradGradGradGradGradGradGradGradGradGradGradGradGradGrad
 Berny optimization.
 Initialization pass.
 Trust Radius=3.00D-01 FncErr=1.00D-07 GrdErr=1.00D-07 EigMax=2.50D+02 EigMin=1.00D-04
 Number of steps in this run=      2 maximum allowed number of steps=      2.
 GradGradGradGradGradGradGradGradGradGradGradGradGradGradGradGradGradGrad

                          Input orientation:                          
 ---------------------------------------------------------------------
 Center     Atomic      Atomic             Coordinates (Angstroms)
 Number     Number       Type             X           Y           Z
 ---------------------------------------------------------------------
      1          8           0        2.795784   -1.531517    0.024532
      2          1           0        1.856304   -1.705786   -0.159968
      3          6           0        2.539297    0.758347    0.266762
      4          1           0        3.591935    0.764046    0.427511
      5          6           0        1.352115    0.802207    0.090900
      6          6           0       -0.084503    0.783710   -0.126892
      7          8           0       -0.788302    1.752429   -0.105985
      8          8           0       -0.497799   -0.469214   -0.357721
      9          6           0       -1.916118   -0.639720   -0.574613
     10          6           0       -2.669889   -0.649722    0.740281
     11          1           0       -1.991690   -1.594606   -1.091650
     12          1           0       -2.264405    0.158309   -1.230979
     13          1           0       -3.726096   -0.852403    0.553074
     14          1           0       -2.280208   -1.428257    1.397769
     15          1           0       -2.588713    0.316180    1.238995
 ---------------------------------------------------------------------
                    Distance matrix (angstroms):
                    1          2          3          4          5
     1  O    0.000000
     2  H    0.973156   0.000000
     3  C    2.316881   2.592398   0.000000
     4  H    2.462896   3.075324   1.064857   0.000000
     5  C    2.744969   2.570442   1.200938   2.265294   0.000000
     6  C    3.698548   3.156805   2.653287   3.718057   1.453151
     7  O    4.862819   4.353861   3.492858   4.521946   2.350121
     8  O    3.481708   2.666462   3.334792   4.343207   2.289095
     9  C    4.832835   3.942029   4.744810   5.771781   3.633649
    10  C    5.582422   4.734146   5.416872   6.427053   4.325079
    11  H    4.916274   3.960739   5.283135   6.248836   4.280674
    12  H    5.480632   4.647812   5.067428   6.116717   3.903996
    13  H    6.578409   5.692089   6.475464   7.495482   5.360930
    14  H    5.259481   4.428803   5.411843   6.342685   4.458323
    15  H    5.820800   5.079726   5.238056   6.249760   4.133336
                    6          7          8          9         10
     6  C    0.000000
     7  O    1.197575   0.000000
     8  O    1.339371   2.254653   0.000000
     9  C    2.362503   2.685881   1.444902   0.000000
    10  C    3.080736   3.166523   2.440526   1.515657   0.000000
    11  H    3.197578   3.690843   2.009196   1.088506   2.169961
    12  H    2.522322   2.446571   2.068154   1.090399   2.168686
    13  H    4.049743   3.981224   3.376134   2.143113   1.091650
    14  H    3.469656   3.821495   2.679271   2.155143   1.090990
    15  H    2.890553   2.667070   2.745590   2.157615   1.090079
                   11         12         13         14         15
    11  H    0.000000
    12  H    1.779465   0.000000
    13  H    2.502828   2.518119   0.000000
    14  H    2.511597   3.070465   1.770793   0.000000
    15  H    3.072368   2.496171   1.769100   1.778608   0.000000
 Stoichiometry    C5H7O3(2)
 Framework group  C1[X(C5H7O3)]
 Deg. of freedom    39
 Full point group                 C1      NOp   1
 Largest Abelian subgroup         C1      NOp   1
 Largest concise Abelian subgroup C1      NOp   1
                         Standard orientation:                         
 ---------------------------------------------------------------------
 Center     Atomic      Atomic             Coordinates (Angstroms)
 Number     Number       Type             X           Y           Z
 ---------------------------------------------------------------------
      1          8           0        2.795784   -1.531517    0.024532
      2          1           0        1.856304   -1.705786   -0.159968
      3          6           0        2.539297    0.758347    0.266762
      4          1           0        3.591935    0.764046    0.427511
      5          6           0        1.352115    0.802207    0.090900
      6          6           0       -0.084503    0.783710   -0.126892
      7          8           0       -0.788302    1.752429   -0.105985
      8          8           0       -0.497799   -0.469214   -0.357721
      9          6           0       -1.916118   -0.639720   -0.574613
     10          6           0       -2.669889   -0.649722    0.740281
     11          1           0       -1.991690   -1.594606   -1.091650
     12          1           0       -2.264405    0.158309   -1.230979
     13          1           0       -3.726096   -0.852403    0.553074
     14          1           0       -2.280208   -1.428257    1.397769
     15          1           0       -2.588713    0.316180    1.238995
 ---------------------------------------------------------------------
 Rotational constants (GHZ):           3.3382236           1.1486167           0.9187660
 Standard basis: 6-311++G(d,p) (5D, 7F)
 There are   233 symmetry adapted cartesian basis functions of A   symmetry.
 There are   225 symmetry adapted basis functions of A   symmetry.
   225 basis functions,   351 primitive gaussians,   233 cartesian basis functions
    31 alpha electrons       30 beta electrons
       nuclear repulsion energy       348.9522993503 Hartrees.
 NAtoms=   15 NActive=   15 NUniq=   15 SFac= 1.00D+00 NAtFMM=   60 NAOKFM=F Big=F
 Integral buffers will be    131072 words long.
 Raffenetti 2 integral format.
 Two-electron integral symmetry is turned on.
 One-electron integrals computed using PRISM.
 NBasis=   225 RedAO= T EigKep=  7.74D-06  NBF=   225
 NBsUse=   224 1.00D-06 EigRej=  8.57D-07 NBFU=   224
 ExpMin= 3.60D-02 ExpMax= 8.59D+03 ExpMxC= 1.30D+03 IAcc=3 IRadAn=         5 AccDes= 0.00D+00
 Harris functional with IExCor= 1009 and IRadAn=       5 diagonalized for initial guess.
 HarFok:  IExCor= 1009 AccDes= 0.00D+00 IRadAn=         5 IDoV= 1 UseB2=F ITyADJ=14
 ICtDFT=  3500011 ScaDFX=  1.000000  1.000000  1.000000  1.000000
 FoFCou: FMM=F IPFlag=           0 FMFlag=      100000 FMFlg1=           0
         NFxFlg=           0 DoJE=T BraDBF=F KetDBF=T FulRan=T
         wScrn=  0.000000 ICntrl=       500 IOpCl=  0 I1Cent=   200000004 NGrid=           0
         NMat0=    1 NMatS0=      1 NMatT0=    0 NMatD0=    1 NMtDS0=    0 NMtDT0=    0
 Petite list used in FoFCou.
 Initial guess <Sx>= 0.0000 <Sy>= 0.0000 <Sz>= 0.5000 <S**2>= 0.7500 S= 0.5000
 Requested convergence on RMS density matrix=1.00D-08 within 128 cycles.
 Requested convergence on MAX density matrix=1.00D-06.
 Requested convergence on             energy=1.00D-06.
 No special actions if energy rises.
 Restarting incremental Fock formation.
 SCF Done:  E(UM062X) =  -420.209652284     A.U. after   23 cycles
            NFock= 23  Conv=0.29D-08     -V/T= 2.0032
 <Sx>= 0.0000 <Sy>= 0.0000 <Sz>= 0.5000 <S**2>= 0.7566 S= 0.5033
 <L.S>=  0.00000000000    
 Annihilation of the first spin contaminant:
 S**2 before annihilation     0.7566,   after     0.7500
 DoSCS=F DFT=T ScalE2(SS,OS)=  1.000000  1.000000
 Range of M.O.s used for correlation:     1   224
 NBasis=   225 NAE=    31 NBE=    30 NFC=     0 NFV=     0
 NROrb=    224 NOA=    31 NOB=    30 NVA=   193 NVB=   194

 **** Warning!!: The largest alpha MO coefficient is  0.12038827D+03


 **** Warning!!: The largest beta MO coefficient is  0.12528901D+03

 Symmetrizing basis deriv contribution to polar:
 IMax=3 JMax=2 DiffMx= 0.00D+00
 G2DrvN: will do    16 centers at a time, making    1 passes.
 Calling FoFCou, ICntrl=  3107 FMM=F I1Cent=   0 AccDes= 0.00D+00.
 End of G2Drv F.D. properties file   721 does not exist.
 End of G2Drv F.D. properties file   722 does not exist.
 End of G2Drv F.D. properties file   788 does not exist.
          IDoAtm=111111111111111
          Differentiating once with respect to electric field.
                with respect to dipole field.
          Differentiating once with respect to nuclear coordinates.
 Keep R1 and R2 ints in memory in canonical form, NReq=671901989.
          There are    48 degrees of freedom in the 1st order CPHF.  IDoFFX=6 NUNeed=     3.
     45 vectors produced by pass  0 Test12= 2.46D-14 2.08D-09 XBig12= 1.02D+02 4.15D+00.
 AX will form    45 AO Fock derivatives at one time.
     45 vectors produced by pass  1 Test12= 2.46D-14 2.08D-09 XBig12= 2.35D+01 6.37D-01.
     45 vectors produced by pass  2 Test12= 2.46D-14 2.08D-09 XBig12= 7.97D-01 1.26D-01.
     45 vectors produced by pass  3 Test12= 2.46D-14 2.08D-09 XBig12= 9.25D-03 1.33D-02.
     45 vectors produced by pass  4 Test12= 2.46D-14 2.08D-09 XBig12= 7.58D-05 9.27D-04.
     45 vectors produced by pass  5 Test12= 2.46D-14 2.08D-09 XBig12= 6.51D-07 8.19D-05.
     36 vectors produced by pass  6 Test12= 2.46D-14 2.08D-09 XBig12= 6.40D-09 7.40D-06.
     21 vectors produced by pass  7 Test12= 2.46D-14 2.08D-09 XBig12= 4.33D-11 5.64D-07.
      4 vectors produced by pass  8 Test12= 2.46D-14 2.08D-09 XBig12= 3.77D-13 4.76D-08.
      2 vectors produced by pass  9 Test12= 2.46D-14 2.08D-09 XBig12= 3.92D-15 7.72D-09.
 InvSVY:  IOpt=1 It=  1 EMax= 3.55D-15
 Solved reduced A of dimension   333 with    48 vectors.
 Isotropic polarizability for W=    0.000000       70.98 Bohr**3.
 End of Minotr F.D. properties file   721 does not exist.
 End of Minotr F.D. properties file   722 does not exist.
 End of Minotr F.D. properties file   788 does not exist.

 **********************************************************************

            Population analysis using the SCF density.

 **********************************************************************

 Orbital symmetries:
 Alpha Orbitals:
       Occupied  (A) (A) (A) (A) (A) (A) (A) (A) (A) (A) (A) (A)
                 (A) (A) (A) (A) (A) (A) (A) (A) (A) (A) (A) (A)
                 (A) (A) (A) (A) (A) (A) (A)
       Virtual   (A) (A) (A) (A) (A) (A) (A) (A) (A) (A) (A) (A)
                 (A) (A) (A) (A) (A) (A) (A) (A) (A) (A) (A) (A)
                 (A) (A) (A) (A) (A) (A) (A) (A) (A) (A) (A) (A)
                 (A) (A) (A) (A) (A) (A) (A) (A) (A) (A) (A) (A)
                 (A) (A) (A) (A) (A) (A) (A) (A) (A) (A) (A) (A)
                 (A) (A) (A) (A) (A) (A) (A) (A) (A) (A) (A) (A)
                 (A) (A) (A) (A) (A) (A) (A) (A) (A) (A) (A) (A)
                 (A) (A) (A) (A) (A) (A) (A) (A) (A) (A) (A) (A)
                 (A) (A) (A) (A) (A) (A) (A) (A) (A) (A) (A) (A)
                 (A) (A) (A) (A) (A) (A) (A) (A) (A) (A) (A) (A)
                 (A) (A) (A) (A) (A) (A) (A) (A) (A) (A) (A) (A)
                 (A) (A) (A) (A) (A) (A) (A) (A) (A) (A) (A) (A)
                 (A) (A) (A) (A) (A) (A) (A) (A) (A) (A) (A) (A)
                 (A) (A) (A) (A) (A) (A) (A) (A) (A) (A) (A) (A)
                 (A) (A) (A) (A) (A) (A) (A) (A) (A) (A) (A) (A)
                 (A) (A) (A) (A) (A) (A) (A) (A) (A) (A) (A) (A)
                 (A)
 Beta  Orbitals:
       Occupied  (A) (A) (A) (A) (A) (A) (A) (A) (A) (A) (A) (A)
                 (A) (A) (A) (A) (A) (A) (A) (A) (A) (A) (A) (A)
                 (A) (A) (A) (A) (A) (A)
       Virtual   (A) (A) (A) (A) (A) (A) (A) (A) (A) (A) (A) (A)
                 (A) (A) (A) (A) (A) (A) (A) (A) (A) (A) (A) (A)
                 (A) (A) (A) (A) (A) (A) (A) (A) (A) (A) (A) (A)
                 (A) (A) (A) (A) (A) (A) (A) (A) (A) (A) (A) (A)
                 (A) (A) (A) (A) (A) (A) (A) (A) (A) (A) (A) (A)
                 (A) (A) (A) (A) (A) (A) (A) (A) (A) (A) (A) (A)
                 (A) (A) (A) (A) (A) (A) (A) (A) (A) (A) (A) (A)
                 (A) (A) (A) (A) (A) (A) (A) (A) (A) (A) (A) (A)
                 (A) (A) (A) (A) (A) (A) (A) (A) (A) (A) (A) (A)
                 (A) (A) (A) (A) (A) (A) (A) (A) (A) (A) (A) (A)
                 (A) (A) (A) (A) (A) (A) (A) (A) (A) (A) (A) (A)
                 (A) (A) (A) (A) (A) (A) (A) (A) (A) (A) (A) (A)
                 (A) (A) (A) (A) (A) (A) (A) (A) (A) (A) (A) (A)
                 (A) (A) (A) (A) (A) (A) (A) (A) (A) (A) (A) (A)
                 (A) (A) (A) (A) (A) (A) (A) (A) (A) (A) (A) (A)
                 (A) (A) (A) (A) (A) (A) (A) (A) (A) (A) (A) (A)
                 (A) (A)
 The electronic state is 2-A.
 Alpha  occ. eigenvalues --  -19.69436 -19.66990 -19.64156 -10.71555 -10.61483
 Alpha  occ. eigenvalues --  -10.58285 -10.57464 -10.54520  -1.26563  -1.17405
 Alpha  occ. eigenvalues --   -1.12656  -0.91466  -0.87806  -0.78911  -0.71396
 Alpha  occ. eigenvalues --   -0.65417  -0.62004  -0.59458  -0.57360  -0.54831
 Alpha  occ. eigenvalues --   -0.54295  -0.50282  -0.49654  -0.47674  -0.46189
 Alpha  occ. eigenvalues --   -0.43002  -0.42453  -0.40011  -0.39451  -0.37714
 Alpha  occ. eigenvalues --   -0.35743
 Alpha virt. eigenvalues --   -0.02266  -0.00765   0.00794   0.01330   0.01666
 Alpha virt. eigenvalues --    0.02908   0.04633   0.04844   0.05024   0.06298
 Alpha virt. eigenvalues --    0.06628   0.07065   0.08108   0.09037   0.10399
 Alpha virt. eigenvalues --    0.11324   0.11851   0.12131   0.12593   0.13279
 Alpha virt. eigenvalues --    0.13672   0.14136   0.14851   0.15968   0.16534
 Alpha virt. eigenvalues --    0.17024   0.17987   0.18267   0.19174   0.19973
 Alpha virt. eigenvalues --    0.20443   0.20988   0.22906   0.23377   0.25056
 Alpha virt. eigenvalues --    0.26007   0.26605   0.27488   0.28738   0.29885
 Alpha virt. eigenvalues --    0.30256   0.30721   0.32131   0.32310   0.33398
 Alpha virt. eigenvalues --    0.33992   0.35661   0.36340   0.37424   0.40356
 Alpha virt. eigenvalues --    0.42662   0.45598   0.45928   0.48649   0.50168
 Alpha virt. eigenvalues --    0.50775   0.55523   0.55849   0.56973   0.60903
 Alpha virt. eigenvalues --    0.62196   0.63369   0.64936   0.66759   0.67112
 Alpha virt. eigenvalues --    0.68508   0.69846   0.70398   0.72736   0.73892
 Alpha virt. eigenvalues --    0.75294   0.76543   0.77300   0.80536   0.83724
 Alpha virt. eigenvalues --    0.89925   0.91690   0.96532   1.00557   1.04144
 Alpha virt. eigenvalues --    1.05661   1.07117   1.07821   1.11114   1.13083
 Alpha virt. eigenvalues --    1.14354   1.16637   1.18196   1.19149   1.22447
 Alpha virt. eigenvalues --    1.22731   1.25020   1.28791   1.32022   1.34208
 Alpha virt. eigenvalues --    1.34932   1.37294   1.39643   1.40118   1.45144
 Alpha virt. eigenvalues --    1.47691   1.48550   1.50702   1.52736   1.57509
 Alpha virt. eigenvalues --    1.59026   1.59748   1.61106   1.63683   1.65586
 Alpha virt. eigenvalues --    1.67306   1.69270   1.72853   1.74419   1.76888
 Alpha virt. eigenvalues --    1.81167   1.83253   1.84122   1.86463   1.89535
 Alpha virt. eigenvalues --    1.95103   1.99399   2.02675   2.05914   2.08622
 Alpha virt. eigenvalues --    2.11831   2.12455   2.20241   2.30559   2.34891
 Alpha virt. eigenvalues --    2.41504   2.47906   2.50759   2.53216   2.55382
 Alpha virt. eigenvalues --    2.58482   2.61622   2.61691   2.63452   2.64302
 Alpha virt. eigenvalues --    2.66976   2.70571   2.71903   2.74430   2.79047
 Alpha virt. eigenvalues --    2.81897   2.85842   2.86362   2.91082   2.93020
 Alpha virt. eigenvalues --    2.94358   2.97816   3.00329   3.03504   3.06240
 Alpha virt. eigenvalues --    3.11120   3.14111   3.16535   3.17199   3.22488
 Alpha virt. eigenvalues --    3.24255   3.30163   3.32856   3.39570   3.43447
 Alpha virt. eigenvalues --    3.55847   3.64990   3.72351   3.84224   3.85524
 Alpha virt. eigenvalues --    3.87228   3.90081   4.02537   4.11171   4.17490
 Alpha virt. eigenvalues --    4.27098   5.04445   5.10426   5.12677   5.16322
 Alpha virt. eigenvalues --    5.30871   5.44866   5.55188   5.71329   5.93677
 Alpha virt. eigenvalues --   23.62463  23.92967  23.93809  24.05366  25.15922
 Alpha virt. eigenvalues --   49.92945  49.98905  50.10218
  Beta  occ. eigenvalues --  -19.69434 -19.65422 -19.64141 -10.71564 -10.61482
  Beta  occ. eigenvalues --  -10.58287 -10.57367 -10.54520  -1.26542  -1.17367
  Beta  occ. eigenvalues --   -1.05013  -0.91214  -0.87594  -0.78860  -0.71297
  Beta  occ. eigenvalues --   -0.65377  -0.61777  -0.59396  -0.57308  -0.54464
  Beta  occ. eigenvalues --   -0.51615  -0.50206  -0.47634  -0.46228  -0.42962
  Beta  occ. eigenvalues --   -0.40317  -0.39648  -0.39529  -0.37433  -0.36846
  Beta virt. eigenvalues --   -0.08394  -0.02227  -0.00630   0.00980   0.01367
  Beta virt. eigenvalues --    0.01821   0.02960   0.04910   0.05015   0.05269
  Beta virt. eigenvalues --    0.06585   0.06704   0.07106   0.08247   0.09183
  Beta virt. eigenvalues --    0.10809   0.11422   0.12017   0.12261   0.12627
  Beta virt. eigenvalues --    0.13445   0.13795   0.14204   0.14909   0.16239
  Beta virt. eigenvalues --    0.16645   0.17321   0.18040   0.18401   0.19204
  Beta virt. eigenvalues --    0.20392   0.20527   0.21251   0.22991   0.23462
  Beta virt. eigenvalues --    0.25111   0.25927   0.26339   0.27388   0.28854
  Beta virt. eigenvalues --    0.29711   0.30308   0.30782   0.32091   0.32216
  Beta virt. eigenvalues --    0.33623   0.33968   0.35906   0.36343   0.37562
  Beta virt. eigenvalues --    0.40376   0.42726   0.45673   0.45955   0.48779
  Beta virt. eigenvalues --    0.50230   0.50820   0.55609   0.55955   0.57243
  Beta virt. eigenvalues --    0.60951   0.62515   0.63426   0.65196   0.66834
  Beta virt. eigenvalues --    0.67180   0.68577   0.69941   0.70498   0.72780
  Beta virt. eigenvalues --    0.74039   0.75563   0.76626   0.77359   0.80633
  Beta virt. eigenvalues --    0.84071   0.90108   0.91680   0.96585   1.00584
  Beta virt. eigenvalues --    1.05426   1.06398   1.07891   1.08931   1.11390
  Beta virt. eigenvalues --    1.14026   1.14455   1.16791   1.18337   1.19148
  Beta virt. eigenvalues --    1.22514   1.23516   1.25125   1.28924   1.33255
  Beta virt. eigenvalues --    1.34235   1.34932   1.37582   1.40056   1.40515
  Beta virt. eigenvalues --    1.45244   1.48273   1.49958   1.50776   1.53328
  Beta virt. eigenvalues --    1.57583   1.59082   1.59778   1.61145   1.63747
  Beta virt. eigenvalues --    1.65730   1.67526   1.69309   1.72871   1.74563
  Beta virt. eigenvalues --    1.77799   1.81206   1.83294   1.84207   1.86514
  Beta virt. eigenvalues --    1.89593   1.95184   1.99443   2.02755   2.06118
  Beta virt. eigenvalues --    2.08781   2.12258   2.13281   2.20254   2.30568
  Beta virt. eigenvalues --    2.34901   2.41566   2.48073   2.50765   2.53222
  Beta virt. eigenvalues --    2.55413   2.58527   2.61646   2.61734   2.63482
  Beta virt. eigenvalues --    2.64344   2.67106   2.70631   2.71941   2.74444
  Beta virt. eigenvalues --    2.79237   2.82283   2.86799   2.90709   2.91137
  Beta virt. eigenvalues --    2.94202   2.97809   3.00279   3.00464   3.03601
  Beta virt. eigenvalues --    3.07517   3.11385   3.14304   3.18593   3.18969
  Beta virt. eigenvalues --    3.24202   3.24313   3.30229   3.32932   3.39651
  Beta virt. eigenvalues --    3.43467   3.55941   3.65037   3.72412   3.84228
  Beta virt. eigenvalues --    3.85525   3.89653   3.91292   4.02566   4.11259
  Beta virt. eigenvalues --    4.17610   4.27111   5.06017   5.12677   5.16330
  Beta virt. eigenvalues --    5.19659   5.30920   5.44909   5.57425   5.71367
  Beta virt. eigenvalues --    5.93692  23.62486  23.92970  23.93820  24.05367
  Beta virt. eigenvalues --   25.16005  49.92484  49.98893  50.10206
          Condensed to atoms (all electrons):
               1          2          3          4          5          6
     1  O    8.050451   0.268749   0.021533  -0.005051  -0.094427   0.029291
     2  H    0.268749   0.466752  -0.022602  -0.001624   0.058410  -0.030469
     3  C    0.021533  -0.022602   5.574759   0.426848  -0.288991   0.876773
     4  H   -0.005051  -0.001624   0.426848   0.406955  -0.051496   0.014338
     5  C   -0.094427   0.058410  -0.288991  -0.051496   8.262835  -2.444733
     6  C    0.029291  -0.030469   0.876773   0.014338  -2.444733   7.774817
     7  O   -0.001021   0.001230  -0.082377  -0.002806   0.151065   0.292128
     8  O    0.008373   0.008771  -0.074436  -0.005636  -0.241099   0.106774
     9  C    0.002418   0.000049   0.044692   0.001494  -0.238143   0.056426
    10  C   -0.001116   0.001061  -0.018284  -0.001475   0.024279  -0.092759
    11  H   -0.000074  -0.000602   0.004678   0.000383  -0.013283   0.018013
    12  H    0.000114  -0.000323  -0.000544  -0.000167  -0.009836   0.004697
    13  H   -0.000004   0.000068  -0.001373  -0.000046   0.006689  -0.001774
    14  H    0.000369  -0.000810   0.000839   0.000057  -0.000229   0.002506
    15  H    0.000131  -0.000045   0.005637   0.000146  -0.037338   0.013349
               7          8          9         10         11         12
     1  O   -0.001021   0.008373   0.002418  -0.001116  -0.000074   0.000114
     2  H    0.001230   0.008771   0.000049   0.001061  -0.000602  -0.000323
     3  C   -0.082377  -0.074436   0.044692  -0.018284   0.004678  -0.000544
     4  H   -0.002806  -0.005636   0.001494  -0.001475   0.000383  -0.000167
     5  C    0.151065  -0.241099  -0.238143   0.024279  -0.013283  -0.009836
     6  C    0.292128   0.106774   0.056426  -0.092759   0.018013   0.004697
     7  O    8.001083  -0.131396   0.054591  -0.065683   0.004672  -0.022060
     8  O   -0.131396   8.384558   0.123944  -0.038410  -0.088729  -0.016225
     9  C    0.054591   0.123944   5.456565   0.009198   0.451945   0.403768
    10  C   -0.065683  -0.038410   0.009198   5.480305  -0.069806  -0.019173
    11  H    0.004672  -0.088729   0.451945  -0.069806   0.537132  -0.037068
    12  H   -0.022060  -0.016225   0.403768  -0.019173  -0.037068   0.509863
    13  H   -0.000895   0.016992  -0.047334   0.403164  -0.001520  -0.004925
    14  H    0.001156  -0.006134  -0.027880   0.407766  -0.011034   0.004962
    15  H    0.004676  -0.020111   0.008269   0.377201   0.011967  -0.010931
              13         14         15
     1  O   -0.000004   0.000369   0.000131
     2  H    0.000068  -0.000810  -0.000045
     3  C   -0.001373   0.000839   0.005637
     4  H   -0.000046   0.000057   0.000146
     5  C    0.006689  -0.000229  -0.037338
     6  C   -0.001774   0.002506   0.013349
     7  O   -0.000895   0.001156   0.004676
     8  O    0.016992  -0.006134  -0.020111
     9  C   -0.047334  -0.027880   0.008269
    10  C    0.403164   0.407766   0.377201
    11  H   -0.001520  -0.011034   0.011967
    12  H   -0.004925   0.004962  -0.010931
    13  H    0.526932  -0.031822  -0.031583
    14  H   -0.031822   0.541854  -0.046957
    15  H   -0.031583  -0.046957   0.541179
          Atomic-Atomic Spin Densities.
               1          2          3          4          5          6
     1  O    0.988468   0.004807  -0.014065   0.003690  -0.076083   0.016335
     2  H    0.004807  -0.028827  -0.001784  -0.000607   0.016190  -0.003486
     3  C   -0.014065  -0.001784  -0.026972   0.003294  -0.035084   0.024625
     4  H    0.003690  -0.000607   0.003294   0.005523  -0.007215   0.004412
     5  C   -0.076083   0.016190  -0.035084  -0.007215   0.311765  -0.051139
     6  C    0.016335  -0.003486   0.024625   0.004412  -0.051139  -0.006702
     7  O   -0.000756   0.000434  -0.004451  -0.000310   0.005818  -0.003601
     8  O    0.005542  -0.001815   0.007137   0.000454  -0.038615   0.023578
     9  C    0.002786  -0.002752   0.003995   0.000402  -0.011768   0.000216
    10  C   -0.000615   0.000691  -0.000090  -0.000111  -0.001689   0.004978
    11  H    0.000209  -0.000373   0.000228   0.000035  -0.000913  -0.000155
    12  H   -0.000005   0.000006   0.000278   0.000007  -0.001919   0.001199
    13  H    0.000006  -0.000040   0.000095   0.000001  -0.000515   0.000280
    14  H    0.000040  -0.000128   0.000130   0.000011  -0.000815   0.000108
    15  H   -0.000012   0.000010  -0.000023   0.000005   0.000191  -0.000239
               7          8          9         10         11         12
     1  O   -0.000756   0.005542   0.002786  -0.000615   0.000209  -0.000005
     2  H    0.000434  -0.001815  -0.002752   0.000691  -0.000373   0.000006
     3  C   -0.004451   0.007137   0.003995  -0.000090   0.000228   0.000278
     4  H   -0.000310   0.000454   0.000402  -0.000111   0.000035   0.000007
     5  C    0.005818  -0.038615  -0.011768  -0.001689  -0.000913  -0.001919
     6  C   -0.003601   0.023578   0.000216   0.004978  -0.000155   0.001199
     7  O    0.011033  -0.003429  -0.002850   0.001390  -0.000194  -0.000228
     8  O   -0.003429   0.005363  -0.000030  -0.000203  -0.000184   0.000068
     9  C   -0.002850  -0.000030   0.010525  -0.002220   0.001355   0.000556
    10  C    0.001390  -0.000203  -0.002220  -0.000863  -0.000777  -0.000222
    11  H   -0.000194  -0.000184   0.001355  -0.000777   0.000606   0.000048
    12  H   -0.000228   0.000068   0.000556  -0.000222   0.000048   0.000022
    13  H    0.000050  -0.000094   0.000996  -0.000843   0.000099  -0.000048
    14  H   -0.000087   0.000056   0.000448   0.000018   0.000119   0.000043
    15  H   -0.000084  -0.000051  -0.000240   0.000453   0.000037   0.000061
              13         14         15
     1  O    0.000006   0.000040  -0.000012
     2  H   -0.000040  -0.000128   0.000010
     3  C    0.000095   0.000130  -0.000023
     4  H    0.000001   0.000011   0.000005
     5  C   -0.000515  -0.000815   0.000191
     6  C    0.000280   0.000108  -0.000239
     7  O    0.000050  -0.000087  -0.000084
     8  O   -0.000094   0.000056  -0.000051
     9  C    0.000996   0.000448  -0.000240
    10  C   -0.000843   0.000018   0.000453
    11  H    0.000099   0.000119   0.000037
    12  H   -0.000048   0.000043   0.000061
    13  H   -0.000041   0.000045   0.000070
    14  H    0.000045  -0.000060  -0.000049
    15  H    0.000070  -0.000049  -0.000098
 Mulliken charges and spin densities:
               1          2
     1  O   -0.279735   0.930347
     2  H    0.251385  -0.017673
     3  C   -0.467152  -0.042687
     4  H    0.218079   0.009592
     5  C    0.916297   0.108208
     6  C   -0.619377   0.010410
     7  O   -0.204363   0.002734
     8  O   -0.027237  -0.002225
     9  C   -0.300001   0.001420
    10  C   -0.396267  -0.000103
    11  H    0.193327   0.000140
    12  H    0.197848  -0.000134
    13  H    0.167431   0.000060
    14  H    0.165356  -0.000120
    15  H    0.184409   0.000031
 Sum of Mulliken charges =  -0.00000   1.00000
 Mulliken charges and spin densities with hydrogens summed into heavy atoms:
               1          2
     1  O   -0.028350   0.912674
     3  C   -0.249073  -0.033096
     5  C    0.916297   0.108208
     6  C   -0.619377   0.010410
     7  O   -0.204363   0.002734
     8  O   -0.027237  -0.002225
     9  C    0.091174   0.001426
    10  C    0.120929  -0.000132
 APT charges:
               1
     1  O   -0.260064
     2  H    0.290386
     3  C   -0.204435
     4  H    0.245155
     5  C   -0.329039
     6  C    1.471000
     7  O   -0.779740
     8  O   -0.960981
     9  C    0.540180
    10  C   -0.042408
    11  H   -0.013147
    12  H   -0.010617
    13  H    0.011796
    14  H    0.010270
    15  H    0.031645
 Sum of APT charges =   0.00000
 APT charges with hydrogens summed into heavy atoms:
               1
     1  O    0.030322
     3  C    0.040719
     5  C   -0.329039
     6  C    1.471000
     7  O   -0.779740
     8  O   -0.960981
     9  C    0.516416
    10  C    0.011303
 Electronic spatial extent (au):  <R**2>=           1244.7149
 Charge=             -0.0000 electrons
 Dipole moment (field-independent basis, Debye):
    X=             -1.6528    Y=             -1.5615    Z=             -0.2323  Tot=              2.2856
 Quadrupole moment (field-independent basis, Debye-Ang):
   XX=            -42.9515   YY=            -52.0359   ZZ=            -47.5094
   XY=              8.5442   XZ=              1.5504   YZ=              1.0906
 Traceless Quadrupole moment (field-independent basis, Debye-Ang):
   XX=              4.5475   YY=             -4.5370   ZZ=             -0.0105
   XY=              8.5442   XZ=              1.5504   YZ=              1.0906
 Octapole moment (field-independent basis, Debye-Ang**2):
  XXX=             -4.3425  YYY=            -21.8986  ZZZ=             -3.4698  XYY=             -1.0291
  XXY=             14.5211  XXZ=              2.5145  XZZ=             -4.6118  YZZ=             -0.6276
  YYZ=             -2.3064  XYZ=              1.1888
 Hexadecapole moment (field-independent basis, Debye-Ang**3):
 XXXX=          -1046.5184 YYYY=           -369.2890 ZZZZ=           -113.6655 XXXY=             75.4661
 XXXZ=             29.1598 YYYX=            -12.2027 YYYZ=              5.1123 ZZZX=              2.8100
 ZZZY=             -0.2640 XXYY=           -268.4558 XXZZ=           -215.3603 YYZZ=            -77.5660
 XXYZ=              9.0469 YYXZ=             -1.3905 ZZXY=             -3.9966
 N-N= 3.489522993503D+02 E-N=-1.682352903151D+03  KE= 4.188721427682D+02
  Exact polarizability:  93.474  -2.017  69.280   3.181   1.313  50.200
 Approx polarizability: 104.231  -7.402  80.341   6.105   1.655  57.698
                          Isotropic Fermi Contact Couplings
        Atom                 a.u.       MegaHertz       Gauss      10(-4) cm-1
     1  O(17)              0.12828     -77.76124     -27.74715     -25.93836
     2  H(1)              -0.01514     -67.67824     -24.14928     -22.57503
     3  C(13)              0.01579      17.74825       6.33302       5.92018
     4  H(1)               0.00358      16.00710       5.71173       5.33939
     5  C(13)              0.02180      24.50742       8.74486       8.17479
     6  C(13)             -0.00546      -6.13783      -2.19013      -2.04736
     7  O(17)              0.00322      -1.94932      -0.69557      -0.65022
     8  O(17)              0.00354      -2.14450      -0.76521      -0.71533
     9  C(13)              0.00070       0.79031       0.28200       0.26362
    10  C(13)             -0.00000      -0.00378      -0.00135      -0.00126
    11  H(1)               0.00003       0.14942       0.05332       0.04984
    12  H(1)              -0.00001      -0.05700      -0.02034      -0.01901
    13  H(1)               0.00001       0.04874       0.01739       0.01626
    14  H(1)               0.00000       0.00485       0.00173       0.00162
    15  H(1)              -0.00000      -0.00531      -0.00190      -0.00177
 --------------------------------------------------------
       Center         ----  Spin Dipole Couplings  ----
                      3XX-RR        3YY-RR        3ZZ-RR
 --------------------------------------------------------
     1   Atom       -1.548213      3.314861     -1.766649
     2   Atom        0.148889     -0.034689     -0.114200
     3   Atom        0.015761      0.012836     -0.028597
     4   Atom       -0.003961      0.012207     -0.008246
     5   Atom       -0.083662      0.150934     -0.067272
     6   Atom        0.005382      0.000424     -0.005807
     7   Atom        0.017670     -0.012621     -0.005050
     8   Atom        0.009162     -0.005263     -0.003899
     9   Atom        0.003265     -0.001384     -0.001880
    10   Atom        0.001712     -0.000801     -0.000911
    11   Atom        0.002119     -0.001009     -0.001110
    12   Atom        0.001618     -0.000755     -0.000862
    13   Atom        0.001070     -0.000511     -0.000558
    14   Atom        0.001743     -0.000909     -0.000833
    15   Atom        0.001404     -0.000658     -0.000746
 --------------------------------------------------------
                        XY            XZ            YZ
 --------------------------------------------------------
     1   Atom       -1.157789     -0.105748      0.467072
     2   Atom        0.042081      0.052792      0.019115
     3   Atom       -0.001209      0.006877      0.005431
     4   Atom        0.010305      0.002055      0.004181
     5   Atom       -0.037445     -0.006843      0.021243
     6   Atom       -0.003995      0.001229      0.000203
     7   Atom        0.002145      0.003361     -0.000709
     8   Atom        0.002814      0.002527      0.000252
     9   Atom        0.000353      0.000708      0.000063
    10   Atom       -0.000155     -0.000416      0.000007
    11   Atom        0.000293      0.000839      0.000169
    12   Atom       -0.000560      0.000835     -0.000130
    13   Atom       -0.000034     -0.000145      0.000004
    14   Atom        0.000165     -0.000807     -0.000080
    15   Atom       -0.000452     -0.000598      0.000083
 --------------------------------------------------------


 ---------------------------------------------------------------------------------
              Anisotropic Spin Dipole Couplings in Principal Axis System
 ---------------------------------------------------------------------------------

       Atom             a.u.   MegaHertz   Gauss  10(-4) cm-1        Axes

              Baa    -1.8099   130.960    46.730    43.684  0.9283  0.1801  0.3254
     1 O(17)  Bbb    -1.8092   130.909    46.712    43.667 -0.3002 -0.1537  0.9414
              Bcc     3.6190  -261.870   -93.442   -87.350 -0.2195  0.9716  0.0886
 
              Baa    -0.1258   -67.112   -23.947   -22.386 -0.1684 -0.1273  0.9775
     2 H(1)   Bbb    -0.0432   -23.070    -8.232    -7.695 -0.2355  0.9681  0.0855
              Bcc     0.1690    90.182    32.179    30.081  0.9572  0.2158  0.1930
 
              Baa    -0.0304    -4.073    -1.453    -1.359 -0.1496 -0.1275  0.9805
     3 C(13)  Bbb     0.0135     1.812     0.647     0.605  0.0938  0.9853  0.1424
              Bcc     0.0168     2.261     0.807     0.754  0.9843 -0.1133  0.1354
 
              Baa    -0.0091    -4.842    -1.728    -1.615 -0.2340 -0.0771  0.9692
     4 H(1)   Bbb    -0.0090    -4.787    -1.708    -1.597  0.8715 -0.4584  0.1739
              Bcc     0.0180     9.629     3.436     3.212  0.4309  0.8854  0.1745
 
              Baa    -0.0901   -12.088    -4.313    -4.032  0.9767  0.1372  0.1653
     5 C(13)  Bbb    -0.0688    -9.237    -3.296    -3.081 -0.1492 -0.1203  0.9815
              Bcc     0.1589    21.325     7.609     7.113 -0.1545  0.9832  0.0970
 
              Baa    -0.0060    -0.808    -0.288    -0.269 -0.1490 -0.1233  0.9811
     6 C(13)  Bbb    -0.0017    -0.222    -0.079    -0.074  0.4617  0.8687  0.1793
              Bcc     0.0077     1.030     0.368     0.344  0.8744 -0.4797  0.0725
 
              Baa    -0.0129     0.933     0.333     0.311 -0.0831  0.9887  0.1250
     7 O(17)  Bbb    -0.0054     0.391     0.139     0.130 -0.1305 -0.1352  0.9822
              Bcc     0.0183    -1.323    -0.472    -0.441  0.9879  0.0653  0.1403
 
              Baa    -0.0058     0.421     0.150     0.141 -0.2060  0.9679  0.1440
     8 O(17)  Bbb    -0.0043     0.313     0.112     0.104 -0.1458 -0.1758  0.9736
              Bcc     0.0101    -0.734    -0.262    -0.245  0.9676  0.1796  0.1773
 
              Baa    -0.0020    -0.265    -0.095    -0.088 -0.1320 -0.0263  0.9909
     9 C(13)  Bbb    -0.0014    -0.189    -0.068    -0.063 -0.0777  0.9968  0.0161
              Bcc     0.0034     0.455     0.162     0.152  0.9882  0.0748  0.1336
 
              Baa    -0.0010    -0.131    -0.047    -0.044  0.1580  0.1028  0.9821
    10 C(13)  Bbb    -0.0008    -0.108    -0.039    -0.036  0.0429  0.9929 -0.1108
              Bcc     0.0018     0.240     0.086     0.080  0.9865 -0.0596 -0.1525
 
              Baa    -0.0013    -0.717    -0.256    -0.239 -0.2014 -0.2948  0.9341
    11 H(1)   Bbb    -0.0010    -0.540    -0.193    -0.180 -0.1601  0.9507  0.2655
              Bcc     0.0024     1.257     0.448     0.419  0.9663  0.0961  0.2387
 
              Baa    -0.0011    -0.599    -0.214    -0.200 -0.3160 -0.1509  0.9367
    12 H(1)   Bbb    -0.0009    -0.464    -0.165    -0.155  0.1486  0.9672  0.2059
              Bcc     0.0020     1.063     0.379     0.355  0.9370 -0.2042  0.2833
 
              Baa    -0.0006    -0.305    -0.109    -0.102  0.0879 -0.0085  0.9961
    13 H(1)   Bbb    -0.0005    -0.273    -0.097    -0.091  0.0222  0.9997  0.0066
              Bcc     0.0011     0.578     0.206     0.193  0.9959 -0.0215 -0.0880
 
              Baa    -0.0011    -0.572    -0.204    -0.191  0.2592  0.2000  0.9449
    14 H(1)   Bbb    -0.0009    -0.488    -0.174    -0.163 -0.1142  0.9778 -0.1756
              Bcc     0.0020     1.060     0.378     0.353  0.9590  0.0623 -0.2763
 
              Baa    -0.0009    -0.484    -0.173    -0.162  0.2811  0.1944  0.9398
    15 H(1)   Bbb    -0.0007    -0.396    -0.141    -0.132  0.1357  0.9614 -0.2394
              Bcc     0.0017     0.881     0.314     0.294  0.9500 -0.1948 -0.2439
 

 ---------------------------------------------------------------------------------

 Calling FoFJK, ICntrl=    100127 FMM=F ISym2X=0 I1Cent= 0 IOpClX= 1 NMat=1 NMatS=1 NMatT=0.
 Full mass-weighted force constant matrix:
 Low frequencies ---  -68.2681  -45.3323   -8.2461   -0.0011   -0.0010   -0.0005
 Low frequencies ---   12.4653   18.6720   77.5153
 ******    2 imaginary frequencies (negative Signs) ****** 
 Diagonal vibrational polarizability:
       21.6707148      36.4801553     135.4591372
 Harmonic frequencies (cm**-1), IR intensities (KM/Mole), Raman scattering
 activities (A**4/AMU), depolarization ratios for plane and unpolarized
 incident light, reduced masses (AMU), force constants (mDyne/A),
 and normal coordinates:
                      1                      2                      3
                      A                      A                      A
 Frequencies --    -50.9421               -34.8220                77.0039
 Red. masses --      6.1253                 6.6195                 3.3902
 Frc consts  --      0.0094                 0.0047                 0.0118
 IR Inten    --      5.1589                 1.1100                 1.5519
  Atom  AN      X      Y      Z        X      Y      Z        X      Y      Z
     1   8    -0.13  -0.06   0.32     0.50   0.03   0.10    -0.01   0.03  -0.04
     2   1    -0.11  -0.02   0.18     0.55  -0.19   0.02    -0.03   0.03   0.07
     3   6     0.06   0.03  -0.32    -0.04  -0.06  -0.08     0.06   0.06  -0.18
     4   1     0.08   0.02  -0.46    -0.04   0.04  -0.09     0.08   0.09  -0.34
     5   6     0.03   0.04  -0.16    -0.05  -0.14  -0.05     0.03   0.02   0.00
     6   6     0.00   0.04   0.02    -0.06  -0.06  -0.00     0.02  -0.04   0.12
     7   8    -0.02   0.01   0.25     0.01  -0.01   0.09    -0.02  -0.06   0.11
     8   8     0.01   0.06  -0.13    -0.15  -0.01  -0.06     0.04  -0.06   0.17
     9   6    -0.00   0.07  -0.07    -0.17   0.11  -0.03     0.07  -0.07  -0.02
    10   6     0.08  -0.16  -0.03    -0.13   0.09  -0.00    -0.18   0.13  -0.16
    11   1    -0.02   0.15  -0.22    -0.26   0.15  -0.08     0.15  -0.14   0.10
    12   1    -0.06   0.17   0.09    -0.14   0.17   0.03     0.20  -0.16  -0.20
    13   1     0.07  -0.15   0.00    -0.15   0.18   0.02    -0.14   0.08  -0.34
    14   1     0.13  -0.27  -0.18    -0.17   0.02  -0.06    -0.30   0.24   0.03
    15   1     0.09  -0.25   0.13    -0.04   0.06   0.05    -0.29   0.21  -0.30
                      4                      5                      6
                      A                      A                      A
 Frequencies --    115.6239               174.6607               215.1110
 Red. masses --      3.5200                 3.4604                 1.0802
 Frc consts  --      0.0277                 0.0622                 0.0294
 IR Inten    --      1.6719                 4.0242               101.0052
  Atom  AN      X      Y      Z        X      Y      Z        X      Y      Z
     1   8    -0.03   0.03   0.02    -0.12   0.22   0.01     0.01  -0.01  -0.05
     2   1     0.01   0.05  -0.21    -0.10   0.12  -0.02    -0.16  -0.12   0.96
     3   6    -0.03   0.02   0.07     0.06   0.11   0.03    -0.01   0.00  -0.00
     4   1    -0.04   0.05   0.13     0.06   0.27   0.05    -0.01   0.00  -0.02
     5   6    -0.02  -0.01  -0.02     0.06  -0.14  -0.01    -0.01   0.01   0.02
     6   6    -0.02  -0.07  -0.02     0.06  -0.15  -0.02    -0.01  -0.00  -0.00
     7   8    -0.08  -0.11   0.15     0.13  -0.10  -0.01    -0.02  -0.01   0.01
     8   8     0.04  -0.05  -0.21    -0.04  -0.11  -0.02     0.01  -0.00  -0.02
     9   6     0.02  -0.07  -0.03    -0.08   0.08  -0.00     0.00   0.00  -0.01
    10   6     0.13   0.25   0.04    -0.04   0.01   0.02     0.03   0.02  -0.00
    11   1    -0.04  -0.19   0.20    -0.21   0.16  -0.13    -0.01   0.01  -0.01
    12   1    -0.03  -0.22  -0.19     0.01   0.21   0.11     0.00   0.01  -0.01
    13   1     0.13   0.13   0.18    -0.11   0.43   0.00     0.01   0.10   0.02
    14   1     0.23   0.44   0.21    -0.29  -0.28  -0.18    -0.02  -0.03  -0.03
    15   1     0.11   0.39  -0.23     0.31  -0.13   0.25     0.11  -0.00   0.03
                      7                      8                      9
                      A                      A                      A
 Frequencies --    227.1210               252.3698               263.2307
 Red. masses --      1.4836                 4.8957                 4.0684
 Frc consts  --      0.0451                 0.1837                 0.1661
 IR Inten    --      6.7638                 1.3586                 3.6664
  Atom  AN      X      Y      Z        X      Y      Z        X      Y      Z
     1   8     0.03  -0.11   0.00     0.02  -0.27  -0.04    -0.00  -0.05   0.00
     2   1     0.05  -0.01  -0.22    -0.04  -0.07   0.08     0.01  -0.01  -0.13
     3   6    -0.02   0.06  -0.01     0.02   0.43   0.12     0.01   0.12  -0.17
     4   1    -0.02   0.03  -0.04     0.00   0.51   0.27     0.08   0.22  -0.60
     5   6    -0.03   0.07   0.02     0.05   0.01  -0.12    -0.07  -0.08   0.40
     6   6    -0.02   0.01   0.01     0.04  -0.05  -0.05    -0.03  -0.05   0.11
     7   8    -0.08  -0.03  -0.02     0.07  -0.03   0.04     0.02  -0.01  -0.12
     8   8     0.03  -0.01   0.02    -0.04  -0.03  -0.01    -0.03  -0.02  -0.05
     9   6     0.04   0.00  -0.00    -0.06   0.04   0.02    -0.03   0.05  -0.06
    10   6     0.04   0.04  -0.00    -0.08  -0.03   0.01     0.10   0.02   0.01
    11   1     0.01   0.01  -0.01    -0.10   0.07  -0.03    -0.09   0.08  -0.10
    12   1     0.06   0.01   0.00    -0.04   0.09   0.07    -0.03   0.10  -0.00
    13   1    -0.06   0.60  -0.05    -0.02  -0.35   0.00     0.11  -0.22   0.18
    14   1    -0.34  -0.30  -0.18     0.12   0.14   0.09     0.36   0.16   0.02
    15   1     0.49  -0.11   0.21    -0.36   0.04  -0.07    -0.03   0.08  -0.08
                     10                     11                     12
                      A                      A                      A
 Frequencies --    338.6353               422.8670               567.1956
 Red. masses --      2.9325                 3.8613                 2.8851
 Frc consts  --      0.1981                 0.4068                 0.5469
 IR Inten    --      9.2388                 2.5924                14.8065
  Atom  AN      X      Y      Z        X      Y      Z        X      Y      Z
     1   8     0.01   0.01   0.00    -0.01   0.00  -0.00     0.02  -0.02   0.00
     2   1     0.02  -0.01  -0.02     0.01  -0.08  -0.03    -0.11   0.65   0.06
     3   6    -0.01  -0.06   0.01    -0.11   0.04   0.01     0.14  -0.04   0.02
     4   1    -0.02  -0.12   0.07    -0.13   0.14   0.12     0.15  -0.22   0.01
     5   6     0.01   0.09  -0.06    -0.08  -0.14  -0.14     0.13   0.23   0.03
     6   6     0.01  -0.05   0.00    -0.07  -0.01   0.06     0.02  -0.03   0.03
     7   8    -0.15  -0.16  -0.04     0.07   0.10   0.04     0.01  -0.04  -0.01
     8   8     0.05  -0.08   0.10    -0.10  -0.02   0.23    -0.12  -0.01   0.04
     9   6     0.03   0.24  -0.02     0.01  -0.04  -0.16    -0.19  -0.07  -0.11
    10   6     0.06   0.04  -0.01     0.22   0.03  -0.09     0.00  -0.01  -0.01
    11   1    -0.15   0.39  -0.28     0.08  -0.05  -0.16    -0.08  -0.12  -0.04
    12   1     0.20   0.49   0.20     0.10  -0.02  -0.19    -0.18  -0.12  -0.17
    13   1     0.11  -0.28   0.04     0.15   0.06   0.32    -0.07   0.03   0.35
    14   1     0.32   0.14  -0.05     0.46   0.08  -0.17     0.20   0.03  -0.08
    15   1    -0.19   0.05   0.01     0.47   0.06  -0.19     0.23   0.01  -0.09
                     13                     14                     15
                      A                      A                      A
 Frequencies --    602.5646               608.5164               761.2026
 Red. masses --      1.6752                 2.7676                 1.1830
 Frc consts  --      0.3584                 0.6038                 0.4039
 IR Inten    --     89.4570                63.7227                49.5434
  Atom  AN      X      Y      Z        X      Y      Z        X      Y      Z
     1   8     0.03  -0.03   0.00    -0.02   0.02  -0.00    -0.00  -0.02  -0.00
     2   1    -0.16   0.92   0.08     0.16  -0.87  -0.08    -0.00  -0.01  -0.00
     3   6    -0.12  -0.02  -0.02    -0.11  -0.01  -0.02     0.01  -0.11  -0.02
     4   1    -0.12  -0.02  -0.03    -0.11  -0.16  -0.04    -0.02   0.98   0.15
     5   6    -0.11   0.04  -0.01    -0.09   0.27   0.02     0.00   0.05   0.01
     6   6    -0.01  -0.04  -0.02     0.02  -0.07  -0.01     0.00  -0.00   0.00
     7   8     0.10   0.04   0.02     0.17   0.03   0.03     0.00  -0.00  -0.00
     8   8     0.05  -0.07  -0.02     0.01  -0.11  -0.01    -0.00   0.01   0.00
     9   6     0.04   0.01   0.03    -0.03  -0.02  -0.01    -0.00   0.00  -0.00
    10   6    -0.00   0.01   0.00    -0.01  -0.00   0.00    -0.00   0.00   0.00
    11   1    -0.05   0.06  -0.05    -0.11   0.02  -0.07     0.01  -0.01   0.02
    12   1     0.09   0.09   0.10     0.03   0.05   0.04    -0.01  -0.02  -0.02
    13   1     0.02  -0.01  -0.10    -0.02  -0.00   0.05    -0.00  -0.01   0.01
    14   1    -0.06   0.01   0.04     0.01   0.03   0.02     0.01  -0.01  -0.02
    15   1    -0.07   0.01   0.01     0.01   0.02  -0.04    -0.00  -0.01   0.02
                     16                     17                     18
                      A                      A                      A
 Frequencies --    778.5508               784.6590               801.9413
 Red. masses --      1.8308                 2.9032                 1.2464
 Frc consts  --      0.6538                 1.0531                 0.4723
 IR Inten    --      3.8612                55.7242                 7.5750
  Atom  AN      X      Y      Z        X      Y      Z        X      Y      Z
     1   8    -0.00   0.00   0.00     0.00   0.00  -0.00     0.00  -0.00   0.00
     2   1     0.00   0.00  -0.01    -0.01   0.00   0.03    -0.00   0.01   0.00
     3   6     0.03   0.02  -0.15     0.00   0.02  -0.10    -0.04   0.00  -0.00
     4   1    -0.14  -0.14   0.94    -0.14  -0.17   0.84    -0.03  -0.05  -0.04
     5   6    -0.02  -0.02   0.12     0.00   0.01  -0.08    -0.03   0.01   0.02
     6   6     0.02   0.03  -0.16    -0.05  -0.06   0.35     0.03  -0.02  -0.05
     7   8    -0.01  -0.00   0.05     0.02  -0.00  -0.10     0.02  -0.05   0.01
     8   8    -0.00  -0.01   0.04     0.01   0.02  -0.09    -0.02   0.03   0.02
     9   6    -0.00  -0.01  -0.00     0.01   0.03   0.00     0.01   0.08   0.01
    10   6    -0.00  -0.00  -0.00     0.00   0.01   0.01     0.01   0.04  -0.01
    11   1    -0.01   0.02  -0.06     0.02  -0.05   0.15     0.08  -0.19   0.49
    12   1     0.02   0.03   0.04    -0.03  -0.08  -0.10     0.03  -0.27  -0.43
    13   1    -0.01   0.01   0.03     0.03  -0.04  -0.07     0.05  -0.18  -0.04
    14   1     0.01   0.02   0.02    -0.01  -0.06  -0.06     0.18  -0.19  -0.37
    15   1     0.04   0.02  -0.05    -0.08  -0.04   0.12    -0.14  -0.17   0.40
                     19                     20                     21
                      A                      A                      A
 Frequencies --    893.2487               929.2303              1074.0263
 Red. masses --      3.1560                 2.7912                 4.1644
 Frc consts  --      1.4836                 1.4200                 2.8303
 IR Inten    --     16.0840                 4.4773                24.2960
  Atom  AN      X      Y      Z        X      Y      Z        X      Y      Z
     1   8    -0.00   0.00   0.00     0.00   0.00   0.00    -0.00  -0.00  -0.00
     2   1     0.00  -0.03  -0.00    -0.00   0.02   0.00    -0.00   0.01  -0.00
     3   6     0.05   0.00   0.01    -0.12   0.00  -0.02     0.08  -0.00   0.01
     4   1     0.05   0.05   0.02    -0.13  -0.01  -0.02     0.09  -0.02   0.01
     5   6     0.03  -0.06  -0.01    -0.07  -0.03  -0.02     0.04   0.04   0.01
     6   6    -0.06   0.10   0.01     0.14  -0.01   0.02    -0.13  -0.08  -0.04
     7   8    -0.06   0.15   0.01     0.04  -0.13  -0.01     0.01   0.03   0.01
     8   8     0.20  -0.18  -0.02     0.10   0.17   0.02    -0.22  -0.03  -0.04
     9   6    -0.07  -0.01  -0.10    -0.01   0.01  -0.10     0.35   0.03  -0.14
    10   6    -0.14   0.03   0.07    -0.15  -0.05   0.08    -0.11   0.00   0.17
    11   1    -0.23  -0.06   0.01     0.39   0.03  -0.20     0.36   0.08  -0.25
    12   1     0.29   0.00  -0.28    -0.01  -0.01  -0.12     0.47   0.02  -0.22
    13   1    -0.19  -0.14   0.54    -0.28   0.10   0.65    -0.13  -0.00   0.31
    14   1     0.26  -0.06  -0.27     0.10   0.13   0.14    -0.08   0.05   0.23
    15   1     0.02  -0.11   0.33     0.25   0.04  -0.13    -0.09  -0.04   0.28
                     22                     23                     24
                      A                      A                      A
 Frequencies --   1127.6347              1203.0763              1269.9812
 Red. masses --      2.0725                 1.7788                 5.3306
 Frc consts  --      1.5527                 1.5170                 5.0655
 IR Inten    --     22.4093                 6.9219               598.9000
  Atom  AN      X      Y      Z        X      Y      Z        X      Y      Z
     1   8    -0.00  -0.00  -0.00    -0.00  -0.00  -0.00     0.00   0.00   0.00
     2   1    -0.00   0.01   0.00    -0.00   0.00   0.00    -0.01   0.03   0.00
     3   6     0.01  -0.00   0.00     0.02  -0.00   0.00    -0.10   0.00  -0.02
     4   1     0.02  -0.00   0.00     0.02  -0.00   0.00    -0.12   0.05  -0.01
     5   6     0.01   0.01   0.00     0.01   0.00   0.00    -0.02  -0.02  -0.01
     6   6    -0.02  -0.01   0.00    -0.06  -0.03  -0.02     0.39   0.32   0.10
     7   8     0.00   0.01  -0.00    -0.01   0.04   0.01    -0.05  -0.03  -0.01
     8   8    -0.05  -0.01  -0.05     0.03  -0.07  -0.00    -0.18  -0.18  -0.04
     9   6     0.08   0.01   0.22    -0.02   0.19   0.00     0.12   0.03  -0.03
    10   6    -0.09  -0.01  -0.17     0.02  -0.14  -0.00     0.00  -0.07  -0.00
    11   1     0.04   0.06   0.14     0.30  -0.04   0.39    -0.65  -0.06   0.22
    12   1     0.17   0.03   0.21    -0.20  -0.18  -0.36    -0.02  -0.12  -0.16
    13   1    -0.18  -0.01   0.47    -0.07   0.28   0.02    -0.05   0.11   0.06
    14   1     0.45   0.11  -0.33    -0.10   0.15   0.39    -0.06   0.11   0.25
    15   1     0.44  -0.04  -0.21     0.13   0.09  -0.45     0.03  -0.01  -0.09
                     25                     26                     27
                      A                      A                      A
 Frequencies --   1346.5486              1402.1993              1431.3766
 Red. masses --      1.1642                 1.2581                 1.3585
 Frc consts  --      1.2437                 1.4575                 1.6399
 IR Inten    --     49.8327                17.5175                 8.6332
  Atom  AN      X      Y      Z        X      Y      Z        X      Y      Z
     1   8    -0.00   0.00  -0.00    -0.00  -0.00  -0.00     0.00   0.00   0.00
     2   1     0.00  -0.01   0.00     0.00   0.00   0.00     0.00  -0.00  -0.00
     3   6     0.00  -0.00   0.00     0.01  -0.00   0.00    -0.01   0.00  -0.00
     4   1     0.01  -0.00   0.00     0.01  -0.00   0.00    -0.01   0.00  -0.00
     5   6     0.00   0.00   0.00     0.00   0.00   0.00    -0.00  -0.00   0.00
     6   6    -0.03  -0.03  -0.01    -0.04  -0.02  -0.01     0.04   0.02   0.01
     7   8     0.01  -0.01  -0.00     0.01  -0.01   0.00    -0.01   0.00  -0.00
     8   8     0.01   0.08   0.00     0.02   0.03   0.02    -0.03  -0.02  -0.02
     9   6    -0.02  -0.01   0.00     0.05   0.01  -0.04    -0.09  -0.01   0.08
    10   6     0.01  -0.06   0.01     0.04  -0.00  -0.11     0.09   0.01  -0.07
    11   1    -0.59  -0.07   0.19    -0.36  -0.09   0.21     0.47   0.11  -0.23
    12   1     0.69   0.11  -0.21    -0.33   0.02   0.19     0.48  -0.00  -0.22
    13   1    -0.00   0.06  -0.03    -0.08   0.03   0.50     0.01   0.01   0.35
    14   1    -0.05   0.02   0.13    -0.28   0.16   0.30    -0.35  -0.03   0.15
    15   1     0.04   0.03  -0.17    -0.22  -0.20   0.32    -0.32  -0.07   0.15
                     28                     29                     30
                      A                      A                      A
 Frequencies --   1493.4050              1502.7061              1514.7338
 Red. masses --      1.0405                 1.0624                 1.0807
 Frc consts  --      1.3673                 1.4135                 1.4609
 IR Inten    --     11.3002                 2.1009                17.1159
  Atom  AN      X      Y      Z        X      Y      Z        X      Y      Z
     1   8     0.00   0.00  -0.00     0.00   0.00  -0.00     0.00   0.00  -0.00
     2   1     0.00  -0.00   0.00     0.00  -0.00   0.00    -0.00  -0.00   0.00
     3   6     0.00   0.00   0.00    -0.00   0.00  -0.00    -0.00   0.00  -0.00
     4   1     0.00  -0.00   0.00    -0.00   0.00  -0.00    -0.01   0.00  -0.00
     5   6    -0.00   0.00  -0.00     0.00  -0.00   0.00     0.00  -0.00   0.00
     6   6    -0.00   0.00  -0.00     0.02   0.00   0.00     0.02   0.00   0.00
     7   8     0.00  -0.00   0.00    -0.01   0.01   0.00    -0.01   0.01  -0.00
     8   8     0.00   0.01   0.00    -0.01  -0.01  -0.01    -0.01  -0.01  -0.01
     9   6    -0.01  -0.02   0.01     0.00  -0.01  -0.05    -0.05  -0.01  -0.04
    10   6    -0.00  -0.04  -0.01     0.02  -0.01   0.03    -0.03   0.00  -0.02
    11   1     0.00   0.05  -0.13     0.20  -0.26   0.40     0.30  -0.21   0.30
    12   1     0.02  -0.05  -0.04     0.10   0.36   0.37     0.21   0.33   0.24
    13   1    -0.10   0.63  -0.17    -0.06   0.23   0.17     0.05  -0.14  -0.25
    14   1     0.51   0.27   0.05     0.02  -0.25  -0.27     0.07   0.32   0.31
    15   1    -0.36  -0.13   0.25    -0.37   0.17  -0.25     0.35  -0.21   0.32
                     31                     32                     33
                      A                      A                      A
 Frequencies --   1850.2672              2248.1619              3075.7534
 Red. masses --     12.1051                 5.8430                 1.0354
 Frc consts  --     24.4166                17.3998                 5.7714
 IR Inten    --    364.8611                81.3492                 9.2265
  Atom  AN      X      Y      Z        X      Y      Z        X      Y      Z
     1   8     0.00   0.00   0.00    -0.00   0.00   0.00     0.00   0.00  -0.00
     2   1     0.00  -0.03  -0.00    -0.00   0.00  -0.00    -0.00  -0.00   0.00
     3   6     0.08  -0.00   0.01    -0.37   0.01  -0.06     0.00   0.00   0.00
     4   1     0.11   0.02   0.02    -0.74   0.01  -0.11    -0.00  -0.00  -0.00
     5   6    -0.04  -0.01  -0.01     0.53  -0.01   0.08    -0.00  -0.00  -0.00
     6   6    -0.48   0.63   0.01    -0.10   0.01  -0.01     0.00   0.00   0.00
     7   8     0.32  -0.42  -0.01     0.01  -0.01  -0.00     0.00  -0.00  -0.00
     8   8     0.02  -0.06  -0.01    -0.00  -0.00  -0.00    -0.00  -0.00  -0.00
     9   6    -0.04   0.01  -0.00     0.00   0.00   0.00    -0.00   0.00  -0.00
    10   6     0.01   0.00   0.01    -0.00  -0.00   0.00    -0.03  -0.01   0.04
    11   1     0.18  -0.05   0.08     0.01   0.00   0.00    -0.00   0.01   0.00
    12   1     0.09   0.12   0.03    -0.00   0.00   0.00     0.01  -0.02   0.02
    13   1     0.02  -0.04  -0.05     0.00  -0.00   0.00     0.59   0.11   0.11
    14   1    -0.03  -0.02   0.00    -0.00  -0.00  -0.00    -0.22   0.43  -0.36
    15   1     0.04   0.03  -0.04     0.00   0.00  -0.00    -0.04  -0.46  -0.23
                     34                     35                     36
                      A                      A                      A
 Frequencies --   3108.8047              3150.8009              3155.8708
 Red. masses --      1.0605                 1.1018                 1.1048
 Frc consts  --      6.0386                 6.4448                 6.4831
 IR Inten    --     16.9991                12.9092                 2.6231
  Atom  AN      X      Y      Z        X      Y      Z        X      Y      Z
     1   8    -0.00  -0.00  -0.00     0.00   0.00   0.00     0.00   0.00   0.00
     2   1     0.00   0.00   0.00    -0.00  -0.00  -0.00    -0.00  -0.00  -0.00
     3   6    -0.00  -0.00  -0.00     0.00  -0.00   0.00     0.00  -0.00   0.00
     4   1     0.00  -0.00  -0.00    -0.00  -0.00  -0.00    -0.00   0.00   0.00
     5   6     0.00   0.00   0.00    -0.00   0.00  -0.00    -0.00  -0.00  -0.00
     6   6    -0.00  -0.00  -0.00     0.00   0.00  -0.00    -0.00   0.00  -0.00
     7   8    -0.00   0.00  -0.00     0.00  -0.00  -0.00     0.00  -0.00   0.00
     8   8     0.00   0.00   0.00     0.00  -0.00   0.00     0.00  -0.00  -0.00
     9   6     0.02  -0.01   0.06    -0.00  -0.03  -0.01    -0.01   0.05  -0.00
    10   6    -0.01  -0.00  -0.01    -0.07   0.04  -0.04    -0.04  -0.06  -0.03
    11   1    -0.04  -0.51  -0.26     0.02   0.29   0.15    -0.03  -0.36  -0.19
    12   1    -0.25   0.60  -0.47    -0.02   0.05  -0.04     0.12  -0.28   0.23
    13   1     0.13   0.03   0.03     0.60   0.13   0.10     0.44   0.07   0.08
    14   1     0.02  -0.05   0.03     0.24  -0.50   0.42    -0.05   0.06  -0.06
    15   1    -0.00   0.02   0.01    -0.02  -0.06  -0.04     0.05   0.60   0.31
                     37                     38                     39
                      A                      A                      A
 Frequencies --   3175.9154              3491.5484              3769.0711
 Red. masses --      1.1076                 1.1676                 1.0675
 Frc consts  --      6.5819                 8.3863                 8.9345
 IR Inten    --     12.7753                73.6911                28.3136
  Atom  AN      X      Y      Z        X      Y      Z        X      Y      Z
     1   8    -0.00  -0.00  -0.00    -0.00   0.00   0.00    -0.06  -0.01  -0.01
     2   1     0.00  -0.00   0.00    -0.00  -0.00  -0.00     0.96   0.18   0.19
     3   6     0.00   0.00   0.00    -0.11   0.00  -0.02    -0.00   0.00   0.00
     4   1    -0.00  -0.00  -0.00     0.98   0.01   0.15     0.00  -0.00  -0.00
     5   6    -0.00   0.00   0.00     0.03  -0.00   0.01     0.00   0.00   0.00
     6   6     0.00  -0.00  -0.00    -0.00  -0.00  -0.00     0.00   0.00   0.00
     7   8    -0.00   0.00   0.00     0.00   0.00   0.00    -0.00  -0.00  -0.00
     8   8    -0.00   0.00   0.00     0.00  -0.00   0.00    -0.00  -0.00  -0.00
     9   6     0.01  -0.07  -0.00    -0.00  -0.00  -0.00    -0.00  -0.00  -0.00
    10   6     0.00  -0.06  -0.00     0.00  -0.00   0.00     0.00   0.00   0.00
    11   1     0.04   0.55   0.30     0.00   0.00   0.00    -0.00  -0.00  -0.00
    12   1    -0.13   0.32  -0.27     0.00   0.00  -0.00     0.00  -0.00   0.00
    13   1     0.09   0.01   0.01     0.00   0.00  -0.00     0.00  -0.00  -0.00
    14   1    -0.13   0.25  -0.22    -0.00   0.00  -0.00    -0.00  -0.00   0.00
    15   1     0.04   0.46   0.24    -0.00   0.00   0.00     0.00  -0.00  -0.00

 -------------------
 - Thermochemistry -
 -------------------
 Temperature   298.150 Kelvin.  Pressure   1.00000 Atm.
 Atom     1 has atomic number  8 and mass  15.99491
 Atom     2 has atomic number  1 and mass   1.00783
 Atom     3 has atomic number  6 and mass  12.00000
 Atom     4 has atomic number  1 and mass   1.00783
 Atom     5 has atomic number  6 and mass  12.00000
 Atom     6 has atomic number  6 and mass  12.00000
 Atom     7 has atomic number  8 and mass  15.99491
 Atom     8 has atomic number  8 and mass  15.99491
 Atom     9 has atomic number  6 and mass  12.00000
 Atom    10 has atomic number  6 and mass  12.00000
 Atom    11 has atomic number  1 and mass   1.00783
 Atom    12 has atomic number  1 and mass   1.00783
 Atom    13 has atomic number  1 and mass   1.00783
 Atom    14 has atomic number  1 and mass   1.00783
 Atom    15 has atomic number  1 and mass   1.00783
 Molecular mass:   115.03952 amu.
 Principal axes and moments of inertia in atomic units:
                           1         2         3
     Eigenvalues --   540.629221571.230201964.30997
           X            0.99958   0.02840  -0.00580
           Y           -0.02841   0.99960  -0.00019
           Z            0.00579   0.00036   0.99998
 This molecule is an asymmetric top.
 Rotational symmetry number  1.
 Warning -- assumption of classical behavior for rotation
           may cause significant error
 Rotational temperatures (Kelvin)      0.16021     0.05512     0.04409
 Rotational constants (GHZ):           3.33822     1.14862     0.91877
    2 imaginary frequencies ignored.
 Zero-point vibrational energy     294314.9 (Joules/Mol)
                                   70.34296 (Kcal/Mol)
 Warning -- explicit consideration of  12 degrees of freedom as
           vibrations may cause significant error
 Vibrational temperatures:    110.79   166.36   251.30   309.50   326.78
          (Kelvin)            363.10   378.73   487.22   608.41   816.07
                              866.96   875.52  1095.20  1120.16  1128.95
                             1153.81  1285.19  1336.96  1545.28  1622.41
                             1730.96  1827.22  1937.38  2017.45  2059.43
                             2148.68  2162.06  2179.36  2662.12  3234.60
                             4425.32  4472.88  4533.30  4540.59  4569.43
                             5023.56  5422.85
 
 Zero-point correction=                           0.112099 (Hartree/Particle)
 Thermal correction to Energy=                    0.120738
 Thermal correction to Enthalpy=                  0.121682
 Thermal correction to Gibbs Free Energy=         0.077906
 Sum of electronic and zero-point Energies=           -420.097554
 Sum of electronic and thermal Energies=              -420.088914
 Sum of electronic and thermal Enthalpies=            -420.087970
 Sum of electronic and thermal Free Energies=         -420.131747
 
                     E (Thermal)             CV                S
                      KCal/Mol        Cal/Mol-Kelvin    Cal/Mol-Kelvin
 Total                   75.764             30.214             92.136
 Electronic               0.000              0.000              1.377
 Translational            0.889              2.981             40.136
 Rotational               0.889              2.981             28.902
 Vibrational             73.987             24.252             21.721
 Vibration     1          0.599              1.964              3.966
 Vibration     2          0.608              1.936              3.172
 Vibration     3          0.627              1.874              2.385
 Vibration     4          0.645              1.818              2.000
 Vibration     5          0.651              1.800              1.902
 Vibration     6          0.664              1.759              1.714
 Vibration     7          0.670              1.740              1.640
 Vibration     8          0.719              1.598              1.219
 Vibration     9          0.785              1.421              0.882
 Vibration    10          0.923              1.102              0.510
 Vibration    11          0.961              1.026              0.445
 Vibration    12          0.967              1.014              0.435
                       Q            Log10(Q)             Ln(Q)
 Total Bot       0.146531D-35        -35.834070        -82.510996
 Total V=0       0.534168D+16         15.727678         36.214317
 Vib (Bot)       0.326705D-49        -49.485845       -113.945369
 Vib (Bot)    1  0.267567D+01          0.427433          0.984200
 Vib (Bot)    2  0.176919D+01          0.247775          0.570522
 Vib (Bot)    3  0.115204D+01          0.061466          0.141531
 Vib (Bot)    4  0.921408D+00         -0.035548         -0.081853
 Vib (Bot)    5  0.868281D+00         -0.061340         -0.141240
 Vib (Bot)    6  0.772483D+00         -0.112111         -0.258145
 Vib (Bot)    7  0.736697D+00         -0.132711         -0.305579
 Vib (Bot)    8  0.548805D+00         -0.260582         -0.600012
 Vib (Bot)    9  0.414323D+00         -0.382661         -0.881109
 Vib (Bot)   10  0.272095D+00         -0.565279         -1.301603
 Vib (Bot)   11  0.247153D+00         -0.607035         -1.397749
 Vib (Bot)   12  0.243231D+00         -0.613981         -1.413743
 Vib (V=0)       0.119098D+03          2.075903          4.779944
 Vib (V=0)    1  0.322199D+01          0.508124          1.169998
 Vib (V=0)    2  0.233849D+01          0.368935          0.849504
 Vib (V=0)    3  0.175586D+01          0.244490          0.562959
 Vib (V=0)    4  0.154833D+01          0.189863          0.437176
 Vib (V=0)    5  0.150195D+01          0.176657          0.406767
 Vib (V=0)    6  0.142018D+01          0.152343          0.350783
 Vib (V=0)    7  0.139035D+01          0.143124          0.329555
 Vib (V=0)    8  0.124242D+01          0.094268          0.217061
 Vib (V=0)    9  0.114936D+01          0.060455          0.139202
 Vib (V=0)   10  0.106924D+01          0.029076          0.066949
 Vib (V=0)   11  0.105775D+01          0.024383          0.056143
 Vib (V=0)   12  0.105602D+01          0.023673          0.054510
 Electronic      0.200000D+01          0.301030          0.693147
 Translational   0.484981D+08          7.685724         17.697035
 Rotational      0.462403D+06          5.665020         13.044191
 ***** Axes restored to original set *****
 -------------------------------------------------------------------
 Center     Atomic                   Forces (Hartrees/Bohr)
 Number     Number              X              Y              Z
 -------------------------------------------------------------------
      1        8           0.000361727   -0.008163386   -0.000948382
      2        1           0.000115668   -0.000077559    0.000002203
      3        6          -0.000383551    0.006662706    0.000760777
      4        1           0.000214747    0.000565375    0.000100075
      5        6           0.000011052    0.001206732    0.000156593
      6        6          -0.000092821    0.000086997   -0.000001037
      7        8          -0.000542013   -0.000182662   -0.000106130
      8        8           0.000194645   -0.000000913    0.000034000
      9        6           0.000086264   -0.000068723    0.000016379
     10        6           0.000013326   -0.000017395   -0.000010331
     11        1           0.000010626   -0.000003493    0.000003757
     12        1           0.000009142   -0.000008082   -0.000001600
     13        1           0.000002551    0.000003424   -0.000007719
     14        1          -0.000005798   -0.000003010    0.000001097
     15        1           0.000004435   -0.000000010    0.000000319
 -------------------------------------------------------------------
 Cartesian Forces:  Max     0.008163386 RMS     0.001599109

 GradGradGradGradGradGradGradGradGradGradGradGradGradGradGradGradGradGrad
 Berny optimization.
 Search for a local minimum.
 Step number   1 out of a maximum of    2
 All quantities printed in internal units (Hartrees-Bohrs-Radians)
 Second derivative matrix not updated -- analytic derivatives used.
 ITU=  0
     Eigenvalues ---   -0.00090  -0.00037   0.00096   0.00177   0.00228
     Eigenvalues ---    0.00341   0.00810   0.01367   0.01429   0.02091
     Eigenvalues ---    0.02824   0.03201   0.03476   0.05337   0.06312
     Eigenvalues ---    0.07586   0.08268   0.09155   0.09590   0.10229
     Eigenvalues ---    0.11424   0.14086   0.16716   0.17090   0.20091
     Eigenvalues ---    0.29069   0.29969   0.43666   0.48981   0.62270
     Eigenvalues ---    0.71174   0.76959   0.78678   0.85378   0.87533
     Eigenvalues ---    0.94272   0.97679   1.74678   2.69037
 Eigenvalue     1 is  -8.96D-04 should be greater than     0.000000 Eigenvector:
                          Z1        Z4        Z3        Z7        Y14
   1                    0.49729  -0.41971  -0.30514   0.26957  -0.20728
                          Z11       Y15       Z5        Y12       X1
   1                   -0.19669  -0.19108  -0.16953   0.16622  -0.16070
 Eigenvalue     2 is  -3.74D-04 should be greater than     0.000000 Eigenvector:
                          X2        X1        X11       Y2        X9
   1                    0.59756   0.53755  -0.23634  -0.17908  -0.15668
                          X14       Y5        Y13       X8        Y12
   1                   -0.14284  -0.14192   0.14085  -0.13963   0.13529
 Quadratic step=2.225D+00 exceeds max=3.000D-01 adjusted using Lamda=-8.638D-03.
 Angle between NR and scaled steps=  61.87 degrees.
 Angle between quadratic step and forces=  24.75 degrees.
 Linear search not attempted -- first point.
 B after Tr=    -0.000155   -0.003970   -0.000143
         Rot=    1.000000   -0.000355   -0.000175    0.000870 Ang=  -0.11 deg.
 Variable       Old X    -DE/DX   Delta X   Delta X   Delta X     New X
                                 (Linear)    (Quad)   (Total)
    X1        5.28327   0.00036   0.00000  -0.01766  -0.02323   5.26004
    Y1       -2.89415  -0.00816   0.00000  -0.21218  -0.22532  -3.11946
    Z1        0.04636  -0.00095   0.00000  -0.02706  -0.03125   0.01511
    X2        3.50791   0.00012   0.00000  -0.05339  -0.05933   3.44858
    Y2       -3.22347  -0.00008   0.00000  -0.03504  -0.04479  -3.26826
    Z2       -0.30230   0.00000   0.00000  -0.01143  -0.01510  -0.31740
    X3        4.79858  -0.00038   0.00000  -0.00439  -0.00161   4.79696
    Y3        1.43307   0.00666   0.00000   0.15171   0.13903   1.57209
    Z3        0.50411   0.00076   0.00000   0.01820   0.01749   0.52160
    X4        6.78777   0.00021   0.00000  -0.00173   0.00106   6.78883
    Y4        1.44384   0.00057   0.00000   0.08983   0.07346   1.51730
    Z4        0.80788   0.00010   0.00000   0.01047   0.00903   0.81691
    X5        2.55513   0.00001   0.00000  -0.00225   0.00039   2.55552
    Y5        1.51595   0.00121   0.00000   0.05957   0.05103   1.56698
    Z5        0.17178   0.00016   0.00000   0.00724   0.00732   0.17910
    X6       -0.15969  -0.00009   0.00000  -0.00334  -0.00097  -0.16065
    Y6        1.48100   0.00009   0.00000   0.02216   0.01864   1.49964
    Z6       -0.23979  -0.00000   0.00000   0.00222   0.00320  -0.23659
    X7       -1.48967  -0.00054   0.00000  -0.02755  -0.02201  -1.51168
    Y7        3.31161  -0.00018   0.00000   0.00464   0.00345   3.31506
    Z7       -0.20028  -0.00011   0.00000  -0.00813  -0.00539  -0.20567
    X8       -0.94070   0.00019   0.00000   0.02015   0.01824  -0.92246
    Y8       -0.88669  -0.00000   0.00000   0.01142   0.00952  -0.87716
    Z8       -0.67599   0.00003   0.00000   0.00990   0.00946  -0.66654
    X9       -3.62094   0.00009   0.00000   0.02108   0.01844  -3.60250
    Y9       -1.20890  -0.00007   0.00000  -0.00657  -0.00351  -1.21240
    Z9       -1.08586   0.00002   0.00000   0.00382   0.00408  -1.08178
   X10       -5.04536   0.00001   0.00000   0.01146   0.00966  -5.03570
   Y10       -1.22780  -0.00002   0.00000  -0.00644  -0.00265  -1.23044
   Z10        1.39893  -0.00001   0.00000  -0.00126  -0.00051   1.39842
   X11       -3.76375   0.00001   0.00000   0.03106   0.02494  -3.73881
   Y11       -3.01337  -0.00000   0.00000  -0.00919  -0.00520  -3.01857
   Z11       -2.06292   0.00000   0.00000   0.00729   0.00631  -2.05661
   X12       -4.27911   0.00001   0.00000   0.01544   0.01497  -4.26413
   Y12        0.29916  -0.00001   0.00000  -0.01299  -0.00789   0.29127
   Z12       -2.32621  -0.00000   0.00000  -0.00118   0.00037  -2.32584
   X13       -7.04130   0.00000   0.00000   0.01297   0.01037  -7.03093
   Y13       -1.61081   0.00000   0.00000  -0.00883  -0.00130  -1.61211
   Z13        1.04516  -0.00001   0.00000  -0.00872  -0.00754   1.03762
   X14       -4.30897  -0.00001   0.00000   0.00729   0.00336  -4.30561
   Y14       -2.69901  -0.00000   0.00000  -0.00399  -0.00235  -2.70137
   Z14        2.64140   0.00000   0.00000   0.00387   0.00332   2.64472
   X15       -4.89196   0.00000   0.00000   0.00401   0.00571  -4.88624
   Y15        0.59749  -0.00000   0.00000  -0.00500  -0.00213   0.59537
   Z15        2.34136   0.00000   0.00000  -0.00278  -0.00079   2.34057
         Item               Value     Threshold  Converged?
 Maximum Force            0.008163     0.000450     NO 
 RMS     Force            0.001599     0.000300     NO 
 Maximum Displacement     0.225317     0.001800     NO 
 RMS     Displacement     0.044443     0.001200     NO 
 Predicted change in Energy=-1.854285D-03
 GradGradGradGradGradGradGradGradGradGradGradGradGradGradGradGradGradGrad


 ----------------------------------------------------------------------

 Electric dipole moment (input orientation):
 (Debye = 10**-18 statcoulomb cm , SI units = C m)
                  (au)            (Debye)         (10**-30 SI)
   Tot        0.899219D+00      0.228559D+01      0.762390D+01
   x         -0.650266D+00     -0.165281D+01     -0.551319D+01
   y         -0.614325D+00     -0.156146D+01     -0.520847D+01
   z         -0.913961D-01     -0.232306D+00     -0.774888D+00

 Dipole polarizability, Alpha (input orientation).
 (esu units = cm**3 , SI units = C**2 m**2 J**-1)
 Alpha(0;0):
               (au)            (10**-24 esu)      (10**-40 SI)
   iso        0.709847D+02      0.105189D+02      0.117038D+02
   aniso      0.381934D+02      0.565968D+01      0.629724D+01
   xx         0.934738D+02      0.138514D+02      0.154118D+02
   yx        -0.201673D+01     -0.298849D+00     -0.332514D+00
   yy         0.692802D+02      0.102663D+02      0.114228D+02
   zx         0.318146D+01      0.471444D+00      0.524553D+00
   zy         0.131277D+01      0.194532D+00      0.216446D+00
   zz         0.502001D+02      0.743889D+01      0.827688D+01

 ----------------------------------------------------------------------

 Dipole orientation:
     8          4.03971398          4.06896748         -1.84806789
     1          3.50691653          3.22440331         -0.30380332
     6          1.51352106          1.67041860         -4.50034381
     1          2.33396192          2.76380744         -5.97705557
     6          0.53817340          0.38952319         -2.90085010
     6         -0.57464227         -1.08897745         -0.87193299
     8         -2.12281405         -2.71346590         -1.16480652
     8          0.39232215         -0.37266237          1.35473633
     6         -0.57473703         -1.66893920          3.55472026
     6         -3.11138470         -0.59928507          4.34514386
     1          0.86602416         -1.36051226          4.99007411
     1         -0.69981837         -3.68061700          3.12647079
     1         -3.73227848         -1.51532146          6.08612163
     1         -2.96326562          1.42768983          4.69144391
     1         -4.53087922         -0.93861577          2.89142935

 Electric dipole moment (dipole orientation):
 (Debye = 10**-18 statcoulomb cm , SI units = C m)
                  (au)            (Debye)         (10**-30 SI)
   Tot        0.899219D+00      0.228559D+01      0.762390D+01
   x          0.000000D+00      0.000000D+00      0.000000D+00
   y          0.000000D+00      0.000000D+00      0.000000D+00
   z          0.899219D+00      0.228559D+01      0.762390D+01

 Dipole polarizability, Alpha (dipole orientation).
 (esu units = cm**3 , SI units = C**2 m**2 J**-1)
 Alpha(0;0):
               (au)            (10**-24 esu)      (10**-40 SI)
   iso        0.709847D+02      0.105189D+02      0.117038D+02
   aniso      0.381934D+02      0.565968D+01      0.629724D+01
   xx         0.653632D+02      0.968583D+01      0.107769D+02
   yx         0.163968D+02      0.242976D+01      0.270347D+01
   yy         0.671988D+02      0.995783D+01      0.110796D+02
   zx        -0.832094D+01     -0.123304D+01     -0.137194D+01
   zy        -0.899629D+01     -0.133311D+01     -0.148329D+01
   zz         0.803922D+02      0.119129D+02      0.132549D+02

 ----------------------------------------------------------------------
 1\1\GINC-AJ\Freq\UM062X\6-311++G(d,p)\C5H7O3(2)\AAYUSH\23-Jun-2025\0\\
 # freq 6-311++g(d,p) m062x\\Title Card Required\\0,2\O,2.795784,-1.531
 517,0.024532\H,1.856304,-1.705786,-0.159968\C,2.539297,0.758347,0.2667
 62\H,3.591935,0.764046,0.427511\C,1.352115,0.802207,0.0909\C,-0.084503
 ,0.78371,-0.126892\O,-0.788302,1.752429,-0.105985\O,-0.497799,-0.46921
 4,-0.357721\C,-1.916118,-0.63972,-0.574613\C,-2.669889,-0.649722,0.740
 281\H,-1.99169,-1.594606,-1.09165\H,-2.264405,0.158309,-1.230979\H,-3.
 726096,-0.852403,0.553074\H,-2.280208,-1.428257,1.397769\H,-2.588713,0
 .31618,1.238995\\Version=ES64L-G16RevA.03\State=2-A\HF=-420.2096523\S2
 =0.756619\S2-1=0.\S2A=0.75003\RMSD=2.877e-09\RMSF=1.599e-03\ZeroPoint=
 0.1120986\Thermal=0.1207382\Dipole=-0.6502662,-0.6143254,-0.0913961\Di
 poleDeriv=-0.2191171,-0.0835028,0.0198672,0.0500286,-0.1788627,0.03381
 97,0.0393883,0.0109255,-0.3822131,0.1767578,-0.0031637,-0.0311386,-0.1
 10489,0.3706113,-0.0081721,-0.0454106,0.0075554,0.3237903,-0.2513167,0
 .2294511,0.0123251,0.0531695,-0.2827937,-0.0187067,-0.01775,0.0115787,
 -0.0791959,0.2957075,0.0077532,0.0141045,-0.0141994,0.2392107,0.003503
 4,0.0132419,0.0062415,0.2005465,-0.6384449,-0.1826356,-0.085896,-0.029
 1973,-0.2188949,-0.01154,-0.0874354,-0.041784,-0.1297784,2.0857382,-0.
 1243009,0.1865643,0.4670446,1.893893,0.1478474,0.2916364,0.1600719,0.4
 333683,-0.9574371,0.409432,-0.032453,0.1014896,-1.0312045,-0.0223835,-
 0.0628667,-0.009028,-0.3505788,-1.3745834,-0.4182056,-0.0686353,-0.660
 3001,-1.1438054,-0.1225047,-0.1846603,-0.1741433,-0.3645557,0.9490808,
 0.2662876,-0.0057491,0.1697906,0.3243285,0.006273,0.0143317,0.0655965,
 0.3471319,-0.0725797,-0.052508,0.0244893,-0.0221413,0.0162775,-0.01980
 87,0.061947,-0.0416497,-0.0709217,-0.0074115,-0.0024546,0.0275809,-0.0
 432423,-0.0476267,-0.0895678,0.0018424,-0.0649166,0.0155979,-0.0279458
 ,-0.0448322,0.0049508,0.0408209,0.0075731,0.0938994,-0.0072447,0.03527
 26,-0.0114789,-0.1080403,-0.0481935,-0.0160601,-0.0439758,0.0876449,-0
 .0026543,-0.0252575,0.0053947,0.0557846,0.0484772,0.0717408,-0.0402477
 ,0.0416939,-0.008457,0.0786773,0.0069478,0.056975,-0.0092111,0.1011149
 ,-0.0248678,-0.0097025,-0.0004925,-0.0278941,-0.0686824,0.0012897,-0.0
 280902,0.0217144\Polar=93.4738394,-2.0167338,69.2802353,3.1814644,1.31
 27654,50.2001214\Quadrupole=3.3809371,-3.3731172,-0.0078199,6.3523827,
 1.1526587,0.8108504\PG=C01 [X(C5H7O3)]\NImag=2\\0.48079753,0.08242263,
 0.03901547,0.09359750,0.01912802,0.01816581,-0.47726835,-0.08807160,-0
 .09343687,0.47562876,-0.08220918,-0.02224002,-0.01673269,0.08510319,0.
 02883255,-0.09265028,-0.01778238,-0.01965825,0.09270399,0.01808396,0.0
 1999518,0.00005906,-0.00838194,-0.00109701,-0.00095620,-0.00123243,-0.
 00031378,1.51323156,-0.00182903,-0.00433520,-0.00094548,0.00199274,-0.
 00216658,0.00005438,-0.01563505,0.05418703,-0.00037256,-0.00182363,0.0
 0020856,0.00012515,-0.00055627,0.00018430,0.21924723,-0.00341677,0.094
 00149,-0.00023079,0.00131609,0.00009896,0.00004944,-0.00069176,-0.0001
 0053,-0.41595355,-0.00212571,-0.05893796,0.40605942,-0.00133250,-0.005
 26441,-0.00089594,-0.00011552,-0.00032178,-0.00004966,-0.00521317,-0.0
 2289322,0.00022260,0.00205767,0.01922118,-0.00022522,-0.00047715,0.000
 11615,-0.00003244,-0.00015209,0.00007493,-0.05928468,0.00068309,-0.039
 51727,0.05933719,0.00042869,0.02715298,-0.00233892,0.01314063,0.000980
 45,0.00066518,-0.00092685,0.00010624,-1.09653803,0.01810828,-0.1595886
 1,0.01039155,0.00455929,0.00086471,1.43764919,0.00267008,-0.00752413,-
 0.00070753,0.00160663,-0.00317183,-0.00009044,0.02715822,-0.02832705,0
 .00496154,-0.00064316,0.00382056,-0.00067604,-0.02107391,0.11447264,-0
 .00028785,0.00092734,0.00148267,0.00044341,-0.00051199,-0.00050941,-0.
 15844342,0.00358630,-0.05797418,0.00026143,0.00011440,0.00817659,0.207
 03807,0.00407339,0.09077070,-0.00154157,-0.00195753,-0.00034790,0.0035
 8777,0.00329731,0.00079545,0.00747276,-0.00083044,0.00062432,-0.001451
 87,0.00055130,-0.00101525,-0.26478404,-0.00664558,-0.02964444,0.782607
 95,-0.00235210,0.00077574,-0.00009378,0.00468173,-0.00127641,0.0003297
 0,0.00772064,0.00166536,0.00114489,-0.00036712,0.00574175,-0.00006597,
 -0.02414582,-0.05910417,-0.00217196,-0.22542201,0.83489931,-0.00039951
 ,-0.00007137,-0.00087157,0.00097586,0.00015974,0.00119994,0.00148784,-
 0.00013469,0.00287624,-0.00114871,0.00005762,0.00559312,-0.03194942,0.
 00072354,-0.07747438,0.05719309,0.04791168,0.22466278,0.00021421,0.000
 61113,0.00009792,-0.00060743,-0.00149030,-0.00027967,-0.00409645,-0.00
 037049,-0.00069692,0.00061991,-0.00167584,0.00003218,-0.04886919,0.044
 35596,-0.00496397,-0.35366688,0.32629480,0.00114839,0.37603182,0.00083
 155,-0.00048929,0.00004876,-0.00155213,0.00074076,-0.00012178,-0.00286
 076,0.00115411,-0.00029628,-0.00000084,-0.00018165,0.00011933,0.038270
 85,-0.00460350,0.00222762,0.31614145,-0.52363775,-0.01060001,-0.379625
 60,0.63571665,0.00013046,0.00000781,0.00009694,-0.00028907,-0.00010640
 ,-0.00011016,-0.00097175,0.00005036,0.00001225,0.00024414,-0.00013237,
 -0.00098756,-0.00579203,0.00312495,0.02158949,-0.00049971,-0.00734204,
 -0.08122911,0.00215491,0.02173470,0.03755788,-0.00004068,0.00109105,0.
 00002098,-0.00030991,-0.00239188,-0.00013835,-0.00432705,0.00103692,-0
 .00052998,0.00075659,0.00115834,0.00035536,-0.03828682,-0.04695870,-0.
 01427103,-0.14187650,-0.06376358,-0.01792804,0.03208355,0.01830357,0.0
 0126221,0.42552355,0.00149650,0.00028108,0.00017826,-0.00292803,-0.001
 18715,-0.00042841,-0.00103679,0.00040344,-0.00020525,0.00053938,-0.000
 30989,0.00011408,-0.02653139,-0.01109457,-0.00697601,-0.03723364,-0.25
 240965,-0.02836313,0.01672384,-0.10818666,-0.01725761,0.08457217,0.456
 70103,0.00015719,0.00012186,0.00049879,-0.00035589,-0.00033826,-0.0011
 7605,-0.00065890,0.00013292,0.00023805,0.00024586,0.00016272,-0.000345
 86,-0.01091469,-0.00970740,0.00889358,-0.01571773,-0.03429773,-0.07318
 942,0.00199679,-0.01588020,0.02799930,0.05922922,0.06060167,0.10005016
 ,0.00040781,-0.00036589,0.00005306,-0.00107131,0.00122138,-0.00004623,
 0.00195270,-0.00047941,0.00018351,-0.00039035,-0.00007518,-0.00008175,
 0.00392169,0.00175464,0.00101723,-0.02344137,-0.04520555,-0.01129892,-
 0.00691145,0.01843837,0.00193710,-0.18167340,-0.00537517,-0.02251790,0
 .42866588,0.00027919,-0.00024970,-0.00000835,-0.00066002,0.00093324,0.
 00007530,-0.00029483,0.00027810,0.00003209,-0.00013554,0.00018553,0.00
 001639,-0.00147439,-0.00428041,-0.00139341,-0.04607639,-0.00884784,-0.
 00970362,-0.00099476,0.00165225,0.00037850,0.01683585,-0.09072081,0.00
 043025,-0.02128084,0.65856511,0.00001977,-0.00005887,-0.00007053,-0.00
 007280,0.00027525,0.00006157,0.00013167,0.00002801,-0.00011302,-0.0000
 2735,0.00009357,-0.00026993,-0.00091734,-0.00180672,0.00556063,-0.0101
 7393,-0.01191929,-0.00304175,-0.00267630,0.00308924,-0.00548776,-0.019
 84820,-0.00201019,-0.06933559,0.02204927,0.00468938,0.55491644,-0.0000
 3433,0.00008800,0.00002137,0.00011892,-0.00028873,0.00000797,-0.000322
 81,0.00007555,-0.00001238,0.00007051,0.00000131,0.00009781,-0.00044182
 ,-0.00039067,-0.00174421,-0.00027371,0.00679628,0.00287422,0.00082339,
 -0.00264712,0.00131365,-0.04194881,-0.00794743,0.03104497,-0.09495061,
 0.00160889,0.04530337,0.56050035,-0.00003819,0.00000511,0.00005659,0.0
 0003320,-0.00002801,-0.00010495,0.00000416,-0.00000549,-0.00006198,0.0
 0001035,0.00001486,0.00002677,0.00001583,-0.00011060,-0.00006898,-0.00
 194850,0.00252073,0.00182582,0.00115484,-0.00000619,-0.00078731,-0.006
 24230,0.00074911,0.00543451,0.00203800,-0.08597466,-0.00246166,-0.0007
 6476,0.58996598,0.00002410,0.00004229,-0.00003437,0.00001300,-0.000149
 64,0.00006129,-0.00023433,-0.00001208,0.00004392,0.00003238,-0.0000049
 8,0.00002505,0.00020145,-0.00000489,-0.00068903,-0.00128274,0.00484767
 ,0.00174015,0.00216282,-0.00130853,-0.00091490,-0.00354422,-0.00274424
 ,0.01005141,0.05732874,0.00006224,-0.19511705,0.04406532,0.00292008,0.
 51924054,0.00006285,0.00003503,0.00004510,-0.00011717,-0.00015581,-0.0
 0011008,-0.00050443,0.00014455,-0.00005400,0.00004696,0.00005116,-0.00
 001682,-0.00091855,-0.00150575,0.00016936,-0.00584728,0.00505473,-0.00
 211786,0.00239495,-0.00106330,0.00040545,-0.01993946,-0.04083653,-0.01
 876554,-0.04493763,-0.00218928,-0.00366196,0.00237406,0.01584520,0.007
 65231,0.06520553,-0.00000435,0.00001816,0.00003917,0.00000935,-0.00006
 982,-0.00007060,-0.00012947,0.00002130,0.00001926,0.00003076,-0.000011
 83,0.00000615,-0.00014943,-0.00005247,-0.00024492,0.00110919,0.0003068
 8,-0.00018957,-0.00151874,0.00027300,-0.00042745,-0.00324836,-0.002435
 21,-0.00022897,-0.01461263,-0.26909030,-0.11285913,0.00109542,0.003509
 39,0.00194809,0.01820966,0.28331148,0.00004207,0.00002807,-0.00003011,
 -0.00009595,-0.00009045,0.00005209,-0.00006117,0.00003416,-0.00000267,
 0.00000766,-0.00000274,-0.00000925,-0.00023192,-0.00023053,0.00009009,
 -0.00071127,0.00300918,0.00004851,0.00132736,-0.00001377,0.00061076,-0
 .00420140,-0.00637629,-0.00167589,-0.00845337,-0.11121828,-0.11179851,
 -0.00034056,-0.02628050,-0.01394542,0.00797558,0.12323350,0.11785379,-
 0.00010652,0.00007978,0.00002178,0.00027666,-0.00025278,-0.00005380,-0
 .00004691,-0.00006181,-0.00000827,0.00005050,0.00002780,-0.00002578,-0
 .00042358,-0.00025790,0.00052446,0.00027111,0.00864986,0.00013157,0.00
 190651,-0.00292981,0.00009750,-0.03203724,0.01972369,-0.02492570,-0.07
 196280,0.05442976,-0.04549382,0.00772811,-0.01347277,0.01126844,0.0024
 3811,-0.00112801,0.00231861,0.09281687,0.00002218,0.00000294,-0.000019
 27,-0.00004725,-0.00001559,0.00002193,0.00004354,0.00000095,-0.0000578
 9,0.00000402,0.00001799,-0.00003389,0.00020311,-0.00018184,0.00082933,
 -0.00220561,0.00111306,-0.00108910,-0.00119281,-0.00179010,-0.00127831
 ,-0.00146838,0.00644066,-0.00596760,0.06445118,-0.20352430,0.12331880,
 -0.00094927,0.00177341,-0.00147611,0.00775331,-0.01771761,0.01660961,-
 0.06576508,0.21226214,-0.00000977,-0.00000210,0.00002231,0.00001539,-0
 .00000338,-0.00003898,0.00011941,-0.00003688,0.00005096,-0.00000597,0.
 00002755,-0.00000648,0.00008847,-0.00022222,-0.00008772,-0.00150419,0.
 00403208,0.00101247,0.00205710,-0.00104455,0.00005462,-0.00642141,0.00
 024280,-0.00216557,-0.04920452,0.11724511,-0.14774643,-0.00771927,0.02
 187426,-0.01734016,0.00601395,-0.01125222,0.01124785,0.05391726,-0.130
 33129,0.15732813,-0.00002538,0.00002955,0.00000943,0.00005582,-0.00008
 407,-0.00001699,-0.00009199,0.00000530,0.00000324,0.00003775,-0.000002
 30,0.00001037,-0.00018912,-0.00002807,-0.00025343,0.00065737,0.0025374
 4,0.00048208,0.00037778,-0.00073053,0.00004688,-0.00226858,-0.00169474
 ,0.00367926,-0.01448737,-0.00271831,-0.00645975,-0.30130576,-0.0492534
 0,-0.04519411,0.00031941,0.00048135,0.00006561,0.00036948,-0.00032173,
 0.00022448,0.32686356,0.00001144,0.00000416,-0.00001181,-0.00001064,-0
 .00001870,0.00002503,-0.00006083,0.00001015,0.00003235,0.00001055,-0.0
 0000725,0.00000152,-0.00000511,0.00007580,-0.00019814,0.00079431,-0.00
 076729,-0.00041952,-0.00063193,0.00005424,0.00063525,0.00071210,0.0014
 9012,0.00004562,0.00003213,-0.00224109,-0.00011299,-0.04975584,-0.0551
 3531,-0.00894339,-0.00007859,0.00000708,0.00022950,0.00009048,-0.00002
 914,0.00005346,0.05409510,0.05532470,-0.00000112,-0.00002731,0.0000359
 0,-0.00003545,0.00008654,-0.00005308,0.00013308,-0.00001273,0.00000653
 ,-0.00001672,-0.00000495,-0.00002499,0.00012059,0.00022309,0.00042766,
 0.00047034,-0.00309479,-0.00112057,-0.00082911,0.00101926,0.00018802,0
 .00760930,0.00224335,-0.00508274,0.02547167,0.00541889,0.00898732,-0.0
 4740669,-0.00907008,-0.05657797,-0.00062783,-0.00072366,0.00097897,-0.
 00095159,0.00061657,0.00075782,0.04878568,0.00978905,0.05793063,0.0000
 4333,-0.00000956,-0.00004440,-0.00005677,0.00002126,0.00006844,0.00000
 735,0.00001374,-0.00000637,-0.00001859,-0.00000726,-0.00000099,0.00006
 808,0.00000304,0.00005006,-0.00011066,-0.00131412,-0.00024771,-0.00038
 527,0.00039299,0.00003085,0.00280946,0.00069258,-0.00081409,0.00465218
 ,-0.01410444,0.01250659,-0.08296149,0.07190348,-0.06062721,0.00042449,
 0.00014911,-0.00100061,-0.00148871,-0.00010094,0.00337492,-0.00955420,
 0.02332872,-0.01837095,0.08633177,0.00002582,-0.00000429,-0.00005720,-
 0.00002422,0.00000871,0.00008279,-0.00006520,0.00000451,-0.00001317,-0
 .00000471,-0.00001053,0.00001163,-0.00006954,0.00006755,-0.00010788,0.
 00045343,-0.00118339,0.00023349,-0.00082944,0.00034327,0.00032412,-0.0
 0041596,0.00015894,-0.00039039,-0.00098454,0.00093571,-0.00093838,0.07
 157341,-0.18973741,0.11612298,-0.00063097,0.00063844,0.00010759,0.0005
 0957,0.00112540,-0.00040580,-0.00230316,0.00500328,-0.00547462,-0.0781
 4866,0.20055077,-0.00003455,-0.00001866,0.00002390,0.00005989,0.000067
 28,-0.00004981,0.00006826,-0.00002904,0.00000147,-0.00000621,0.0000086
 1,0.00000435,0.00002002,0.00005156,-0.00004185,0.00001066,0.00029495,0
 .00000019,-0.00004642,-0.00020732,0.00020624,-0.00112607,-0.00127606,0
 .00276668,-0.01226288,0.02292976,-0.02064951,-0.05785086,0.11464472,-0
 .14335621,-0.00044473,-0.00031166,0.00092898,0.00375003,-0.00104476,-0
 .00411202,-0.00118266,0.00253117,-0.00335372,0.06224390,-0.12734288,0.
 15749627,0.00000175,-0.00002739,-0.00002037,0.00000458,0.00008065,0.00
 002763,0.00011400,-0.00004515,0.00002363,-0.00003748,0.00001489,-0.000
 01469,0.00009438,-0.00004482,0.00010432,-0.00160307,0.00083481,0.00079
 713,0.00008456,-0.00096870,-0.00007059,0.00153529,-0.00016445,-0.00168
 283,0.00022601,0.01677509,0.00932078,-0.04937601,-0.01928513,-0.011865
 97,-0.00100185,-0.00029385,0.00335935,0.00020841,-0.00042626,-0.000945
 83,-0.00075877,-0.02853188,-0.01435120,0.00023903,0.01091416,0.0068016
 2,0.05026918,0.00000597,0.00000439,0.00002124,-0.00001744,-0.00001938,
 -0.00002485,-0.00001610,0.00000259,0.00001851,0.00000002,-0.00000131,-
 0.00000252,0.00007844,0.00001400,-0.00008510,-0.00002729,0.00020367,-0
 .00034087,-0.00081065,-0.00103913,0.00107580,0.00077914,0.00011957,-0.
 00011902,0.00044351,0.00237917,0.00067297,-0.01849505,-0.26754093,-0.1
 1129949,-0.00063342,0.00129152,0.00096095,0.00035721,0.00052200,-0.000
 17683,-0.00001243,-0.00377076,-0.00098860,-0.00281996,-0.01790098,-0.0
 1029766,0.02116803,0.28573558,0.00000980,0.00000608,0.00001382,-0.0000
 1822,-0.00003159,-0.00003358,-0.00012245,0.00001844,-0.00001664,0.0000
 1583,-0.00002512,0.00001817,-0.00002599,0.00028770,-0.00021484,0.00180
 328,-0.00258457,-0.00020659,-0.00148508,0.00123352,0.00041402,-0.00046
 837,0.00225703,0.00247315,-0.00417500,-0.02895424,-0.01589587,-0.00965
 471,-0.10794729,-0.10318725,0.00353707,0.00106201,-0.00434919,-0.00057
 067,-0.00009804,0.00102319,-0.00020009,-0.00365710,-0.00309980,0.00283
 758,0.01784772,0.01013504,0.00851701,0.12058545,0.11292638\\-0.0003617
 3,0.00816339,0.00094838,-0.00011567,0.00007756,-0.00000220,0.00038355,
 -0.00666271,-0.00076078,-0.00021475,-0.00056537,-0.00010007,-0.0000110
 5,-0.00120673,-0.00015659,0.00009282,-0.00008700,0.00000104,0.00054201
 ,0.00018266,0.00010613,-0.00019464,0.00000091,-0.00003400,-0.00008626,
 0.00006872,-0.00001638,-0.00001333,0.00001740,0.00001033,-0.00001063,0
 .00000349,-0.00000376,-0.00000914,0.00000808,0.00000160,-0.00000255,-0
 .00000342,0.00000772,0.00000580,0.00000301,-0.00000110,-0.00000443,0.,
 -0.00000032\\\@


 HEAVEN'S NET CASTS WIDE.
 THOUGH ITS MESHES ARE COARSE, NOTHING SLIPS THROUGH.

                                          -- LAO-TSU
 Job cpu time:       0 days  0 hours 57 minutes 19.4 seconds.
 Elapsed time:       0 days  0 hours  2 minutes 23.4 seconds.
 File lengths (MBytes):  RWF=    153 Int=      0 D2E=      0 Chk=      9 Scr=      1
 Normal termination of Gaussian 16 at Mon Jun 23 06:12:33 2025.
