 Entering Gaussian System, Link 0=g16
 Initial command:
 /opt/g16/l1.exe "/home/aayush/scratches/g16/Gau-79611.inp" -scrdir="/home/aayush/scratches/g16/"
 Entering Link 1 = /opt/g16/l1.exe PID=     79614.
  
 Copyright (c) 1988,1990,1992,1993,1995,1998,2003,2009,2016,
            Gaussian, Inc.  All Rights Reserved.
  
 This is part of the Gaussian(R) 16 program.  It is based on
 the Gaussian(R) 09 system (copyright 2009, Gaussian, Inc.),
 the Gaussian(R) 03 system (copyright 2003, Gaussian, Inc.),
 the Gaussian(R) 98 system (copyright 1998, Gaussian, Inc.),
 the Gaussian(R) 94 system (copyright 1995, Gaussian, Inc.),
 the Gaussian 92(TM) system (copyright 1992, Gaussian, Inc.),
 the Gaussian 90(TM) system (copyright 1990, Gaussian, Inc.),
 the Gaussian 88(TM) system (copyright 1988, Gaussian, Inc.),
 the Gaussian 86(TM) system (copyright 1986, Carnegie Mellon
 University), and the Gaussian 82(TM) system (copyright 1983,
 Carnegie Mellon University). Gaussian is a federally registered
 trademark of Gaussian, Inc.
  
 This software contains proprietary and confidential information,
 including trade secrets, belonging to Gaussian, Inc.
  
 This software is provided under written license and may be
 used, copied, transmitted, or stored only in accord with that
 written license.
  
 The following legend is applicable only to US Government
 contracts under FAR:
  
                    RESTRICTED RIGHTS LEGEND
  
 Use, reproduction and disclosure by the US Government is
 subject to restrictions as set forth in subparagraphs (a)
 and (c) of the Commercial Computer Software - Restricted
 Rights clause in FAR 52.227-19.
  
 Gaussian, Inc.
 340 Quinnipiac St., Bldg. 40, Wallingford CT 06492
  
  
 ---------------------------------------------------------------
 Warning -- This program may not be used in any manner that
 competes with the business of Gaussian, Inc. or will provide
 assistance to any competitor of Gaussian, Inc.  The licensee
 of this program is prohibited from giving any competitor of
 Gaussian, Inc. access to this program.  By using this program,
 the user acknowledges that Gaussian, Inc. is engaged in the
 business of creating and licensing software in the field of
 computational chemistry and represents and warrants to the
 licensee that it is not a competitor of Gaussian, Inc. and that
 it will not use this program in any manner prohibited above.
 ---------------------------------------------------------------
  

 Cite this work as:
 Gaussian 16, Revision A.03,
 M. J. Frisch, G. W. Trucks, H. B. Schlegel, G. E. Scuseria, 
 M. A. Robb, J. R. Cheeseman, G. Scalmani, V. Barone, 
 G. A. Petersson, H. Nakatsuji, X. Li, M. Caricato, A. V. Marenich, 
 J. Bloino, B. G. Janesko, R. Gomperts, B. Mennucci, H. P. Hratchian, 
 J. V. Ortiz, A. F. Izmaylov, J. L. Sonnenberg, D. Williams-Young, 
 F. Ding, F. Lipparini, F. Egidi, J. Goings, B. Peng, A. Petrone, 
 T. Henderson, D. Ranasinghe, V. G. Zakrzewski, J. Gao, N. Rega, 
 G. Zheng, W. Liang, M. Hada, M. Ehara, K. Toyota, R. Fukuda, 
 J. Hasegawa, M. Ishida, T. Nakajima, Y. Honda, O. Kitao, H. Nakai, 
 T. Vreven, K. Throssell, J. A. Montgomery, Jr., J. E. Peralta, 
 F. Ogliaro, M. J. Bearpark, J. J. Heyd, E. N. Brothers, K. N. Kudin, 
 V. N. Staroverov, T. A. Keith, R. Kobayashi, J. Normand, 
 K. Raghavachari, A. P. Rendell, J. C. Burant, S. S. Iyengar, 
 J. Tomasi, M. Cossi, J. M. Millam, M. Klene, C. Adamo, R. Cammi, 
 J. W. Ochterski, R. L. Martin, K. Morokuma, O. Farkas, 
 J. B. Foresman, and D. J. Fox, Gaussian, Inc., Wallingford CT, 2016.
 
 ******************************************
 Gaussian 16:  ES64L-G16RevA.03 25-Dec-2016
                23-Jun-2025 
 ******************************************
 %nprocshared=24
 Will use up to   24 processors via shared memory.
 %mem=12GB
 %chk=ethyl_propiolate_ts1.chk
 --------------------------
 # freq 6-311++g(d,p) m062x
 --------------------------
 1/10=4,30=1,38=1/1,3;
 2/12=2,17=6,18=5,40=1/2;
 3/5=4,6=6,7=1111,11=2,25=1,30=1,71=2,74=-55,140=1/1,2,3;
 4//1;
 5/5=2,38=5,98=1/2;
 8/6=4,10=90,11=11/1;
 11/6=1,8=1,9=11,15=111,16=1/1,2,10;
 10/6=1/2;
 6/7=2,8=2,9=2,10=2,28=1/1;
 7/8=1,10=1,25=1/1,2,3,16;
 1/10=4,30=1/3;
 99//99;
 -------------------
 Title Card Required
 -------------------
 Symbolic Z-matrix:
 Charge =  0 Multiplicity = 2
 O                     2.77999  -1.39345   0.02501 
 H                     1.86681  -1.66144  -0.16826 
 C                     2.54464   0.5566    0.24998 
 H                     3.58471   0.71864   0.43123 
 C                     1.35671   0.79171   0.09933 
 C                    -0.08152   0.78426  -0.11803 
 O                    -0.77942   1.75729  -0.08547 
 O                    -0.49825  -0.46299  -0.3626 
 C                    -1.91759  -0.62846  -0.58183 
 C                    -2.67114  -0.65146   0.7328 
 H                    -1.99354  -1.57766  -1.10897 
 H                    -2.26384   0.17716  -1.22992 
 H                    -3.72758  -0.85041   0.54303 
 H                    -2.28283  -1.43782   1.38165 
 H                    -2.58885   0.30882   1.24214 
 

 GradGradGradGradGradGradGradGradGradGradGradGradGradGradGradGradGradGrad
 Berny optimization.
 Initialization pass.
 Trust Radius=3.00D-01 FncErr=1.00D-07 GrdErr=1.00D-07 EigMax=2.50D+02 EigMin=1.00D-04
 Number of steps in this run=      2 maximum allowed number of steps=      2.
 GradGradGradGradGradGradGradGradGradGradGradGradGradGradGradGradGradGrad

                          Input orientation:                          
 ---------------------------------------------------------------------
 Center     Atomic      Atomic             Coordinates (Angstroms)
 Number     Number       Type             X           Y           Z
 ---------------------------------------------------------------------
      1          8           0        2.779992   -1.393454    0.025008
      2          1           0        1.866813   -1.661442   -0.168255
      3          6           0        2.544638    0.556602    0.249982
      4          1           0        3.584709    0.718638    0.431229
      5          6           0        1.356709    0.791713    0.099327
      6          6           0       -0.081523    0.784263   -0.118029
      7          8           0       -0.779422    1.757292   -0.085465
      8          8           0       -0.498249   -0.462994   -0.362596
      9          6           0       -1.917593   -0.628461   -0.581831
     10          6           0       -2.671140   -0.651458    0.732802
     11          1           0       -1.993535   -1.577660   -1.108966
     12          1           0       -2.263837    0.177163   -1.229922
     13          1           0       -3.727581   -0.850414    0.543026
     14          1           0       -2.282829   -1.437816    1.381653
     15          1           0       -2.588851    0.308817    1.242140
 ---------------------------------------------------------------------
                    Distance matrix (angstroms):
                    1          2          3          4          5
     1  O    0.000000
     2  H    0.971115   0.000000
     3  C    1.977049   2.356711   0.000000
     4  H    2.296414   2.995885   1.068108   0.000000
     5  C    2.608872   2.519876   1.220307   2.253771   0.000000
     6  C    3.598775   3.127301   2.661575   3.707728   1.454583
     7  O    4.754875   4.324021   3.550149   4.515685   2.351499
     8  O    3.429702   2.658489   3.267107   4.323998   2.286598
     9  C    4.797997   3.944594   4.691246   5.754676   3.633445
    10  C    5.546744   4.735503   5.375580   6.411221   4.325228
    11  H    4.909826   3.974197   5.195847   6.225913   4.277620
    12  H    5.429724   4.644338   5.045347   6.103942   3.905500
    13  H    6.550705   5.697450   6.434773   7.479573   5.361292
    14  H    5.241623   4.435285   5.344420   6.323101   4.456613
    15  H    5.762258   5.071891   5.234356   6.240062   4.136019
                    6          7          8          9         10
     6  C    0.000000
     7  O    1.197877   0.000000
     8  O    1.337581   2.255112   0.000000
     9  C    2.362637   2.689541   1.445677   0.000000
    10  C    3.080799   3.170210   2.440670   1.515461   0.000000
    11  H    3.196314   3.693715   2.008838   1.088401   2.170048
    12  H    2.523365   2.451546   2.068661   1.090384   2.169054
    13  H    4.050050   3.985821   3.376215   2.142574   1.091635
    14  H    3.468779   3.823792   2.679069   2.154930   1.090941
    15  H    2.891851   2.671076   2.746177   2.157764   1.090103
                   11         12         13         14         15
    11  H    0.000000
    12  H    1.779634   0.000000
    13  H    2.502974   2.518294   0.000000
    14  H    2.511261   3.070642   1.770775   0.000000
    15  H    3.072604   2.496809   1.768978   1.778719   0.000000
 Stoichiometry    C5H7O3(2)
 Framework group  C1[X(C5H7O3)]
 Deg. of freedom    39
 Full point group                 C1      NOp   1
 Largest Abelian subgroup         C1      NOp   1
 Largest concise Abelian subgroup C1      NOp   1
                         Standard orientation:                         
 ---------------------------------------------------------------------
 Center     Atomic      Atomic             Coordinates (Angstroms)
 Number     Number       Type             X           Y           Z
 ---------------------------------------------------------------------
      1          8           0        2.779992   -1.393454    0.025008
      2          1           0        1.866813   -1.661442   -0.168255
      3          6           0        2.544638    0.556602    0.249982
      4          1           0        3.584709    0.718639    0.431229
      5          6           0        1.356709    0.791713    0.099327
      6          6           0       -0.081523    0.784263   -0.118029
      7          8           0       -0.779422    1.757292   -0.085465
      8          8           0       -0.498249   -0.462994   -0.362596
      9          6           0       -1.917593   -0.628461   -0.581831
     10          6           0       -2.671140   -0.651458    0.732802
     11          1           0       -1.993535   -1.577660   -1.108966
     12          1           0       -2.263837    0.177163   -1.229922
     13          1           0       -3.727581   -0.850414    0.543026
     14          1           0       -2.282829   -1.437816    1.381653
     15          1           0       -2.588851    0.308817    1.242140
 ---------------------------------------------------------------------
 Rotational constants (GHZ):           3.5789146           1.1516543           0.9375732
 Standard basis: 6-311++G(d,p) (5D, 7F)
 There are   233 symmetry adapted cartesian basis functions of A   symmetry.
 There are   225 symmetry adapted basis functions of A   symmetry.
   225 basis functions,   351 primitive gaussians,   233 cartesian basis functions
    31 alpha electrons       30 beta electrons
       nuclear repulsion energy       352.0521407340 Hartrees.
 NAtoms=   15 NActive=   15 NUniq=   15 SFac= 1.00D+00 NAtFMM=   60 NAOKFM=F Big=F
 Integral buffers will be    131072 words long.
 Raffenetti 2 integral format.
 Two-electron integral symmetry is turned on.
 One-electron integrals computed using PRISM.
 NBasis=   225 RedAO= T EigKep=  1.77D-06  NBF=   225
 NBsUse=   225 1.00D-06 EigRej= -1.00D+00 NBFU=   225
 ExpMin= 3.60D-02 ExpMax= 8.59D+03 ExpMxC= 1.30D+03 IAcc=3 IRadAn=         5 AccDes= 0.00D+00
 Harris functional with IExCor= 1009 and IRadAn=       5 diagonalized for initial guess.
 HarFok:  IExCor= 1009 AccDes= 0.00D+00 IRadAn=         5 IDoV= 1 UseB2=F ITyADJ=14
 ICtDFT=  3500011 ScaDFX=  1.000000  1.000000  1.000000  1.000000
 FoFCou: FMM=F IPFlag=           0 FMFlag=      100000 FMFlg1=           0
         NFxFlg=           0 DoJE=T BraDBF=F KetDBF=T FulRan=T
         wScrn=  0.000000 ICntrl=       500 IOpCl=  0 I1Cent=   200000004 NGrid=           0
         NMat0=    1 NMatS0=      1 NMatT0=    0 NMatD0=    1 NMtDS0=    0 NMtDT0=    0
 Petite list used in FoFCou.
 Initial guess <Sx>= 0.0000 <Sy>= 0.0000 <Sz>= 0.5000 <S**2>= 0.7500 S= 0.5000
 Requested convergence on RMS density matrix=1.00D-08 within 128 cycles.
 Requested convergence on MAX density matrix=1.00D-06.
 Requested convergence on             energy=1.00D-06.
 No special actions if energy rises.
 Restarting incremental Fock formation.
 SCF Done:  E(UM062X) =  -420.204810992     A.U. after   23 cycles
            NFock= 23  Conv=0.95D-08     -V/T= 2.0034
 <Sx>= 0.0000 <Sy>= 0.0000 <Sz>= 0.5000 <S**2>= 0.7779 S= 0.5139
 <L.S>=  0.00000000000    
 Annihilation of the first spin contaminant:
 S**2 before annihilation     0.7779,   after     0.7503
 DoSCS=F DFT=T ScalE2(SS,OS)=  1.000000  1.000000
 Range of M.O.s used for correlation:     1   225
 NBasis=   225 NAE=    31 NBE=    30 NFC=     0 NFV=     0
 NROrb=    225 NOA=    31 NOB=    30 NVA=   194 NVB=   195

 **** Warning!!: The largest alpha MO coefficient is  0.20377709D+03


 **** Warning!!: The largest beta MO coefficient is  0.20132086D+03

 Symmetrizing basis deriv contribution to polar:
 IMax=3 JMax=2 DiffMx= 0.00D+00
 G2DrvN: will do    16 centers at a time, making    1 passes.
 Calling FoFCou, ICntrl=  3107 FMM=F I1Cent=   0 AccDes= 0.00D+00.
 End of G2Drv F.D. properties file   721 does not exist.
 End of G2Drv F.D. properties file   722 does not exist.
 End of G2Drv F.D. properties file   788 does not exist.
          IDoAtm=111111111111111
          Differentiating once with respect to electric field.
                with respect to dipole field.
          Differentiating once with respect to nuclear coordinates.
 Keep R1 and R2 ints in memory in canonical form, NReq=671901991.
          There are    48 degrees of freedom in the 1st order CPHF.  IDoFFX=6 NUNeed=     3.
     45 vectors produced by pass  0 Test12= 2.47D-14 2.08D-09 XBig12= 1.05D+02 3.79D+00.
 AX will form    45 AO Fock derivatives at one time.
     45 vectors produced by pass  1 Test12= 2.47D-14 2.08D-09 XBig12= 2.40D+01 5.10D-01.
     45 vectors produced by pass  2 Test12= 2.47D-14 2.08D-09 XBig12= 1.18D+00 1.37D-01.
     45 vectors produced by pass  3 Test12= 2.47D-14 2.08D-09 XBig12= 1.47D-02 1.86D-02.
     45 vectors produced by pass  4 Test12= 2.47D-14 2.08D-09 XBig12= 1.73D-04 1.63D-03.
     45 vectors produced by pass  5 Test12= 2.47D-14 2.08D-09 XBig12= 2.09D-06 1.48D-04.
     40 vectors produced by pass  6 Test12= 2.47D-14 2.08D-09 XBig12= 1.74D-08 2.18D-05.
     23 vectors produced by pass  7 Test12= 2.47D-14 2.08D-09 XBig12= 1.17D-10 1.18D-06.
      4 vectors produced by pass  8 Test12= 2.47D-14 2.08D-09 XBig12= 8.95D-13 7.57D-08.
      2 vectors produced by pass  9 Test12= 2.47D-14 2.08D-09 XBig12= 8.00D-15 9.03D-09.
      1 vectors produced by pass 10 Test12= 2.47D-14 2.08D-09 XBig12= 2.95D-16 2.50D-09.
 InvSVY:  IOpt=1 It=  1 EMax= 8.88D-15
 Solved reduced A of dimension   340 with    48 vectors.
 Isotropic polarizability for W=    0.000000       76.36 Bohr**3.
 End of Minotr F.D. properties file   721 does not exist.
 End of Minotr F.D. properties file   722 does not exist.
 End of Minotr F.D. properties file   788 does not exist.

 **********************************************************************

            Population analysis using the SCF density.

 **********************************************************************

 Orbital symmetries:
 Alpha Orbitals:
       Occupied  (A) (A) (A) (A) (A) (A) (A) (A) (A) (A) (A) (A)
                 (A) (A) (A) (A) (A) (A) (A) (A) (A) (A) (A) (A)
                 (A) (A) (A) (A) (A) (A) (A)
       Virtual   (A) (A) (A) (A) (A) (A) (A) (A) (A) (A) (A) (A)
                 (A) (A) (A) (A) (A) (A) (A) (A) (A) (A) (A) (A)
                 (A) (A) (A) (A) (A) (A) (A) (A) (A) (A) (A) (A)
                 (A) (A) (A) (A) (A) (A) (A) (A) (A) (A) (A) (A)
                 (A) (A) (A) (A) (A) (A) (A) (A) (A) (A) (A) (A)
                 (A) (A) (A) (A) (A) (A) (A) (A) (A) (A) (A) (A)
                 (A) (A) (A) (A) (A) (A) (A) (A) (A) (A) (A) (A)
                 (A) (A) (A) (A) (A) (A) (A) (A) (A) (A) (A) (A)
                 (A) (A) (A) (A) (A) (A) (A) (A) (A) (A) (A) (A)
                 (A) (A) (A) (A) (A) (A) (A) (A) (A) (A) (A) (A)
                 (A) (A) (A) (A) (A) (A) (A) (A) (A) (A) (A) (A)
                 (A) (A) (A) (A) (A) (A) (A) (A) (A) (A) (A) (A)
                 (A) (A) (A) (A) (A) (A) (A) (A) (A) (A) (A) (A)
                 (A) (A) (A) (A) (A) (A) (A) (A) (A) (A) (A) (A)
                 (A) (A) (A) (A) (A) (A) (A) (A) (A) (A) (A) (A)
                 (A) (A) (A) (A) (A) (A) (A) (A) (A) (A) (A) (A)
                 (A) (A)
 Beta  Orbitals:
       Occupied  (A) (A) (A) (A) (A) (A) (A) (A) (A) (A) (A) (A)
                 (A) (A) (A) (A) (A) (A) (A) (A) (A) (A) (A) (A)
                 (A) (A) (A) (A) (A) (A)
       Virtual   (A) (A) (A) (A) (A) (A) (A) (A) (A) (A) (A) (A)
                 (A) (A) (A) (A) (A) (A) (A) (A) (A) (A) (A) (A)
                 (A) (A) (A) (A) (A) (A) (A) (A) (A) (A) (A) (A)
                 (A) (A) (A) (A) (A) (A) (A) (A) (A) (A) (A) (A)
                 (A) (A) (A) (A) (A) (A) (A) (A) (A) (A) (A) (A)
                 (A) (A) (A) (A) (A) (A) (A) (A) (A) (A) (A) (A)
                 (A) (A) (A) (A) (A) (A) (A) (A) (A) (A) (A) (A)
                 (A) (A) (A) (A) (A) (A) (A) (A) (A) (A) (A) (A)
                 (A) (A) (A) (A) (A) (A) (A) (A) (A) (A) (A) (A)
                 (A) (A) (A) (A) (A) (A) (A) (A) (A) (A) (A) (A)
                 (A) (A) (A) (A) (A) (A) (A) (A) (A) (A) (A) (A)
                 (A) (A) (A) (A) (A) (A) (A) (A) (A) (A) (A) (A)
                 (A) (A) (A) (A) (A) (A) (A) (A) (A) (A) (A) (A)
                 (A) (A) (A) (A) (A) (A) (A) (A) (A) (A) (A) (A)
                 (A) (A) (A) (A) (A) (A) (A) (A) (A) (A) (A) (A)
                 (A) (A) (A) (A) (A) (A) (A) (A) (A) (A) (A) (A)
                 (A) (A) (A)
 The electronic state is 2-A.
 Alpha  occ. eigenvalues --  -19.69668 -19.64903 -19.64498 -10.71925 -10.61635
 Alpha  occ. eigenvalues --  -10.60765 -10.58944 -10.54633  -1.26885  -1.17749
 Alpha  occ. eigenvalues --   -1.10925  -0.92322  -0.88342  -0.79284  -0.71984
 Alpha  occ. eigenvalues --   -0.65724  -0.62771  -0.59752  -0.57682  -0.54823
 Alpha  occ. eigenvalues --   -0.52751  -0.50479  -0.49301  -0.47881  -0.46250
 Alpha  occ. eigenvalues --   -0.43164  -0.41781  -0.40179  -0.39602  -0.37271
 Alpha  occ. eigenvalues --   -0.33544
 Alpha virt. eigenvalues --   -0.02763  -0.00727   0.00790   0.01272   0.01612
 Alpha virt. eigenvalues --    0.02727   0.04626   0.04949   0.05390   0.05941
 Alpha virt. eigenvalues --    0.06596   0.07015   0.08132   0.08812   0.10075
 Alpha virt. eigenvalues --    0.11099   0.11847   0.12070   0.12153   0.12910
 Alpha virt. eigenvalues --    0.13289   0.13983   0.14436   0.15600   0.15840
 Alpha virt. eigenvalues --    0.16736   0.17749   0.17818   0.18735   0.20300
 Alpha virt. eigenvalues --    0.20794   0.20981   0.21848   0.23331   0.23434
 Alpha virt. eigenvalues --    0.25732   0.26470   0.27854   0.28709   0.29220
 Alpha virt. eigenvalues --    0.30180   0.31121   0.31542   0.31998   0.32634
 Alpha virt. eigenvalues --    0.33473   0.33985   0.35953   0.36588   0.37222
 Alpha virt. eigenvalues --    0.40156   0.41340   0.45505   0.45855   0.49548
 Alpha virt. eigenvalues --    0.50472   0.50586   0.54415   0.55570   0.57583
 Alpha virt. eigenvalues --    0.61361   0.62394   0.63685   0.65251   0.66162
 Alpha virt. eigenvalues --    0.66961   0.68281   0.68662   0.70284   0.72374
 Alpha virt. eigenvalues --    0.73843   0.76384   0.76928   0.78118   0.81476
 Alpha virt. eigenvalues --    0.84115   0.88791   0.91223   0.94899   0.98057
 Alpha virt. eigenvalues --    1.00453   1.03812   1.07328   1.07658   1.10280
 Alpha virt. eigenvalues --    1.13258   1.14314   1.16812   1.18570   1.20427
 Alpha virt. eigenvalues --    1.20686   1.22619   1.24598   1.28355   1.32831
 Alpha virt. eigenvalues --    1.33803   1.34599   1.36524   1.41306   1.44953
 Alpha virt. eigenvalues --    1.45722   1.49710   1.50879   1.52843   1.55456
 Alpha virt. eigenvalues --    1.57281   1.57605   1.59477   1.60567   1.62740
 Alpha virt. eigenvalues --    1.65320   1.67736   1.69710   1.73285   1.74544
 Alpha virt. eigenvalues --    1.80911   1.82475   1.84078   1.85906   1.86854
 Alpha virt. eigenvalues --    1.89687   1.93112   1.98167   2.01744   2.07273
 Alpha virt. eigenvalues --    2.11986   2.12566   2.14222   2.19867   2.29914
 Alpha virt. eigenvalues --    2.34329   2.36552   2.38954   2.50590   2.52773
 Alpha virt. eigenvalues --    2.54539   2.60592   2.61508   2.62859   2.63577
 Alpha virt. eigenvalues --    2.64366   2.66060   2.70351   2.73661   2.75311
 Alpha virt. eigenvalues --    2.78718   2.81493   2.82189   2.88944   2.90853
 Alpha virt. eigenvalues --    2.92877   2.95966   2.97350   2.98805   3.00031
 Alpha virt. eigenvalues --    3.06118   3.11916   3.14643   3.19174   3.23899
 Alpha virt. eigenvalues --    3.25077   3.26665   3.29256   3.32133   3.40840
 Alpha virt. eigenvalues --    3.43004   3.53967   3.64050   3.71844   3.84035
 Alpha virt. eigenvalues --    3.85348   3.89933   3.91346   4.01970   4.07681
 Alpha virt. eigenvalues --    4.15621   4.26915   5.07826   5.12341   5.13630
 Alpha virt. eigenvalues --    5.15877   5.30499   5.44710   5.59536   5.71085
 Alpha virt. eigenvalues --    5.93186  23.61124  23.92112  23.93335  24.05042
 Alpha virt. eigenvalues --   24.95798  49.96608  49.99074  50.10506
  Beta  occ. eigenvalues --  -19.69648 -19.64449 -19.63604 -10.71953 -10.61631
  Beta  occ. eigenvalues --  -10.60859 -10.58631 -10.54633  -1.26801  -1.17616
  Beta  occ. eigenvalues --   -1.05710  -0.91447  -0.87819  -0.79158  -0.71668
  Beta  occ. eigenvalues --   -0.65609  -0.62329  -0.59572  -0.57510  -0.54642
  Beta  occ. eigenvalues --   -0.50725  -0.50046  -0.47770  -0.46375  -0.43088
  Beta  occ. eigenvalues --   -0.40636  -0.40262  -0.39815  -0.38529  -0.35300
  Beta virt. eigenvalues --   -0.09815  -0.02700  -0.00645   0.00979   0.01311
  Beta virt. eigenvalues --    0.01771   0.02867   0.04909   0.05047   0.05812
  Beta virt. eigenvalues --    0.06358   0.06989   0.07231   0.08393   0.08933
  Beta virt. eigenvalues --    0.10832   0.11343   0.11955   0.12158   0.12201
  Beta virt. eigenvalues --    0.12903   0.13697   0.14096   0.14497   0.15716
  Beta virt. eigenvalues --    0.15925   0.17049   0.17869   0.18078   0.18737
  Beta virt. eigenvalues --    0.20375   0.21023   0.21417   0.21891   0.23483
  Beta virt. eigenvalues --    0.23643   0.25786   0.26365   0.27703   0.28616
  Beta virt. eigenvalues --    0.29224   0.30309   0.31066   0.31458   0.32005
  Beta virt. eigenvalues --    0.32526   0.33725   0.33920   0.36017   0.36898
  Beta virt. eigenvalues --    0.37337   0.40147   0.41476   0.45712   0.45955
  Beta virt. eigenvalues --    0.49589   0.50546   0.50710   0.54666   0.55613
  Beta virt. eigenvalues --    0.57749   0.61327   0.62530   0.63835   0.65311
  Beta virt. eigenvalues --    0.66464   0.67248   0.68433   0.68835   0.70408
  Beta virt. eigenvalues --    0.72455   0.73928   0.76491   0.76911   0.78382
  Beta virt. eigenvalues --    0.81330   0.84510   0.88798   0.91345   0.94990
  Beta virt. eigenvalues --    0.98110   1.00520   1.04200   1.07953   1.08007
  Beta virt. eigenvalues --    1.10821   1.14367   1.14933   1.17113   1.19304
  Beta virt. eigenvalues --    1.20791   1.22440   1.22872   1.24762   1.28490
  Beta virt. eigenvalues --    1.33366   1.33771   1.35295   1.36896   1.41597
  Beta virt. eigenvalues --    1.45751   1.46061   1.49707   1.50884   1.53415
  Beta virt. eigenvalues --    1.56541   1.57364   1.57816   1.59609   1.60645
  Beta virt. eigenvalues --    1.62845   1.65411   1.68033   1.69885   1.73388
  Beta virt. eigenvalues --    1.74606   1.80901   1.82830   1.84306   1.86195
  Beta virt. eigenvalues --    1.86948   1.90225   1.93239   1.98275   2.01934
  Beta virt. eigenvalues --    2.07365   2.12033   2.12961   2.15064   2.19897
  Beta virt. eigenvalues --    2.29979   2.34397   2.36691   2.39258   2.50595
  Beta virt. eigenvalues --    2.52790   2.54542   2.60568   2.61520   2.62833
  Beta virt. eigenvalues --    2.63596   2.64269   2.66096   2.70060   2.73711
  Beta virt. eigenvalues --    2.75946   2.78850   2.81784   2.83028   2.90851
  Beta virt. eigenvalues --    2.93466   2.94475   2.97070   2.98556   2.99037
  Beta virt. eigenvalues --    3.00214   3.07372   3.12101   3.14826   3.20817
  Beta virt. eigenvalues --    3.24067   3.27470   3.28801   3.29779   3.32293
  Beta virt. eigenvalues --    3.41051   3.43065   3.53863   3.64228   3.71980
  Beta virt. eigenvalues --    3.84042   3.85352   3.90021   3.94141   4.02089
  Beta virt. eigenvalues --    4.07988   4.15840   4.26953   5.09843   5.12426
  Beta virt. eigenvalues --    5.15952   5.21127   5.30662   5.44816   5.61940
  Beta virt. eigenvalues --    5.71221   5.93233  23.61207  23.92132  23.93355
  Beta virt. eigenvalues --   24.05043  24.96075  49.96045  49.99026  50.10465
          Condensed to atoms (all electrons):
               1          2          3          4          5          6
     1  O    8.132446   0.258841  -0.149005  -0.029588  -0.074360   0.158872
     2  H    0.258841   0.482381   0.182952   0.006548  -0.038926  -0.145388
     3  C   -0.149005   0.182952  16.111946   0.695859  -3.815509  -5.090607
     4  H   -0.029588   0.006548   0.695859   0.416917  -0.219842  -0.072923
     5  C   -0.074360  -0.038926  -3.815509  -0.219842  11.318690  -2.267668
     6  C    0.158872  -0.145388  -5.090607  -0.072923  -2.267668  12.834125
     7  O   -0.002094   0.001474   0.014763   0.000452   0.076924   0.241373
     8  O    0.012734   0.008695   0.087408   0.000308  -0.374329   0.094615
     9  C    0.004100  -0.003585  -0.234228  -0.000086  -0.419785   0.455896
    10  C   -0.003259   0.001956   0.058895   0.000158   0.070166  -0.196507
    11  H    0.000289  -0.001685  -0.005988   0.000059  -0.002983   0.023378
    12  H    0.000304  -0.000451   0.005699  -0.000033  -0.024033   0.009109
    13  H   -0.000099   0.000119  -0.000236   0.000010   0.008117  -0.002934
    14  H    0.000718  -0.000830   0.001056   0.000014  -0.009705   0.009173
    15  H    0.000227  -0.000235  -0.013605  -0.000033  -0.055582   0.049022
               7          8          9         10         11         12
     1  O   -0.002094   0.012734   0.004100  -0.003259   0.000289   0.000304
     2  H    0.001474   0.008695  -0.003585   0.001956  -0.001685  -0.000451
     3  C    0.014763   0.087408  -0.234228   0.058895  -0.005988   0.005699
     4  H    0.000452   0.000308  -0.000086   0.000158   0.000059  -0.000033
     5  C    0.076924  -0.374329  -0.419785   0.070166  -0.002983  -0.024033
     6  C    0.241373   0.094615   0.455896  -0.196507   0.023378   0.009109
     7  O    8.030306  -0.137929   0.060955  -0.065624   0.004708  -0.021796
     8  O   -0.137929   8.385040   0.123048  -0.049993  -0.087234  -0.014939
     9  C    0.060955   0.123048   5.516819   0.000521   0.447423   0.405430
    10  C   -0.065624  -0.049993   0.000521   5.481758  -0.071816  -0.019382
    11  H    0.004708  -0.087234   0.447423  -0.071816   0.526928  -0.034215
    12  H   -0.021796  -0.014939   0.405430  -0.019382  -0.034215   0.508542
    13  H   -0.000616   0.015184  -0.048815   0.405295  -0.001790  -0.005048
    14  H    0.000741  -0.004782  -0.025376   0.407207  -0.009282   0.004694
    15  H    0.005359  -0.020844   0.013373   0.372978   0.012119  -0.010731
              13         14         15
     1  O   -0.000099   0.000718   0.000227
     2  H    0.000119  -0.000830  -0.000235
     3  C   -0.000236   0.001056  -0.013605
     4  H    0.000010   0.000014  -0.000033
     5  C    0.008117  -0.009705  -0.055582
     6  C   -0.002934   0.009173   0.049022
     7  O   -0.000616   0.000741   0.005359
     8  O    0.015184  -0.004782  -0.020844
     9  C   -0.048815  -0.025376   0.013373
    10  C    0.405295   0.407207   0.372978
    11  H   -0.001790  -0.009282   0.012119
    12  H   -0.005048   0.004694  -0.010731
    13  H    0.527627  -0.032106  -0.032058
    14  H   -0.032106   0.538630  -0.046434
    15  H   -0.032058  -0.046434   0.543073
          Atomic-Atomic Spin Densities.
               1          2          3          4          5          6
     1  O    0.834499   0.000923  -0.106785   0.001601  -0.129785   0.103657
     2  H    0.000923  -0.024746   0.002977  -0.000549   0.034040  -0.019966
     3  C   -0.106785   0.002977  -0.187419   0.056145   0.253523  -0.219011
     4  H    0.001601  -0.000549   0.056145   0.016164  -0.044390  -0.004197
     5  C   -0.129785   0.034040   0.253523  -0.044390   1.472452  -1.057306
     6  C    0.103657  -0.019966  -0.219011  -0.004197  -1.057306   1.162941
     7  O   -0.001591   0.000654   0.010278  -0.000479   0.047557  -0.060413
     8  O    0.007719  -0.002805  -0.033166   0.000020  -0.132019   0.149325
     9  C    0.004425  -0.002615   0.002093   0.000266  -0.081443   0.055967
    10  C   -0.001131   0.001075   0.000815  -0.000251   0.031690  -0.015893
    11  H    0.000545  -0.000502   0.000297   0.000052  -0.011315   0.007184
    12  H    0.000118  -0.000116  -0.002415   0.000037  -0.012753   0.012325
    13  H   -0.000019   0.000034   0.000656  -0.000013   0.003743  -0.002520
    14  H    0.000033  -0.000150  -0.000397   0.000023  -0.003141   0.002076
    15  H    0.000070  -0.000040  -0.000346   0.000019  -0.005733   0.004406
               7          8          9         10         11         12
     1  O   -0.001591   0.007719   0.004425  -0.001131   0.000545   0.000118
     2  H    0.000654  -0.002805  -0.002615   0.001075  -0.000502  -0.000116
     3  C    0.010278  -0.033166   0.002093   0.000815   0.000297  -0.002415
     4  H   -0.000479   0.000020   0.000266  -0.000251   0.000052   0.000037
     5  C    0.047557  -0.132019  -0.081443   0.031690  -0.011315  -0.012753
     6  C   -0.060413   0.149325   0.055967  -0.015893   0.007184   0.012325
     7  O    0.028904  -0.007981  -0.007197   0.002806  -0.000571  -0.000672
     8  O   -0.007981   0.004779   0.013622  -0.003751   0.001093   0.000372
     9  C   -0.007197   0.013622   0.018714  -0.009846   0.003271   0.003146
    10  C    0.002806  -0.003751  -0.009846   0.000324  -0.002919  -0.001235
    11  H   -0.000571   0.001093   0.003271  -0.002919   0.002155   0.000647
    12  H   -0.000672   0.000372   0.003146  -0.001235   0.000647   0.000346
    13  H    0.000212   0.000221  -0.001320  -0.000168  -0.000438  -0.000209
    14  H   -0.000129   0.000013   0.001048   0.000129   0.000346   0.000101
    15  H   -0.000319   0.000329   0.001735  -0.000581   0.000331   0.000203
              13         14         15
     1  O   -0.000019   0.000033   0.000070
     2  H    0.000034  -0.000150  -0.000040
     3  C    0.000656  -0.000397  -0.000346
     4  H   -0.000013   0.000023   0.000019
     5  C    0.003743  -0.003141  -0.005733
     6  C   -0.002520   0.002076   0.004406
     7  O    0.000212  -0.000129  -0.000319
     8  O    0.000221   0.000013   0.000329
     9  C   -0.001320   0.001048   0.001735
    10  C   -0.000168   0.000129  -0.000581
    11  H   -0.000438   0.000346   0.000331
    12  H   -0.000209   0.000101   0.000203
    13  H    0.000097   0.000052  -0.000126
    14  H    0.000052  -0.000140  -0.000025
    15  H   -0.000126  -0.000025   0.000316
 Mulliken charges and spin densities:
               1          2
     1  O   -0.310128   0.714279
     2  H    0.248134  -0.011786
     3  C   -1.849402  -0.222753
     4  H    0.202182   0.024449
     5  C    1.828824   0.365119
     6  C   -0.099536   0.118576
     7  O   -0.208995   0.011060
     8  O   -0.036980  -0.002229
     9  C   -0.295688   0.001867
    10  C   -0.392354   0.001066
    11  H    0.200089   0.000177
    12  H    0.196849  -0.000105
    13  H    0.167351   0.000202
    14  H    0.166281  -0.000159
    15  H    0.183371   0.000239
 Sum of Mulliken charges =  -0.00000   1.00000
 Mulliken charges and spin densities with hydrogens summed into heavy atoms:
               1          2
     1  O   -0.061993   0.702493
     3  C   -1.647220  -0.198304
     5  C    1.828824   0.365119
     6  C   -0.099536   0.118576
     7  O   -0.208995   0.011060
     8  O   -0.036980  -0.002229
     9  C    0.101251   0.001938
    10  C    0.124650   0.001348
 APT charges:
               1
     1  O   -0.161435
     2  H    0.258685
     3  C   -0.407820
     4  H    0.249743
     5  C   -0.205893
     6  C    1.455075
     7  O   -0.780701
     8  O   -0.938967
     9  C    0.542368
    10  C   -0.044273
    11  H   -0.011645
    12  H   -0.011346
    13  H    0.012557
    14  H    0.011648
    15  H    0.032002
 Sum of APT charges =   0.00000
 APT charges with hydrogens summed into heavy atoms:
               1
     1  O    0.097251
     3  C   -0.158077
     5  C   -0.205893
     6  C    1.455075
     7  O   -0.780701
     8  O   -0.938967
     9  C    0.519377
    10  C    0.011934
 Electronic spatial extent (au):  <R**2>=           1225.1433
 Charge=             -0.0000 electrons
 Dipole moment (field-independent basis, Debye):
    X=             -1.9192    Y=             -0.9660    Z=             -0.1989  Tot=              2.1578
 Quadrupole moment (field-independent basis, Debye-Ang):
   XX=            -43.7947   YY=            -52.4049   ZZ=            -47.4140
   XY=              9.9578   XZ=              1.7497   YZ=              1.0578
 Traceless Quadrupole moment (field-independent basis, Debye-Ang):
   XX=              4.0765   YY=             -4.5337   ZZ=              0.4572
   XY=              9.9578   XZ=              1.7497   YZ=              1.0578
 Octapole moment (field-independent basis, Debye-Ang**2):
  XXX=             -8.6000  YYY=            -18.5496  ZZZ=             -3.3347  XYY=             -2.2971
  XXY=             18.0971  XXZ=              2.7886  XZZ=             -4.6194  YZZ=             -0.2248
  YYZ=             -2.2660  XYZ=              1.2720
 Hexadecapole moment (field-independent basis, Debye-Ang**3):
 XXXX=          -1057.8246 YYYY=           -349.4290 ZZZZ=           -112.8938 XXXY=             86.3010
 XXXZ=             30.0759 YYYX=             -3.6493 YYYZ=              4.9597 ZZZX=              3.0653
 ZZZY=              0.0633 XXYY=           -267.9106 XXZZ=           -214.5852 YYZZ=            -73.2631
 XXYZ=              8.9381 YYXZ=             -0.8923 ZZXY=             -2.8349
 N-N= 3.520521407340D+02 E-N=-1.688384023083D+03  KE= 4.187972015005D+02
  Exact polarizability:  96.439 -10.857  82.432   2.352   2.174  50.207
 Approx polarizability: 104.854 -16.919  94.424   4.800   2.315  57.934
                          Isotropic Fermi Contact Couplings
        Atom                 a.u.       MegaHertz       Gauss      10(-4) cm-1
     1  O(17)              0.11689     -70.85762     -25.28376     -23.63556
     2  H(1)              -0.01232     -55.04707     -19.64216     -18.36173
     3  C(13)              0.00629       7.06656       2.52152       2.35715
     4  H(1)               0.00930      41.58536      14.83869      13.87138
     5  C(13)              0.06511      73.19561      26.11802      24.41543
     6  C(13)             -0.01723     -19.37412      -6.91317      -6.46251
     7  O(17)              0.01011      -6.12908      -2.18701      -2.04444
     8  O(17)              0.02288     -13.87003      -4.94917      -4.62654
     9  C(13)              0.00303       3.40322       1.21435       1.13519
    10  C(13)             -0.00004      -0.04347      -0.01551      -0.01450
    11  H(1)               0.00008       0.35387       0.12627       0.11804
    12  H(1)              -0.00005      -0.22040      -0.07864      -0.07352
    13  H(1)               0.00007       0.30094       0.10738       0.10038
    14  H(1)               0.00001       0.05452       0.01945       0.01819
    15  H(1)              -0.00000      -0.01567      -0.00559      -0.00523
 --------------------------------------------------------
       Center         ----  Spin Dipole Couplings  ----
                      3XX-RR        3YY-RR        3ZZ-RR
 --------------------------------------------------------
     1   Atom       -1.002502      2.410178     -1.407676
     2   Atom        0.109240     -0.017611     -0.091629
     3   Atom        0.110432     -0.070081     -0.040352
     4   Atom       -0.007748      0.011499     -0.003750
     5   Atom       -0.294093      0.482473     -0.188380
     6   Atom        0.011063      0.001644     -0.012706
     7   Atom        0.051449     -0.042123     -0.009325
     8   Atom        0.021830     -0.014495     -0.007335
     9   Atom        0.007023     -0.002864     -0.004159
    10   Atom        0.002167     -0.000972     -0.001195
    11   Atom        0.001876     -0.000541     -0.001335
    12   Atom        0.002244     -0.001070     -0.001174
    13   Atom        0.001283     -0.000586     -0.000697
    14   Atom        0.001661     -0.000760     -0.000902
    15   Atom        0.002008     -0.001027     -0.000981
 --------------------------------------------------------
                        XY            XZ            YZ
 --------------------------------------------------------
     1   Atom       -1.296941     -0.107324      0.314123
     2   Atom        0.049692      0.042955      0.020282
     3   Atom        0.010134      0.025134     -0.001180
     4   Atom        0.006768      0.000406      0.003166
     5   Atom       -0.005774     -0.015353      0.090724
     6   Atom       -0.003974      0.003227      0.001462
     7   Atom        0.012290      0.010166     -0.002827
     8   Atom        0.012311      0.006665      0.000848
     9   Atom        0.003179      0.001718      0.000482
    10   Atom        0.000411     -0.000732     -0.000111
    11   Atom        0.001012      0.000997      0.000651
    12   Atom       -0.000189      0.001559     -0.000094
    13   Atom        0.000284     -0.000206     -0.000019
    14   Atom        0.000757     -0.000965     -0.000342
    15   Atom        0.000006     -0.001034     -0.000041
 --------------------------------------------------------


 ---------------------------------------------------------------------------------
              Anisotropic Spin Dipole Couplings in Principal Axis System
 ---------------------------------------------------------------------------------

       Atom             a.u.   MegaHertz   Gauss  10(-4) cm-1        Axes

              Baa    -1.4398   104.180    37.174    34.751  0.9303  0.2957  0.2169
     1 O(17)  Bbb    -1.4331   103.698    37.002    34.590 -0.1821 -0.1410  0.9731
              Bcc     2.8729  -207.878   -74.176   -69.341 -0.3183  0.9448  0.0773
 
              Baa    -0.1018   -54.315   -19.381   -18.117 -0.1665 -0.1370  0.9765
     2 H(1)   Bbb    -0.0344   -18.346    -6.546    -6.120 -0.3454  0.9357  0.0724
              Bcc     0.1362    72.661    25.927    24.237  0.9236  0.3252  0.2031
 
              Baa    -0.0709    -9.513    -3.395    -3.173 -0.0687  0.9931  0.0949
     3 C(13)  Bbb    -0.0441    -5.923    -2.113    -1.976 -0.1529 -0.1044  0.9827
              Bcc     0.1150    15.436     5.508     5.149  0.9858  0.0530  0.1591
 
              Baa    -0.0099    -5.307    -1.894    -1.770  0.9448 -0.3126  0.0978
     4 H(1)   Bbb    -0.0042    -2.265    -0.808    -0.755 -0.1460 -0.1344  0.9801
              Bcc     0.0142     7.572     2.702     2.526  0.2933  0.9403  0.1726
 
              Baa    -0.2963   -39.767   -14.190   -13.265  0.9888 -0.0100  0.1490
     5 C(13)  Bbb    -0.1983   -26.604    -9.493    -8.874 -0.1490 -0.1319  0.9800
              Bcc     0.4946    66.371    23.683    22.139 -0.0098  0.9912  0.1319
 
              Baa    -0.0134    -1.799    -0.642    -0.600 -0.1511 -0.1350  0.9793
     6 C(13)  Bbb     0.0006     0.085     0.030     0.028  0.3026  0.9368  0.1759
              Bcc     0.0128     1.714     0.612     0.572  0.9411 -0.3229  0.1007
 
              Baa    -0.0442     3.199     1.141     1.067 -0.1391  0.9830  0.1202
     7 O(17)  Bbb    -0.0103     0.746     0.266     0.249 -0.1339 -0.1389  0.9812
              Bcc     0.0545    -3.945    -1.408    -1.316  0.9812  0.1204  0.1509
 
              Baa    -0.0184     1.332     0.475     0.444 -0.3078  0.9447  0.1129
     8 O(17)  Bbb    -0.0085     0.614     0.219     0.205 -0.1476 -0.1647  0.9753
              Bcc     0.0269    -1.946    -0.694    -0.649  0.9399  0.2835  0.1901
 
              Baa    -0.0044    -0.593    -0.211    -0.198 -0.1467 -0.0065  0.9892
     9 C(13)  Bbb    -0.0038    -0.510    -0.182    -0.170 -0.2766  0.9604 -0.0347
              Bcc     0.0082     1.102     0.393     0.368  0.9497  0.2787  0.1427
 
              Baa    -0.0013    -0.181    -0.065    -0.060  0.1945  0.0773  0.9779
    10 C(13)  Bbb    -0.0010    -0.137    -0.049    -0.046 -0.1390  0.9890 -0.0505
              Bcc     0.0024     0.318     0.114     0.106  0.9710  0.1261 -0.2031
 
              Baa    -0.0018    -0.938    -0.335    -0.313 -0.1498 -0.3669  0.9181
    11 H(1)   Bbb    -0.0008    -0.443    -0.158    -0.148 -0.4241  0.8627  0.2755
              Bcc     0.0026     1.381     0.493     0.461  0.8931  0.3481  0.2848
 
              Baa    -0.0018    -0.949    -0.339    -0.317 -0.3601  0.0276  0.9325
    12 H(1)   Bbb    -0.0011    -0.577    -0.206    -0.192  0.0597  0.9982 -0.0065
              Bcc     0.0029     1.526     0.544     0.509  0.9310 -0.0533  0.3611
 
              Baa    -0.0007    -0.384    -0.137    -0.128  0.1173 -0.1117  0.9868
    13 H(1)   Bbb    -0.0006    -0.334    -0.119    -0.112 -0.1326  0.9830  0.1271
              Bcc     0.0013     0.718     0.256     0.240  0.9842  0.1457 -0.1005
 
              Baa    -0.0012    -0.667    -0.238    -0.222  0.2333  0.2873  0.9290
    14 H(1)   Bbb    -0.0010    -0.515    -0.184    -0.172 -0.3385  0.9196 -0.1994
              Bcc     0.0022     1.181     0.422     0.394  0.9116  0.2679 -0.3118
 
              Baa    -0.0013    -0.698    -0.249    -0.233  0.2948  0.1298  0.9467
    15 H(1)   Bbb    -0.0010    -0.545    -0.195    -0.182 -0.0437  0.9915 -0.1224
              Bcc     0.0023     1.244     0.444     0.415  0.9546  0.0053 -0.2980
 

 ---------------------------------------------------------------------------------

 Calling FoFJK, ICntrl=    100127 FMM=F ISym2X=0 I1Cent= 0 IOpClX= 1 NMat=1 NMatS=1 NMatT=0.
 Full mass-weighted force constant matrix:
 Low frequencies --- -692.0603   -0.0008    0.0004    0.0007    4.4188    7.9000
 Low frequencies ---   15.3515   56.4058   66.4780
 ******    1 imaginary frequencies (negative Signs) ****** 
 Diagonal vibrational polarizability:
       27.7338926      21.4445125      85.2881806
 Harmonic frequencies (cm**-1), IR intensities (KM/Mole), Raman scattering
 activities (A**4/AMU), depolarization ratios for plane and unpolarized
 incident light, reduced masses (AMU), force constants (mDyne/A),
 and normal coordinates:
                      1                      2                      3
                      A                      A                      A
 Frequencies --   -692.0603                51.3975                63.9218
 Red. masses --     10.9719                 4.7086                 6.1149
 Frc consts  --      3.0961                 0.0073                 0.0147
 IR Inten    --    100.9759                 1.5014                 2.1572
  Atom  AN      X      Y      Z        X      Y      Z        X      Y      Z
     1   8     0.04  -0.48  -0.06    -0.18  -0.08   0.24     0.38   0.05   0.18
     2   1    -0.04  -0.27  -0.05    -0.18  -0.00   0.14     0.46  -0.16   0.12
     3   6    -0.04   0.76   0.10    -0.01  -0.02  -0.09     0.01   0.03  -0.11
     4   1     0.11  -0.30  -0.02     0.01  -0.07  -0.11    -0.01   0.21  -0.15
     5   6    -0.00  -0.08  -0.01     0.01   0.06  -0.13    -0.02  -0.17  -0.12
     6   6     0.00   0.01   0.00     0.00   0.07  -0.07    -0.04  -0.09  -0.02
     7   8    -0.00  -0.00  -0.00    -0.02   0.05   0.10     0.03  -0.04   0.15
     8   8    -0.01  -0.00  -0.00     0.02   0.09  -0.20    -0.15  -0.02  -0.13
     9   6     0.00   0.00   0.00    -0.01   0.06  -0.03    -0.19   0.12  -0.04
    10   6    -0.00   0.00   0.00     0.20  -0.20   0.09    -0.10   0.06   0.01
    11   1    -0.01   0.00  -0.00    -0.04   0.15  -0.18    -0.31   0.18  -0.13
    12   1    -0.00   0.00   0.00    -0.14   0.16   0.17    -0.16   0.22   0.07
    13   1    -0.00   0.00   0.00     0.17  -0.20   0.22    -0.13   0.18   0.07
    14   1    -0.00   0.00   0.00     0.33  -0.30  -0.11    -0.12  -0.04  -0.09
    15   1     0.00  -0.00   0.00     0.24  -0.28   0.24     0.03   0.00   0.10
                      4                      5                      6
                      A                      A                      A
 Frequencies --     93.0990               116.4318               210.1989
 Red. masses --      4.0089                 3.2470                 1.4666
 Frc consts  --      0.0205                 0.0259                 0.0382
 IR Inten    --      4.5171                 0.6204                 3.7524
  Atom  AN      X      Y      Z        X      Y      Z        X      Y      Z
     1   8     0.09   0.01  -0.09    -0.03   0.02  -0.01    -0.07   0.07  -0.01
     2   1     0.13  -0.02  -0.22     0.01   0.05  -0.21    -0.10   0.09   0.08
     3   6    -0.07  -0.05   0.27    -0.04   0.01   0.09     0.02   0.06   0.01
     4   1    -0.11  -0.05   0.50    -0.06   0.00   0.19     0.02   0.08  -0.01
     5   6    -0.04  -0.06   0.09    -0.03  -0.00   0.01     0.01  -0.01   0.01
     6   6    -0.02   0.01  -0.10    -0.02  -0.05  -0.03     0.02  -0.07  -0.00
     7   8     0.04   0.06  -0.21    -0.09  -0.10   0.12     0.01  -0.08  -0.01
     8   8    -0.06   0.03  -0.09     0.04  -0.04  -0.20     0.01  -0.07  -0.00
     9   6    -0.09   0.06   0.04     0.02  -0.08  -0.02    -0.00   0.04  -0.01
    10   6     0.11  -0.08   0.15     0.14   0.24   0.05     0.02   0.03   0.01
    11   1    -0.16   0.12  -0.05    -0.03  -0.20   0.21    -0.09   0.08  -0.07
    12   1    -0.17   0.14   0.18    -0.03  -0.23  -0.19     0.06   0.11   0.05
    13   1     0.07  -0.01   0.30     0.13   0.12   0.19    -0.08   0.59  -0.02
    14   1     0.18  -0.18  -0.01     0.24   0.43   0.23    -0.34  -0.31  -0.20
    15   1     0.23  -0.15   0.26     0.12   0.38  -0.21     0.47  -0.13   0.24
                      7                      8                      9
                      A                      A                      A
 Frequencies --    230.2818               256.3739               270.1023
 Red. masses --      1.1803                 2.6940                 3.2225
 Frc consts  --      0.0369                 0.1043                 0.1385
 IR Inten    --     80.2803                 6.3900                21.0632
  Atom  AN      X      Y      Z        X      Y      Z        X      Y      Z
     1   8     0.02  -0.01  -0.05    -0.13   0.13  -0.02    -0.03   0.02   0.05
     2   1    -0.14  -0.16   0.96    -0.20   0.16   0.24     0.06   0.09  -0.50
     3   6    -0.01  -0.01  -0.02     0.08   0.11   0.06     0.03   0.04  -0.18
     4   1     0.00   0.00  -0.11     0.06   0.14   0.13     0.09   0.12  -0.60
     5   6    -0.02  -0.01   0.08     0.06  -0.09  -0.05    -0.06  -0.08   0.33
     6   6    -0.01   0.01   0.01     0.07  -0.10  -0.03    -0.02  -0.05   0.10
     7   8    -0.02   0.00  -0.01     0.15  -0.05   0.02     0.02  -0.01  -0.10
     8   8     0.00   0.01  -0.03    -0.04  -0.06  -0.03    -0.02  -0.02  -0.03
     9   6     0.00   0.00  -0.02    -0.07   0.05   0.01    -0.02   0.05  -0.05
    10   6     0.04   0.01   0.00    -0.06  -0.03   0.02     0.08   0.01   0.00
    11   1    -0.00  -0.00  -0.01    -0.14   0.09  -0.06    -0.07   0.07  -0.09
    12   1    -0.01  -0.00  -0.02    -0.04   0.12   0.07    -0.01   0.09  -0.00
    13   1     0.04  -0.01   0.04     0.02  -0.52   0.05     0.09  -0.16   0.13
    14   1     0.08   0.03   0.00     0.27   0.24   0.14     0.27   0.11   0.00
    15   1     0.04   0.02  -0.02    -0.46   0.09  -0.13    -0.00   0.05  -0.05
                     10                     11                     12
                      A                      A                      A
 Frequencies --    337.6860               422.5072               569.1957
 Red. masses --      3.0279                 3.9191                 5.3105
 Frc consts  --      0.2034                 0.4122                 1.0137
 IR Inten    --      8.2451                 2.0707                 2.6219
  Atom  AN      X      Y      Z        X      Y      Z        X      Y      Z
     1   8     0.03  -0.04  -0.00    -0.02   0.04  -0.00     0.04  -0.07  -0.00
     2   1     0.04  -0.07  -0.01    -0.01  -0.00  -0.01     0.00   0.02   0.00
     3   6    -0.03  -0.04   0.02    -0.09   0.02   0.01     0.11  -0.02   0.02
     4   1    -0.03  -0.07   0.08    -0.12   0.08   0.12     0.13  -0.13   0.02
     5   6     0.00   0.10  -0.06    -0.08  -0.16  -0.14     0.15   0.44   0.06
     6   6    -0.00  -0.04   0.01    -0.07  -0.02   0.06     0.04  -0.06   0.03
     7   8    -0.16  -0.16  -0.05     0.07   0.09   0.04     0.07  -0.04   0.00
     8   8     0.05  -0.07   0.10    -0.11  -0.03   0.23    -0.15  -0.05   0.04
     9   6     0.03   0.24  -0.02     0.00  -0.04  -0.17    -0.25  -0.10  -0.15
    10   6     0.06   0.04  -0.01     0.22   0.03  -0.09    -0.00  -0.01  -0.01
    11   1    -0.14   0.39  -0.27     0.07  -0.05  -0.16    -0.14  -0.16  -0.06
    12   1     0.21   0.48   0.20     0.10  -0.02  -0.19    -0.23  -0.15  -0.22
    13   1     0.11  -0.28   0.04     0.15   0.06   0.33    -0.09   0.04   0.47
    14   1     0.33   0.14  -0.05     0.47   0.09  -0.17     0.26   0.04  -0.10
    15   1    -0.19   0.05   0.00     0.47   0.07  -0.19     0.30   0.02  -0.13
                     13                     14                     15
                      A                      A                      A
 Frequencies --    593.3745               771.9310               784.0072
 Red. masses --      6.9379                 2.3454                 2.3153
 Frc consts  --      1.4393                 0.8234                 0.8385
 IR Inten    --      7.0894                 0.5613                57.1103
  Atom  AN      X      Y      Z        X      Y      Z        X      Y      Z
     1   8     0.02  -0.03   0.00    -0.00  -0.00   0.01    -0.00   0.00   0.01
     2   1     0.10  -0.28  -0.03    -0.00   0.00   0.01     0.00  -0.04   0.04
     3   6    -0.36  -0.00  -0.06     0.03   0.02  -0.17     0.01   0.02  -0.13
     4   1    -0.38   0.08  -0.06    -0.14  -0.12   0.91    -0.15  -0.11   0.89
     5   6    -0.27   0.27   0.01    -0.02  -0.02   0.15     0.00   0.01  -0.05
     6   6    -0.00  -0.13  -0.04     0.03   0.04  -0.23    -0.04  -0.05   0.28
     7   8     0.32   0.09   0.06    -0.01  -0.00   0.07     0.02  -0.00  -0.08
     8   8     0.10  -0.20  -0.05    -0.01  -0.01   0.06     0.00   0.02  -0.07
     9   6     0.09   0.02   0.06    -0.01  -0.01  -0.00     0.01   0.02   0.00
    10   6    -0.01   0.01   0.01    -0.00  -0.00  -0.01     0.00   0.01   0.01
    11   1    -0.15   0.13  -0.12    -0.01   0.02  -0.06     0.02  -0.04   0.12
    12   1     0.21   0.20   0.22     0.02   0.03   0.04    -0.03  -0.07  -0.09
    13   1     0.03  -0.03  -0.20    -0.01   0.01   0.04     0.02  -0.03  -0.06
    14   1    -0.12   0.03   0.10     0.02   0.02   0.01    -0.00  -0.05  -0.05
    15   1    -0.16   0.02   0.01     0.04   0.02  -0.05    -0.07  -0.04   0.10
                     16                     17                     18
                      A                      A                      A
 Frequencies --    800.6259               813.5826               873.5825
 Red. masses --      1.2481                 1.1229                 1.2570
 Frc consts  --      0.4714                 0.4379                 0.5652
 IR Inten    --     28.0687               169.2180                14.7340
  Atom  AN      X      Y      Z        X      Y      Z        X      Y      Z
     1   8    -0.01   0.02   0.00     0.02  -0.08  -0.01     0.04   0.01   0.01
     2   1     0.06  -0.20  -0.02    -0.19   0.61   0.05    -0.16   0.65   0.06
     3   6    -0.03   0.00   0.00     0.01  -0.02  -0.00    -0.01   0.00  -0.00
     4   1    -0.01  -0.07  -0.07    -0.12   0.72   0.07     0.10  -0.64  -0.06
     5   6    -0.02   0.01   0.01    -0.01   0.01   0.00    -0.01  -0.02  -0.00
     6   6     0.04  -0.02  -0.05    -0.01  -0.01  -0.01    -0.04   0.02   0.00
     7   8     0.02  -0.05   0.01     0.00   0.00   0.00    -0.01   0.06   0.01
     8   8    -0.02   0.04   0.02     0.00  -0.00   0.00     0.05  -0.08  -0.01
     9   6     0.01   0.08   0.01     0.00   0.02   0.00    -0.02   0.01  -0.02
    10   6     0.01   0.03  -0.01     0.00   0.01  -0.00    -0.03   0.02   0.01
    11   1     0.09  -0.19   0.48     0.00  -0.03   0.09    -0.11  -0.03   0.06
    12   1     0.02  -0.26  -0.42     0.02  -0.04  -0.08     0.10  -0.01  -0.11
    13   1     0.05  -0.17  -0.04     0.02  -0.04  -0.03    -0.03  -0.07   0.09
    14   1     0.17  -0.18  -0.36     0.03  -0.04  -0.08     0.09  -0.05  -0.13
    15   1    -0.13  -0.17   0.38    -0.04  -0.03   0.09    -0.04  -0.05   0.15
                     19                     20                     21
                      A                      A                      A
 Frequencies --    896.0722               929.8007              1070.5125
 Red. masses --      2.1180                 2.7819                 4.0708
 Frc consts  --      1.0020                 1.4170                 2.7486
 IR Inten    --      4.2182                 2.2978                23.0018
  Atom  AN      X      Y      Z        X      Y      Z        X      Y      Z
     1   8    -0.03  -0.00  -0.00     0.01   0.00   0.00    -0.00  -0.01  -0.00
     2   1     0.12  -0.50  -0.05    -0.07   0.28   0.03    -0.00   0.00  -0.00
     3   6     0.04  -0.00   0.01    -0.13   0.00  -0.02     0.08  -0.00   0.01
     4   1    -0.03   0.42   0.05    -0.12  -0.12  -0.03     0.09  -0.04   0.01
     5   6     0.02  -0.03  -0.00    -0.08  -0.03  -0.02     0.03   0.05   0.01
     6   6    -0.02   0.07   0.01     0.14  -0.01   0.02    -0.14  -0.08  -0.04
     7   8    -0.04   0.09   0.01     0.04  -0.14  -0.01     0.01   0.03   0.01
     8   8     0.15  -0.11  -0.01     0.09   0.17   0.02    -0.21  -0.02  -0.04
     9   6    -0.06  -0.01  -0.09    -0.01   0.01  -0.09     0.35   0.03  -0.13
    10   6    -0.12   0.02   0.06    -0.14  -0.05   0.07    -0.11  -0.00   0.17
    11   1    -0.12  -0.03  -0.03     0.38   0.03  -0.19     0.36   0.08  -0.24
    12   1     0.20   0.01  -0.20    -0.03  -0.01  -0.10     0.46   0.02  -0.22
    13   1    -0.17  -0.08   0.47    -0.26   0.10   0.60    -0.14  -0.00   0.34
    14   1     0.20  -0.02  -0.16     0.08   0.12   0.14    -0.06   0.05   0.22
    15   1     0.05  -0.07   0.20     0.24   0.04  -0.14    -0.06  -0.05   0.26
                     22                     23                     24
                      A                      A                      A
 Frequencies --   1127.2317              1202.6108              1260.4940
 Red. masses --      2.0643                 1.7816                 5.5887
 Frc consts  --      1.5454                 1.5182                 5.2317
 IR Inten    --     21.6299                11.2484               572.4686
  Atom  AN      X      Y      Z        X      Y      Z        X      Y      Z
     1   8     0.00  -0.00  -0.00    -0.00  -0.00  -0.00     0.00   0.01   0.00
     2   1    -0.00   0.01   0.00     0.00  -0.00   0.00    -0.02   0.05   0.00
     3   6     0.01  -0.00   0.00     0.02  -0.00   0.00    -0.11  -0.00  -0.02
     4   1     0.01  -0.00   0.00     0.03  -0.01   0.00    -0.14   0.08  -0.01
     5   6     0.00   0.01   0.00     0.00   0.00   0.00    -0.01  -0.03  -0.01
     6   6    -0.02  -0.01   0.00    -0.06  -0.03  -0.02     0.39   0.32   0.10
     7   8     0.00   0.01  -0.00    -0.01   0.04   0.01    -0.06  -0.02  -0.01
     8   8    -0.04  -0.01  -0.05     0.03  -0.07   0.00    -0.19  -0.20  -0.04
     9   6     0.07   0.01   0.22    -0.03   0.19   0.01     0.13   0.04  -0.03
    10   6    -0.09  -0.01  -0.17     0.02  -0.14  -0.00     0.00  -0.07  -0.00
    11   1     0.04   0.06   0.14     0.31  -0.04   0.39    -0.60  -0.06   0.22
    12   1     0.16   0.03   0.21    -0.20  -0.18  -0.35    -0.04  -0.13  -0.18
    13   1    -0.18  -0.01   0.46    -0.07   0.28   0.02    -0.05   0.12   0.06
    14   1     0.45   0.11  -0.33    -0.10   0.14   0.39    -0.07   0.11   0.26
    15   1     0.44  -0.03  -0.21     0.13   0.10  -0.45     0.03  -0.01  -0.11
                     25                     26                     27
                      A                      A                      A
 Frequencies --   1345.7289              1402.1277              1431.2385
 Red. masses --      1.1551                 1.2529                 1.3528
 Frc consts  --      1.2325                 1.4513                 1.6328
 IR Inten    --     39.9587                14.9919                 8.4125
  Atom  AN      X      Y      Z        X      Y      Z        X      Y      Z
     1   8    -0.00  -0.00  -0.00    -0.00  -0.00  -0.00     0.00   0.00   0.00
     2   1     0.00  -0.01   0.00     0.00   0.00   0.00     0.00  -0.00  -0.00
     3   6     0.00   0.00   0.00     0.01  -0.00   0.00    -0.01   0.00  -0.00
     4   1     0.01  -0.01   0.00     0.01  -0.00   0.00    -0.01   0.00  -0.00
     5   6    -0.00   0.00   0.00    -0.00   0.00  -0.00     0.00  -0.00   0.00
     6   6    -0.02  -0.03  -0.01    -0.04  -0.02  -0.01     0.04   0.02   0.01
     7   8     0.01  -0.01  -0.00     0.01  -0.01   0.00    -0.01   0.01  -0.00
     8   8     0.01   0.07   0.00     0.02   0.03   0.02    -0.02  -0.02  -0.02
     9   6    -0.02  -0.01   0.00     0.06   0.01  -0.04    -0.09  -0.01   0.08
    10   6     0.01  -0.06   0.01     0.04  -0.00  -0.11     0.09   0.01  -0.07
    11   1    -0.60  -0.07   0.19    -0.37  -0.09   0.21     0.46   0.11  -0.22
    12   1     0.69   0.11  -0.21    -0.34   0.02   0.20     0.48   0.00  -0.22
    13   1    -0.00   0.07  -0.03    -0.08   0.02   0.50     0.00   0.00   0.36
    14   1    -0.05   0.02   0.14    -0.28   0.16   0.29    -0.36  -0.03   0.16
    15   1     0.04   0.04  -0.17    -0.21  -0.20   0.32    -0.32  -0.07   0.16
                     28                     29                     30
                      A                      A                      A
 Frequencies --   1493.6944              1503.0281              1514.9902
 Red. masses --      1.0403                 1.0621                 1.0804
 Frc consts  --      1.3676                 1.4136                 1.4610
 IR Inten    --     12.5689                 1.6068                17.0397
  Atom  AN      X      Y      Z        X      Y      Z        X      Y      Z
     1   8    -0.00   0.00  -0.00     0.00   0.00   0.00     0.00   0.00   0.00
     2   1     0.00  -0.00   0.00     0.00  -0.00   0.00    -0.00  -0.00   0.00
     3   6     0.00   0.00   0.00    -0.00   0.00  -0.00    -0.00   0.00  -0.00
     4   1     0.00  -0.00   0.00    -0.00   0.00  -0.00    -0.01   0.00  -0.00
     5   6    -0.00   0.00  -0.00     0.00  -0.00   0.00     0.00  -0.00   0.00
     6   6    -0.00   0.00  -0.00     0.01   0.00   0.00     0.02   0.00   0.00
     7   8     0.00  -0.00   0.00    -0.01   0.01   0.00    -0.01   0.01   0.00
     8   8     0.00   0.01   0.00    -0.01  -0.01  -0.01    -0.01  -0.01  -0.01
     9   6    -0.01  -0.02   0.01     0.00  -0.01  -0.05    -0.05  -0.01  -0.05
    10   6     0.00  -0.04  -0.01     0.02  -0.01   0.03    -0.03   0.00  -0.02
    11   1     0.00   0.05  -0.13     0.20  -0.26   0.39     0.30  -0.22   0.30
    12   1     0.02  -0.05  -0.03     0.09   0.36   0.37     0.21   0.33   0.24
    13   1    -0.10   0.64  -0.15    -0.06   0.22   0.18     0.05  -0.13  -0.25
    14   1     0.51   0.26   0.04     0.01  -0.25  -0.28     0.08   0.32   0.31
    15   1    -0.37  -0.13   0.24    -0.37   0.17  -0.26     0.34  -0.21   0.32
                     31                     32                     33
                      A                      A                      A
 Frequencies --   1844.6389              2092.8637              3075.6996
 Red. masses --     12.0382                 6.4727                 1.0354
 Frc consts  --     24.1344                16.7039                 5.7710
 IR Inten    --    398.8160                95.5966                 8.8040
  Atom  AN      X      Y      Z        X      Y      Z        X      Y      Z
     1   8    -0.00  -0.00  -0.00    -0.00   0.03   0.00     0.00   0.00  -0.00
     2   1     0.01  -0.04  -0.00    -0.01   0.03   0.00     0.00  -0.00   0.00
     3   6     0.09  -0.01   0.01    -0.39   0.02  -0.06     0.00   0.00   0.00
     4   1     0.13   0.01   0.02    -0.70   0.05  -0.10    -0.00  -0.00  -0.00
     5   6    -0.07   0.00  -0.01     0.56  -0.06   0.08    -0.00  -0.00  -0.00
     6   6    -0.47   0.63   0.02    -0.13   0.01  -0.02     0.00   0.00   0.00
     7   8     0.31  -0.42  -0.01     0.01  -0.01   0.00     0.00  -0.00  -0.00
     8   8     0.01  -0.06  -0.01    -0.00  -0.01  -0.00    -0.00  -0.00  -0.00
     9   6    -0.04   0.01  -0.00     0.00   0.00   0.00    -0.00   0.00  -0.00
    10   6     0.01   0.00   0.01    -0.00  -0.00   0.00    -0.03  -0.01   0.04
    11   1     0.18  -0.05   0.08     0.01   0.00   0.00    -0.00   0.01   0.01
    12   1     0.10   0.12   0.03    -0.00   0.00   0.00     0.01  -0.02   0.02
    13   1     0.02  -0.04  -0.05     0.00  -0.00   0.00     0.59   0.11   0.11
    14   1    -0.03  -0.02   0.00    -0.00  -0.00  -0.00    -0.22   0.43  -0.35
    15   1     0.04   0.03  -0.04     0.00   0.00  -0.00    -0.04  -0.46  -0.23
                     34                     35                     36
                      A                      A                      A
 Frequencies --   3109.0668              3151.1973              3155.8151
 Red. masses --      1.0606                 1.1018                 1.1048
 Frc consts  --      6.0402                 6.4460                 6.4827
 IR Inten    --     16.2187                12.6731                 2.3853
  Atom  AN      X      Y      Z        X      Y      Z        X      Y      Z
     1   8    -0.00  -0.00  -0.00    -0.00   0.00   0.00     0.00   0.00   0.00
     2   1    -0.00   0.00   0.00     0.00  -0.00  -0.00    -0.00  -0.00  -0.00
     3   6    -0.00  -0.00  -0.00     0.00   0.00   0.00     0.00  -0.00   0.00
     4   1     0.00   0.00  -0.00    -0.00  -0.00  -0.00    -0.00   0.00   0.00
     5   6     0.00   0.00   0.00    -0.00   0.00   0.00    -0.00  -0.00  -0.00
     6   6    -0.00  -0.00  -0.00     0.00   0.00  -0.00    -0.00   0.00  -0.00
     7   8    -0.00   0.00  -0.00     0.00  -0.00  -0.00     0.00  -0.00   0.00
     8   8     0.00   0.00   0.00     0.00  -0.00   0.00     0.00  -0.00  -0.00
     9   6     0.02  -0.01   0.06    -0.00  -0.03  -0.01    -0.01   0.05  -0.00
    10   6    -0.01  -0.00  -0.01    -0.07   0.04  -0.04    -0.04  -0.06  -0.03
    11   1    -0.04  -0.50  -0.26     0.02   0.27   0.15    -0.03  -0.35  -0.19
    12   1    -0.25   0.61  -0.47    -0.02   0.04  -0.03     0.11  -0.27   0.22
    13   1     0.13   0.03   0.03     0.61   0.13   0.11     0.43   0.07   0.08
    14   1     0.02  -0.05   0.03     0.24  -0.51   0.41    -0.06   0.09  -0.08
    15   1    -0.00   0.02   0.01    -0.02  -0.05  -0.04     0.05   0.61   0.32
                     37                     38                     39
                      A                      A                      A
 Frequencies --   3176.2904              3437.4816              3794.3793
 Red. masses --      1.1077                 1.1442                 1.0678
 Frc consts  --      6.5842                 7.9656                 9.0582
 IR Inten    --     11.4425                66.6491                36.8111
  Atom  AN      X      Y      Z        X      Y      Z        X      Y      Z
     1   8    -0.00  -0.00  -0.00     0.00   0.00   0.00    -0.06  -0.02  -0.01
     2   1     0.00  -0.00   0.00    -0.00   0.00  -0.00     0.94   0.27   0.20
     3   6     0.00   0.00   0.00    -0.11  -0.01  -0.02    -0.00   0.00   0.00
     4   1    -0.00  -0.00  -0.00     0.97   0.15   0.17     0.00   0.00   0.00
     5   6    -0.00   0.00   0.00     0.03  -0.00   0.00     0.00  -0.00   0.00
     6   6     0.00  -0.00  -0.00    -0.00  -0.00  -0.00     0.00   0.00   0.00
     7   8    -0.00   0.00   0.00     0.00   0.00   0.00    -0.00  -0.00  -0.00
     8   8    -0.00   0.00   0.00     0.00   0.00   0.00    -0.00  -0.00  -0.00
     9   6     0.01  -0.08  -0.00    -0.00  -0.00  -0.00    -0.00  -0.00   0.00
    10   6     0.00  -0.06  -0.00     0.00  -0.00   0.00    -0.00   0.00  -0.00
    11   1     0.04   0.56   0.31     0.00   0.00   0.00    -0.00  -0.00  -0.00
    12   1    -0.14   0.33  -0.27     0.00   0.00  -0.00     0.00  -0.00   0.00
    13   1     0.08   0.01   0.01     0.00   0.00  -0.00     0.00  -0.00  -0.00
    14   1    -0.13   0.25  -0.21    -0.00   0.00  -0.00    -0.00  -0.00   0.00
    15   1     0.04   0.43   0.23    -0.00   0.00   0.00     0.00  -0.00  -0.00

 -------------------
 - Thermochemistry -
 -------------------
 Temperature   298.150 Kelvin.  Pressure   1.00000 Atm.
 Atom     1 has atomic number  8 and mass  15.99491
 Atom     2 has atomic number  1 and mass   1.00783
 Atom     3 has atomic number  6 and mass  12.00000
 Atom     4 has atomic number  1 and mass   1.00783
 Atom     5 has atomic number  6 and mass  12.00000
 Atom     6 has atomic number  6 and mass  12.00000
 Atom     7 has atomic number  8 and mass  15.99491
 Atom     8 has atomic number  8 and mass  15.99491
 Atom     9 has atomic number  6 and mass  12.00000
 Atom    10 has atomic number  6 and mass  12.00000
 Atom    11 has atomic number  1 and mass   1.00783
 Atom    12 has atomic number  1 and mass   1.00783
 Atom    13 has atomic number  1 and mass   1.00783
 Atom    14 has atomic number  1 and mass   1.00783
 Atom    15 has atomic number  1 and mass   1.00783
 Molecular mass:   115.03952 amu.
 Principal axes and moments of inertia in atomic units:
                           1         2         3
     Eigenvalues --   504.270541567.085851924.90690
           X            0.99962   0.02708  -0.00558
           Y           -0.02708   0.99963  -0.00029
           Z            0.00557   0.00044   0.99998
 This molecule is an asymmetric top.
 Rotational symmetry number  1.
 Warning -- assumption of classical behavior for rotation
           may cause significant error
 Rotational temperatures (Kelvin)      0.17176     0.05527     0.04500
 Rotational constants (GHZ):           3.57891     1.15165     0.93757
    1 imaginary frequencies ignored.
 Zero-point vibrational energy     294719.6 (Joules/Mol)
                                   70.43966 (Kcal/Mol)
 Warning -- explicit consideration of  12 degrees of freedom as
           vibrations may cause significant error
 Vibrational temperatures:     73.95    91.97   133.95   167.52   302.43
          (Kelvin)            331.32   368.86   388.62   485.85   607.89
                              818.95   853.73  1110.64  1128.01  1151.92
                             1170.56  1256.89  1289.25  1337.78  1540.23
                             1621.83  1730.29  1813.57  1936.20  2017.35
                             2059.23  2149.09  2162.52  2179.73  2654.02
                             3011.16  4425.25  4473.25  4533.87  4540.51
                             4569.97  4945.77  5459.27
 
 Zero-point correction=                           0.112253 (Hartree/Particle)
 Thermal correction to Energy=                    0.121780
 Thermal correction to Enthalpy=                  0.122725
 Thermal correction to Gibbs Free Energy=         0.076154
 Sum of electronic and zero-point Energies=           -420.092558
 Sum of electronic and thermal Energies=              -420.083031
 Sum of electronic and thermal Enthalpies=            -420.082086
 Sum of electronic and thermal Free Energies=         -420.128657
 
                     E (Thermal)             CV                S
                      KCal/Mol        Cal/Mol-Kelvin    Cal/Mol-Kelvin
 Total                   76.418             31.737             98.015
 Electronic               0.000              0.000              1.377
 Translational            0.889              2.981             40.136
 Rotational               0.889              2.981             28.810
 Vibrational             74.641             25.776             27.692
 Vibration     1          0.596              1.977              4.763
 Vibration     2          0.597              1.972              4.332
 Vibration     3          0.602              1.954              3.594
 Vibration     4          0.608              1.936              3.159
 Vibration     5          0.642              1.825              2.042
 Vibration     6          0.652              1.795              1.877
 Vibration     7          0.666              1.752              1.686
 Vibration     8          0.674              1.728              1.596
 Vibration     9          0.718              1.600              1.223
 Vibration    10          0.785              1.421              0.883
 Vibration    11          0.925              1.098              0.506
 Vibration    12          0.951              1.046              0.461
                       Q            Log10(Q)             Ln(Q)
 Total Bot       0.936334D-35        -35.028569        -80.656261
 Total V=0       0.401852D+17         16.604066         38.232275
 Vib (Bot)       0.218649D-48        -48.660252       -112.044371
 Vib (Bot)    1  0.402149D+01          0.604387          1.391652
 Vib (Bot)    2  0.322903D+01          0.509072          1.172182
 Vib (Bot)    3  0.220724D+01          0.343850          0.791744
 Vib (Bot)    4  0.175660D+01          0.244672          0.563378
 Vib (Bot)    5  0.944820D+00         -0.024651         -0.056761
 Vib (Bot)    6  0.855186D+00         -0.067939         -0.156436
 Vib (Bot)    7  0.758953D+00         -0.119785         -0.275815
 Vib (Bot)    8  0.715474D+00         -0.145406         -0.334810
 Vib (Bot)    9  0.550676D+00         -0.259104         -0.596608
 Vib (Bot)   10  0.414791D+00         -0.382171         -0.879981
 Vib (Bot)   11  0.270605D+00         -0.567664         -1.307094
 Vib (Bot)   12  0.253358D+00         -0.596266         -1.372953
 Vib (V=0)       0.938389D+03          2.972383          6.844165
 Vib (V=0)    1  0.455245D+01          0.658245          1.515666
 Vib (V=0)    2  0.376751D+01          0.576055          1.326415
 Vib (V=0)    3  0.276317D+01          0.441407          1.016377
 Vib (V=0)    4  0.232637D+01          0.366679          0.844310
 Vib (V=0)    5  0.156896D+01          0.195613          0.450416
 Vib (V=0)    6  0.149063D+01          0.173369          0.399197
 Vib (V=0)    7  0.140885D+01          0.148865          0.342774
 Vib (V=0)    8  0.137287D+01          0.137630          0.316904
 Vib (V=0)    9  0.124380D+01          0.094752          0.218174
 Vib (V=0)   10  0.114965D+01          0.060567          0.139462
 Vib (V=0)   11  0.106853D+01          0.028787          0.066285
 Vib (V=0)   12  0.106053D+01          0.025522          0.058766
 Electronic      0.200000D+01          0.301030          0.693147
 Translational   0.484981D+08          7.685724         17.697035
 Rotational      0.441498D+06          5.644929         12.997929
 ***** Axes restored to original set *****
 -------------------------------------------------------------------
 Center     Atomic                   Forces (Hartrees/Bohr)
 Number     Number              X              Y              Z
 -------------------------------------------------------------------
      1        8          -0.000512494    0.006214032    0.000749867
      2        1           0.000075866    0.000243742    0.000045194
      3        6           0.000904761   -0.007433326   -0.000858770
      4        1          -0.000294614    0.000236304   -0.000010843
      5        6          -0.000337752    0.000765999    0.000052758
      6        6           0.000028808   -0.000081512   -0.000002758
      7        8           0.000067387    0.000038261    0.000021262
      8        8           0.000056231    0.000033624    0.000015863
      9        6          -0.000004911   -0.000013304   -0.000003267
     10        6           0.000011257   -0.000002831   -0.000001331
     11        1           0.000004218    0.000000806   -0.000001549
     12        1           0.000002023    0.000002186   -0.000001491
     13        1           0.000000740   -0.000000835   -0.000002802
     14        1           0.000000038   -0.000001951   -0.000003278
     15        1          -0.000001559   -0.000001194    0.000001143
 -------------------------------------------------------------------
 Cartesian Forces:  Max     0.007433326 RMS     0.001469558

 GradGradGradGradGradGradGradGradGradGradGradGradGradGradGradGradGradGrad
 Berny optimization.
 Search for a local minimum.
 Step number   1 out of a maximum of    2
 All quantities printed in internal units (Hartrees-Bohrs-Radians)
 Second derivative matrix not updated -- analytic derivatives used.
 ITU=  0
     Eigenvalues ---   -0.23008   0.00059   0.00094   0.00129   0.00203
     Eigenvalues ---    0.00324   0.00396   0.01289   0.01451   0.02195
     Eigenvalues ---    0.03174   0.03457   0.03464   0.05548   0.06299
     Eigenvalues ---    0.07575   0.08323   0.09549   0.10057   0.10278
     Eigenvalues ---    0.11492   0.13963   0.15666   0.17047   0.19871
     Eigenvalues ---    0.28819   0.29767   0.43299   0.48745   0.62023
     Eigenvalues ---    0.70390   0.76956   0.78613   0.84653   0.87383
     Eigenvalues ---    0.94262   0.99326   1.73806   2.32233
 Eigenvalue     1 is  -2.30D-01 should be greater than     0.000000 Eigenvector:
                          Y3        Y1        Z3        Y5        X1
   1                    0.78804  -0.57772   0.09814  -0.08625   0.08502
                          Y2        Z1        X2        Y4        X3
   1                   -0.06909  -0.06528  -0.05709  -0.05495  -0.05197
 Angle between quadratic step and forces=  22.97 degrees.
 Linear search not attempted -- first point.
 B after Tr=    -0.000080    0.000551    0.000003
         Rot=    1.000000    0.000080    0.000027   -0.000099 Ang=   0.01 deg.
 Variable       Old X    -DE/DX   Delta X   Delta X   Delta X     New X
                                 (Linear)    (Quad)   (Total)
    X1        5.25342  -0.00051   0.00000   0.00175   0.00218   5.25561
    Y1       -2.63325   0.00621   0.00000   0.03040   0.03200  -2.60125
    Z1        0.04726   0.00075   0.00000   0.00423   0.00494   0.05220
    X2        3.52777   0.00008   0.00000   0.01188   0.01244   3.54021
    Y2       -3.13967   0.00024   0.00000  -0.00636  -0.00516  -3.14483
    Z2       -0.31796   0.00005   0.00000  -0.00163  -0.00093  -0.31889
    X3        4.80867   0.00090   0.00000   0.00311   0.00280   4.81147
    Y3        1.05183  -0.00743   0.00000  -0.03083  -0.02925   1.02257
    Z3        0.47240  -0.00086   0.00000  -0.00342  -0.00332   0.46907
    X4        6.77412  -0.00029   0.00000   0.00038  -0.00002   6.77410
    Y4        1.35803   0.00024   0.00000  -0.00236  -0.00034   1.35769
    Z4        0.81490  -0.00001   0.00000   0.00033   0.00049   0.81539
    X5        2.56381  -0.00034   0.00000   0.00010  -0.00028   2.56353
    Y5        1.49612   0.00077   0.00000   0.00050   0.00159   1.49771
    Z5        0.18770   0.00005   0.00000   0.00003  -0.00007   0.18763
    X6       -0.15406   0.00003   0.00000  -0.00014  -0.00050  -0.15455
    Y6        1.48204  -0.00008   0.00000  -0.00246  -0.00197   1.48007
    Z6       -0.22304  -0.00000   0.00000  -0.00060  -0.00084  -0.22388
    X7       -1.47289   0.00007   0.00000   0.00148   0.00075  -1.47214
    Y7        3.32080   0.00004   0.00000  -0.00099  -0.00075   3.32005
    Z7       -0.16151   0.00002   0.00000  -0.00027  -0.00088  -0.16239
    X8       -0.94155   0.00006   0.00000  -0.00199  -0.00186  -0.94341
    Y8       -0.87493   0.00003   0.00000  -0.00131  -0.00105  -0.87598
    Z8       -0.68521   0.00002   0.00000  -0.00071  -0.00062  -0.68583
    X9       -3.62373  -0.00000   0.00000  -0.00275  -0.00253  -3.62626
    Y9       -1.18762  -0.00001   0.00000   0.00086   0.00052  -1.18710
    Z9       -1.09950  -0.00000   0.00000  -0.00014  -0.00014  -1.09965
   X10       -5.04772   0.00001   0.00000  -0.00188  -0.00179  -5.04951
   Y10       -1.23108  -0.00000   0.00000   0.00067   0.00044  -1.23063
   Z10        1.38480  -0.00000   0.00000   0.00034   0.00027   1.38507
   X11       -3.76724   0.00000   0.00000  -0.00469  -0.00406  -3.77130
   Y11       -2.98135   0.00000   0.00000   0.00157   0.00104  -2.98031
   Z11       -2.09564  -0.00000   0.00000  -0.00107  -0.00079  -2.09643
   X12       -4.27803   0.00000   0.00000  -0.00211  -0.00214  -4.28017
   Y12        0.33479   0.00000   0.00000   0.00207   0.00141   0.33619
   Z12       -2.32422  -0.00000   0.00000   0.00097   0.00068  -2.32353
   X13       -7.04411   0.00000   0.00000  -0.00240  -0.00222  -7.04633
   Y13       -1.60705  -0.00000   0.00000   0.00257   0.00190  -1.60515
   Z13        1.02617  -0.00000   0.00000   0.00095   0.00083   1.02700
   X14       -4.31392   0.00000   0.00000  -0.00270  -0.00238  -4.31630
   Y14       -2.71708  -0.00000   0.00000  -0.00052  -0.00040  -2.71748
   Z14        2.61095  -0.00000   0.00000  -0.00069  -0.00048   2.61046
   X15       -4.89222  -0.00000   0.00000  -0.00009  -0.00041  -4.89263
   Y15        0.58358  -0.00000   0.00000   0.00008   0.00005   0.58363
   Z15        2.34730   0.00000   0.00000   0.00122   0.00087   2.34817
         Item               Value     Threshold  Converged?
 Maximum Force            0.007433     0.000450     NO 
 RMS     Force            0.001470     0.000300     NO 
 Maximum Displacement     0.031999     0.001800     NO 
 RMS     Displacement     0.006954     0.001200     NO 
 Predicted change in Energy=-6.286588D-04
 GradGradGradGradGradGradGradGradGradGradGradGradGradGradGradGradGradGrad


 ----------------------------------------------------------------------

 Electric dipole moment (input orientation):
 (Debye = 10**-18 statcoulomb cm , SI units = C m)
                  (au)            (Debye)         (10**-30 SI)
   Tot        0.848946D+00      0.215780D+01      0.719766D+01
   x         -0.755079D+00     -0.191922D+01     -0.640183D+01
   y         -0.380050D+00     -0.965990D+00     -0.322220D+01
   z         -0.782721D-01     -0.198948D+00     -0.663618D+00

 Dipole polarizability, Alpha (input orientation).
 (esu units = cm**3 , SI units = C**2 m**2 J**-1)
 Alpha(0;0):
               (au)            (10**-24 esu)      (10**-40 SI)
   iso        0.763589D+02      0.113152D+02      0.125899D+02
   aniso      0.455020D+02      0.674269D+01      0.750226D+01
   xx         0.964387D+02      0.142907D+02      0.159006D+02
   yx        -0.108569D+02     -0.160882D+01     -0.179006D+01
   yy         0.824315D+02      0.122151D+02      0.135911D+02
   zx         0.235217D+01      0.348555D+00      0.387820D+00
   zy         0.217435D+01      0.322206D+00      0.358503D+00
   zz         0.502066D+02      0.743984D+01      0.827794D+01

 ----------------------------------------------------------------------

 Dipole orientation:
     8          1.87242364         -4.33498641         -3.49808535
     1          1.54785430         -4.13620802         -1.70284590
     6          0.57705132         -1.07805137         -4.79140998
     1          1.00007280         -1.54818940         -6.70820054
     6         -0.15965389          0.12533549         -2.96741036
     6         -0.86823198          1.12258010         -0.50588310
     8         -1.78956198          3.16141392         -0.16170251
     8         -0.34673931         -0.57554699          1.29230658
     6         -0.92291263          0.17176610          3.85609363
     6          1.12268253          1.87463895          4.91304683
     1         -1.04060864         -1.60896745          4.87858111
     1         -2.76408376          1.09679671          3.86943121
     1          0.71195002          2.29676388          6.89007134
     1          2.95938261          0.94375357          4.81257275
     1          1.20282724          3.65136569          3.87362216

 Electric dipole moment (dipole orientation):
 (Debye = 10**-18 statcoulomb cm , SI units = C m)
                  (au)            (Debye)         (10**-30 SI)
   Tot        0.848946D+00      0.215780D+01      0.719766D+01
   x          0.000000D+00      0.000000D+00      0.000000D+00
   y          0.000000D+00      0.000000D+00      0.000000D+00
   z          0.848946D+00      0.215780D+01      0.719766D+01

 Dipole polarizability, Alpha (dipole orientation).
 (esu units = cm**3 , SI units = C**2 m**2 J**-1)
 Alpha(0;0):
               (au)            (10**-24 esu)      (10**-40 SI)
   iso        0.763589D+02      0.113152D+02      0.125899D+02
   aniso      0.455020D+02      0.674269D+01      0.750226D+01
   xx         0.572361D+02      0.848152D+01      0.943696D+01
   yx        -0.164996D+02     -0.244498D+01     -0.272041D+01
   yy         0.866827D+02      0.128451D+02      0.142920D+02
   zx        -0.523620D+01     -0.775925D+00     -0.863333D+00
   zy         0.107539D+02      0.159357D+01      0.177308D+01
   zz         0.851579D+02      0.126191D+02      0.140406D+02

 ----------------------------------------------------------------------
 1\1\GINC-AJ\Freq\UM062X\6-311++G(d,p)\C5H7O3(2)\AAYUSH\23-Jun-2025\0\\
 # freq 6-311++g(d,p) m062x\\Title Card Required\\0,2\O,2.779992,-1.393
 454,0.025008\H,1.866813,-1.661442,-0.168255\C,2.544638,0.556602,0.2499
 82\H,3.584709,0.718638,0.431229\C,1.356709,0.791713,0.099327\C,-0.0815
 23,0.784263,-0.118029\O,-0.779422,1.757292,-0.085465\O,-0.498249,-0.46
 2994,-0.362596\C,-1.917593,-0.628461,-0.581831\C,-2.67114,-0.651458,0.
 732802\H,-1.993535,-1.57766,-1.108966\H,-2.263837,0.177163,-1.229922\H
 ,-3.727581,-0.850414,0.543026\H,-2.282829,-1.437816,1.381653\H,-2.5888
 51,0.308817,1.24214\\Version=ES64L-G16RevA.03\State=2-A\HF=-420.204811
 \S2=0.777913\S2-1=0.\S2A=0.750297\RMSD=9.508e-09\RMSF=1.470e-03\ZeroPo
 int=0.1122528\Thermal=0.1217805\Dipole=-0.755079,-0.3800497,-0.0782721
 \DipoleDeriv=-0.2481272,-0.1897007,0.0096169,-0.1224367,0.1979388,0.06
 99663,0.0213214,0.054609,-0.4341157,0.1152287,0.0725825,-0.0265552,-0.
 112413,0.3543359,-0.0069556,-0.0535124,0.021212,0.3064913,-0.3040128,0
 .6617822,0.0590366,0.3814709,-0.883884,-0.0636434,0.0113688,-0.0121223
 ,-0.0355641,0.2806723,-0.005011,0.0100683,-0.0576936,0.2696077,0.00196
 17,0.0049223,0.0090039,0.1989504,-0.4856023,-0.5406315,-0.1188339,-0.0
 878794,-0.0202168,0.0023247,-0.0734594,-0.0740004,-0.111859,2.1508197,
 -0.3351817,0.1649853,0.4944123,1.7764017,0.1527402,0.3095526,0.1270537
 ,0.4380045,-0.9742997,0.5012605,-0.0185065,0.083066,-1.020371,-0.03130
 23,-0.0672413,-0.0015252,-0.3474315,-1.427391,-0.3140142,-0.0665208,-0
 .7183745,-1.0258768,-0.1232513,-0.2102513,-0.1503613,-0.363633,0.96697
 77,0.2343894,-0.0049082,0.169875,0.3154197,0.0037907,0.0192335,0.05893
 03,0.3447079,-0.0784096,-0.0453541,0.0246256,-0.0225743,0.0167778,-0.0
 170289,0.057926,-0.0357694,-0.0711858,-0.0116262,0.0050937,0.0277586,-
 0.0440884,-0.0389515,-0.0883014,0.0005751,-0.0624186,0.015642,-0.02875
 22,-0.0431719,0.004927,0.0401153,0.0046324,0.094036,-0.005915,0.034031
 ,-0.009918,-0.1073566,-0.0446004,-0.0164073,-0.0431854,0.0892568,-0.00
 23858,-0.0238021,0.003443,0.0557697,0.0495494,0.0712944,-0.0389131,0.0
 410408,-0.0077688,0.0775001,0.0084986,0.0543376,-0.0068352,0.10233,-0.
 0287373,-0.0103736,-0.0013351,-0.027302,-0.069451,0.0007834,-0.0264233
 ,0.0209766\Polar=96.4387133,-10.8568707,82.431524,2.3521662,2.174354,5
 0.2065501\Quadrupole=3.0307712,-3.3707003,0.3399291,7.4033798,1.300839
 5,0.7864234\PG=C01 [X(C5H7O3)]\NImag=1\\0.48344135,0.12895253,-0.00131
 223,0.09972930,0.02156198,0.02407037,-0.46295166,-0.13352776,-0.097380
 51,0.45904129,-0.11586110,-0.05740416,-0.02755224,0.12631976,0.0623931
 6,-0.09496185,-0.03067939,-0.02220553,0.09567917,0.03002252,0.02251110
 ,-0.01017897,-0.07727768,-0.01083520,-0.00067611,-0.01232654,-0.001744
 62,1.31215187,-0.02077370,0.12806745,0.01487942,0.00693894,0.00257394,
 0.00168796,0.03435592,-0.12389963,-0.00335284,0.00656261,-0.00766576,0
 .00096602,-0.00171689,-0.00032025,0.19526327,-0.02106117,0.09863568,0.
 00111409,0.00097841,-0.00000760,0.00015569,-0.00021236,-0.00010474,-0.
 39196690,-0.04890866,-0.06189162,0.38678889,-0.00618281,-0.02462910,-0
 .00459249,0.00043689,-0.00272153,-0.00034849,-0.07563170,-0.00672748,-
 0.00818097,0.05279395,0.03345460,-0.00097656,-0.00344583,0.00144180,-0
 .00001459,-0.00045866,0.00050383,-0.06545754,-0.00413702,-0.04189479,0
 .06374702,0.01022407,0.02853680,-0.01032437,0.08320171,0.00889286,0.00
 291605,0.00250753,0.00097864,-0.90768338,0.02814705,-0.13044441,0.0041
 1045,0.02862771,0.00339231,1.25212004,0.01427508,-0.04810628,-0.004757
 34,0.00009415,-0.00379638,-0.00049463,0.11350725,0.00380869,0.02252002
 ,-0.00409311,-0.00365478,-0.00212563,-0.11945661,0.11914178,-0.0002779
 1,0.00584548,0.00475819,0.00055763,-0.00008185,-0.00036537,-0.11884854
 ,0.00942716,-0.05143117,-0.00100490,0.00286658,0.00739319,0.16702137,-
 0.00943192,0.08024410,-0.00154834,-0.00369447,-0.00056988,0.00438689,0
 .00306379,0.00095241,0.00556189,-0.00323167,0.00022440,-0.00111317,0.0
 0049985,-0.00104281,-0.25551363,-0.00048819,-0.02803481,0.76577301,-0.
 00356108,0.00532157,0.00035731,0.00507767,-0.00129683,0.00041551,0.022
 10927,-0.00835608,0.00218213,-0.00089335,0.00507028,-0.00027168,-0.035
 66586,-0.04610720,-0.00236583,-0.22451830,0.83067657,-0.00056881,0.000
 31574,-0.00102497,0.00122190,0.00010560,0.00110696,0.00337016,-0.00178
 366,0.00180604,-0.00121957,-0.00004014,0.00586783,-0.03282817,0.003362
 80,-0.07500548,0.05307847,0.05438628,0.22387833,0.00019812,-0.00005531
 ,0.00002200,-0.00102956,-0.00148704,-0.00036980,-0.00718302,0.00254141
 ,-0.00087876,0.00066258,-0.00134207,0.00010427,-0.04587038,0.04106093,
 -0.00438895,-0.34721581,0.32694400,0.00550859,0.36999503,0.00100329,-0
 .00118318,-0.00001353,-0.00147484,0.00067218,-0.00011933,-0.00321151,0
 .00273524,-0.00021136,0.00002543,-0.00057683,0.00010090,0.04069235,-0.
 00646225,0.00218556,0.31210834,-0.52519726,-0.01609195,-0.37784330,0.6
 3802999,0.00017894,-0.00021151,-0.00000166,-0.00035563,-0.00010698,-0.
 00011423,-0.00161727,0.00066440,0.00060549,0.00028809,-0.00010851,-0.0
 0119037,-0.00451419,0.00220184,0.02097246,0.00310633,-0.01211521,-0.08
 118706,-0.00239080,0.02864569,0.03805537,-0.00015112,0.00113874,-0.000
 01226,-0.00116196,-0.00260290,-0.00033433,-0.00130992,0.00242352,0.000
 11547,0.00049260,0.00062619,0.00027283,-0.04135393,-0.04456725,-0.0148
 8665,-0.13980138,-0.06697427,-0.01881013,0.03203817,0.01816935,0.00140
 820,0.42313070,0.00185140,-0.00091931,0.00004464,-0.00325501,-0.001257
 29,-0.00051134,-0.00182541,0.00235706,-0.00009185,0.00042018,-0.000465
 43,0.00009694,-0.02579465,-0.01089008,-0.00703091,-0.03603636,-0.25314
 298,-0.03042716,0.01474874,-0.10765652,-0.01901339,0.08409525,0.454956
 32,0.00018853,-0.00008423,0.00064175,-0.00055180,-0.00037897,-0.001156
 37,-0.00042298,0.00060531,0.00048702,0.00021810,0.00007530,-0.00048370
 ,-0.01146561,-0.00957452,0.00843892,-0.01575910,-0.03696383,-0.0736649
 4,0.00187965,-0.01735463,0.02769732,0.06008606,0.06453042,0.10077626,0
 .00045809,0.00017072,0.00014253,-0.00084305,0.00130728,0.00001192,0.00
 190721,-0.00203369,-0.00002446,-0.00037157,0.00016262,-0.00006219,0.00
 358227,0.00166553,0.00097899,-0.02404402,-0.04469679,-0.01188587,-0.00
 672160,0.01844528,0.00218733,-0.17967032,-0.00412502,-0.02226432,0.426
 79345,0.00025271,0.00018072,0.00004265,-0.00053271,0.00097341,0.000099
 71,0.00054856,-0.00067006,0.00003178,-0.00015450,0.00025097,0.00002467
 ,-0.00232747,-0.00376503,-0.00155144,-0.04599209,-0.00912523,-0.009886
 43,-0.00078011,0.00170551,0.00053911,0.01738906,-0.08952846,0.00043584
 ,-0.02162671,0.65834614,-0.00000727,0.00014436,-0.00004317,-0.00005011
 ,0.00029028,0.00010238,0.00043080,-0.00031421,-0.00026936,-0.00004728,
 0.00011429,-0.00018922,-0.00120311,-0.00182014,0.00543663,-0.01076721,
 -0.01216899,-0.00327702,-0.00262530,0.00323679,-0.00538753,-0.01961260
 ,-0.00185792,-0.06893587,0.02137975,0.00566594,0.55513645,-0.00002933,
 0.00000669,0.00001180,0.00006469,-0.00030078,-0.00001538,-0.00032597,0
 .00029719,0.00009473,0.00006716,-0.00002159,0.00006104,-0.00043114,-0.
 00034008,-0.00177354,-0.00012029,0.00673637,0.00299581,0.00080929,-0.0
 0263599,0.00126354,-0.04212518,-0.00834301,0.03083283,-0.09486120,0.00
 114899,0.04545857,0.56051112,-0.00004388,0.00001279,0.00006825,0.00003
 035,-0.00002705,-0.00010430,0.00001568,-0.00002689,-0.00001583,0.00000
 913,0.00001553,0.00000606,0.00000551,-0.00006152,-0.00011934,-0.001929
 50,0.00241615,0.00189442,0.00115000,0.00003533,-0.00079360,-0.00616563
 ,0.00070371,0.00525118,0.00147123,-0.08605626,-0.00136034,-0.00127943,
 0.58992737,0.00004146,0.00000206,-0.00003961,-0.00001034,-0.00015067,0
 .00004742,-0.00025225,0.00008524,0.00005740,0.00003236,-0.00001679,0.0
 0001532,0.00022066,0.00002171,-0.00064296,-0.00125308,0.00486755,0.001
 80083,0.00217099,-0.00132827,-0.00092219,-0.00366291,-0.00289338,0.010
 01696,0.05744104,0.00113686,-0.19534472,0.04401641,0.00353529,0.519622
 49,0.00006607,0.00002873,0.00005286,-0.00014425,-0.00016056,-0.0001148
 5,-0.00032065,0.00024920,-0.00003417,0.00003325,0.00002498,-0.00001442
 ,-0.00103658,-0.00139709,0.00015253,-0.00575176,0.00482018,-0.00208240
 ,0.00236696,-0.00106771,0.00039561,-0.02016249,-0.04048300,-0.01920248
 ,-0.04487703,-0.00229890,-0.00376380,0.00239498,0.01576730,0.00783218,
 0.06522247,-0.00000745,-0.00001408,0.00004139,-0.00000536,-0.00006748,
 -0.00007259,-0.00013418,0.00011141,0.00002865,0.00002682,-0.00001984,0
 .00000322,-0.00010246,-0.00008658,-0.00024837,0.00115449,0.00032722,-0
 .00014714,-0.00152581,0.00027421,-0.00043557,-0.00316942,-0.00234165,-
 0.00024212,-0.01470773,-0.26695242,-0.11466171,0.00110667,0.00379448,0
 .00213094,0.01823318,0.28080599,0.00005138,0.00000732,-0.00003784,-0.0
 0009896,-0.00009174,0.00004870,-0.00007059,0.00006013,0.00000463,0.000
 00622,0.00000009,-0.00000733,-0.00025219,-0.00020598,0.00007976,-0.000
 64013,0.00298981,0.00008097,0.00129310,-0.00001711,0.00060238,-0.00425
 436,-0.00644099,-0.00175874,-0.00868117,-0.11297031,-0.11431325,-0.000
 36330,-0.02605873,-0.01417285,0.00825729,0.12505057,0.12058665,-0.0001
 1683,0.00005690,0.00001949,0.00023455,-0.00026433,-0.00005673,-0.00003
 065,0.00006872,-0.00004679,0.00004443,-0.00000178,-0.00000963,-0.00044
 730,-0.00020338,0.00057308,0.00041806,0.00859416,0.00020324,0.00188223
 ,-0.00291825,0.00005365,-0.03204710,0.01990441,-0.02470917,-0.07164981
 ,0.05457129,-0.04463231,0.00772511,-0.01362918,0.01112475,0.00246253,-
 0.00117274,0.00232212,0.09244361,0.00003631,0.00001601,-0.00002053,-0.
 00004409,-0.00001359,0.00002515,0.00004578,-0.00005519,-0.00007308,0.0
 0000339,0.00002137,-0.00003546,0.00014136,-0.00013238,0.00086530,-0.00
 215615,0.00108098,-0.00112907,-0.00117373,-0.00171376,-0.00126757,-0.0
 0140906,0.00645865,-0.00585770,0.06461451,-0.20647705,0.12277732,-0.00
 087884,0.00157916,-0.00130154,0.00765667,-0.01775186,0.01634640,-0.065
 96410,0.21534937,-0.00001454,0.00002231,0.00002522,0.00001713,-0.00000
 554,-0.00003381,0.00015070,-0.00006489,0.00002213,-0.00000976,0.000020
 45,0.00000013,0.00002295,-0.00019152,-0.00004790,-0.00151138,0.0040026
 9,0.00100448,0.00205222,-0.00104764,0.00003567,-0.00639896,0.00033273,
 -0.00224764,-0.04824757,0.11675920,-0.14532000,-0.00770096,0.02207415,
 -0.01707202,0.00606635,-0.01154410,0.01130696,0.05292424,-0.12985500,0
 .15465813,-0.00002292,-0.00000496,0.00000631,0.00003809,-0.00008456,-0
 .00002141,-0.00010085,0.00007855,0.00000113,0.00003440,-0.00000920,0.0
 0001086,-0.00016949,-0.00003299,-0.00023102,0.00069657,0.00253292,0.00
 050239,0.00036402,-0.00073252,0.00003477,-0.00225749,-0.00174492,0.003
 63532,-0.01453683,-0.00263071,-0.00644889,-0.30149756,-0.04838548,-0.0
 4583940,0.00031993,0.00047607,0.00007100,0.00036899,-0.00032293,0.0002
 1964,0.32705621,0.00001756,-0.00001297,-0.00001532,-0.00001442,-0.0000
 1800,0.00002303,-0.00007467,0.00003408,0.00001798,0.00000915,-0.000006
 23,0.00000730,0.00000448,0.00006675,-0.00018283,0.00079649,-0.00072529
 ,-0.00042452,-0.00062646,0.00004270,0.00062937,0.00064121,0.00145431,0
 .00011370,-0.00024043,-0.00230233,-0.00021366,-0.04886662,-0.05475613,
 -0.00886426,-0.00007412,0.00001296,0.00021476,0.00010688,-0.00003344,0
 .00004399,0.05314291,0.05493845,-0.00000290,-0.00001708,0.00004371,-0.
 00001691,0.00009052,-0.00004571,0.00011504,-0.00006435,-0.00002611,-0.
 00001498,0.00000308,-0.00001690,0.00013477,0.00019541,0.00043198,0.000
 43067,-0.00307097,-0.00116827,-0.00083012,0.00101786,0.00020310,0.0076
 7071,0.00234602,-0.00502167,0.02545462,0.00525779,0.00901098,-0.048038
 62,-0.00898975,-0.05679800,-0.00062709,-0.00073025,0.00096959,-0.00095
 007,0.00061115,0.00076581,0.04946658,0.00969417,0.05819117,0.00005253,
 -0.00000205,-0.00005498,-0.00005151,0.00002099,0.00007157,-0.00000505,
 -0.00001711,0.00000964,-0.00001648,-0.00000130,-0.00000364,0.00007343,
 0.00001640,0.00003224,-0.00011600,-0.00131923,-0.00025079,-0.00038463,
 0.00039357,0.00003665,0.00281067,0.00069961,-0.00079944,0.00461821,-0.
 01426916,0.01237349,-0.08272892,0.07238479,-0.05968497,0.00042448,0.00
 016049,-0.00099824,-0.00149392,-0.00012858,0.00338098,-0.00950827,0.02
 354831,-0.01812531,0.08607792,0.00002964,-0.00000216,-0.00006791,-0.00
 002793,0.00000793,0.00008184,-0.00006677,0.00001949,-0.00000172,-0.000
 00441,-0.00001052,0.00001241,-0.00005675,0.00003950,-0.00010663,0.0004
 3427,-0.00116895,0.00022473,-0.00081967,0.00033508,0.00031870,-0.00038
 622,0.00017033,-0.00041669,-0.00089407,0.00073805,-0.00071605,0.072019
 21,-0.19259102,0.11572355,-0.00062520,0.00063841,0.00010110,0.00048228
 ,0.00114190,-0.00036349,-0.00227193,0.00501099,-0.00535827,-0.07859813
 ,0.20365488,-0.00004517,0.00000633,0.00002845,0.00006520,0.00006690,-0
 .00004472,0.00009097,-0.00007243,-0.00000647,-0.00000670,0.00000938,0.
 00000597,-0.00000173,0.00005380,-0.00004252,0.00000009,0.00028525,-0.0
 0000048,-0.00005277,-0.00020598,0.00020424,-0.00112657,-0.00127890,0.0
 0273570,-0.01222052,0.02317107,-0.02040773,-0.05688467,0.11421801,-0.1
 4092219,-0.00044905,-0.00030540,0.00092702,0.00375381,-0.00098941,-0.0
 0411978,-0.00120134,0.00262999,-0.00337909,0.06117877,-0.12694610,0.15
 479177,-0.00000671,0.00002780,-0.00001672,0.00002088,0.00008081,0.0000
 3000,0.00016048,-0.00013566,-0.00000160,-0.00003540,0.00001826,-0.0000
 0694,0.00002796,-0.00004063,0.00013048,-0.00161203,0.00081430,0.000765
 17,0.00008858,-0.00095348,-0.00007524,0.00156874,-0.00011220,-0.001665
 58,0.00021620,0.01670175,0.00951526,-0.04945277,-0.01940088,-0.0121768
 9,-0.00099791,-0.00033256,0.00335783,0.00020611,-0.00042053,-0.0009510
 4,-0.00078480,-0.02837028,-0.01466640,0.00024754,0.01078568,0.00689969
 ,0.05035312,0.00001149,-0.00001506,0.00002373,-0.00001563,-0.00001830,
 -0.00002565,-0.00003401,0.00002797,0.00000969,-0.00000007,-0.00000102,
 -0.00000129,0.00007610,0.00000577,-0.00007095,-0.00001050,0.00022704,-
 0.00035948,-0.00079157,-0.00104045,0.00105325,0.00079144,0.00010133,-0
 .00013905,0.00048728,0.00268203,0.00088404,-0.01864879,-0.26496564,-0.
 11294829,-0.00067364,0.00126924,0.00101470,0.00036911,0.00052983,-0.00
 018332,-0.00001025,-0.00370582,-0.00098532,-0.00288859,-0.01798391,-0.
 01064251,0.02133763,0.28288697,0.00001823,-0.00003016,0.00000906,-0.00
 002820,-0.00003226,-0.00003440,-0.00017194,0.00008810,-0.00000448,0.00
 001535,-0.00002585,0.00001744,0.00004585,0.00024611,-0.00021985,0.0017
 8603,-0.00253001,-0.00021723,-0.00149431,0.00120303,0.00042700,-0.0004
 5448,0.00219511,0.00247500,-0.00421009,-0.02875644,-0.01619859,-0.0099
 5827,-0.10960546,-0.10564589,0.00353145,0.00113247,-0.00431664,-0.0005
 6969,-0.00009595,0.00102260,-0.00020594,-0.00367371,-0.00316062,0.0028
 3403,0.01751453,0.01022982,0.00886197,0.12237047,0.11561677\\0.0005124
 9,-0.00621403,-0.00074987,-0.00007587,-0.00024374,-0.00004519,-0.00090
 476,0.00743333,0.00085877,0.00029461,-0.00023630,0.00001084,0.00033775
 ,-0.00076600,-0.00005276,-0.00002881,0.00008151,0.00000276,-0.00006739
 ,-0.00003826,-0.00002126,-0.00005623,-0.00003362,-0.00001586,0.0000049
 1,0.00001330,0.00000327,-0.00001126,0.00000283,0.00000133,-0.00000422,
 -0.00000081,0.00000155,-0.00000202,-0.00000219,0.00000149,-0.00000074,
 0.00000083,0.00000280,-0.00000004,0.00000195,0.00000328,0.00000156,0.0
 0000119,-0.00000114\\\@


 IT IS A QUALITY OF REVOLUTIONS NOT TO GO BY OLD LINES OR OLD LAWS,
 BUT TO BREAK UP BOTH, AND MAKE NEW ONES.
                                              -- A. LINCOLN (1848)
 Job cpu time:       0 days  0 hours 57 minutes 40.2 seconds.
 Elapsed time:       0 days  0 hours  2 minutes 24.5 seconds.
 File lengths (MBytes):  RWF=    153 Int=      0 D2E=      0 Chk=      9 Scr=      1
 Normal termination of Gaussian 16 at Mon Jun 23 06:26:52 2025.
