 Entering Gaussian System, Link 0=g16
 Initial command:
 /opt/g16/l1.exe "/home/aayush/scratches/g16/Gau-82936.inp" -scrdir="/home/aayush/scratches/g16/"
 Entering Link 1 = /opt/g16/l1.exe PID=     82939.
  
 Copyright (c) 1988,1990,1992,1993,1995,1998,2003,2009,2016,
            Gaussian, Inc.  All Rights Reserved.
  
 This is part of the Gaussian(R) 16 program.  It is based on
 the Gaussian(R) 09 system (copyright 2009, Gaussian, Inc.),
 the Gaussian(R) 03 system (copyright 2003, Gaussian, Inc.),
 the Gaussian(R) 98 system (copyright 1998, Gaussian, Inc.),
 the Gaussian(R) 94 system (copyright 1995, Gaussian, Inc.),
 the Gaussian 92(TM) system (copyright 1992, Gaussian, Inc.),
 the Gaussian 90(TM) system (copyright 1990, Gaussian, Inc.),
 the Gaussian 88(TM) system (copyright 1988, Gaussian, Inc.),
 the Gaussian 86(TM) system (copyright 1986, Carnegie Mellon
 University), and the Gaussian 82(TM) system (copyright 1983,
 Carnegie Mellon University). Gaussian is a federally registered
 trademark of Gaussian, Inc.
  
 This software contains proprietary and confidential information,
 including trade secrets, belonging to Gaussian, Inc.
  
 This software is provided under written license and may be
 used, copied, transmitted, or stored only in accord with that
 written license.
  
 The following legend is applicable only to US Government
 contracts under FAR:
  
                    RESTRICTED RIGHTS LEGEND
  
 Use, reproduction and disclosure by the US Government is
 subject to restrictions as set forth in subparagraphs (a)
 and (c) of the Commercial Computer Software - Restricted
 Rights clause in FAR 52.227-19.
  
 Gaussian, Inc.
 340 Quinnipiac St., Bldg. 40, Wallingford CT 06492
  
  
 ---------------------------------------------------------------
 Warning -- This program may not be used in any manner that
 competes with the business of Gaussian, Inc. or will provide
 assistance to any competitor of Gaussian, Inc.  The licensee
 of this program is prohibited from giving any competitor of
 Gaussian, Inc. access to this program.  By using this program,
 the user acknowledges that Gaussian, Inc. is engaged in the
 business of creating and licensing software in the field of
 computational chemistry and represents and warrants to the
 licensee that it is not a competitor of Gaussian, Inc. and that
 it will not use this program in any manner prohibited above.
 ---------------------------------------------------------------
  

 Cite this work as:
 Gaussian 16, Revision A.03,
 M. J. Frisch, G. W. Trucks, H. B. Schlegel, G. E. Scuseria, 
 M. A. Robb, J. R. Cheeseman, G. Scalmani, V. Barone, 
 G. A. Petersson, H. Nakatsuji, X. Li, M. Caricato, A. V. Marenich, 
 J. Bloino, B. G. Janesko, R. Gomperts, B. Mennucci, H. P. Hratchian, 
 J. V. Ortiz, A. F. Izmaylov, J. L. Sonnenberg, D. Williams-Young, 
 F. Ding, F. Lipparini, F. Egidi, J. Goings, B. Peng, A. Petrone, 
 T. Henderson, D. Ranasinghe, V. G. Zakrzewski, J. Gao, N. Rega, 
 G. Zheng, W. Liang, M. Hada, M. Ehara, K. Toyota, R. Fukuda, 
 J. Hasegawa, M. Ishida, T. Nakajima, Y. Honda, O. Kitao, H. Nakai, 
 T. Vreven, K. Throssell, J. A. Montgomery, Jr., J. E. Peralta, 
 F. Ogliaro, M. J. Bearpark, J. J. Heyd, E. N. Brothers, K. N. Kudin, 
 V. N. Staroverov, T. A. Keith, R. Kobayashi, J. Normand, 
 K. Raghavachari, A. P. Rendell, J. C. Burant, S. S. Iyengar, 
 J. Tomasi, M. Cossi, J. M. Millam, M. Klene, C. Adamo, R. Cammi, 
 J. W. Ochterski, R. L. Martin, K. Morokuma, O. Farkas, 
 J. B. Foresman, and D. J. Fox, Gaussian, Inc., Wallingford CT, 2016.
 
 ******************************************
 Gaussian 16:  ES64L-G16RevA.03 25-Dec-2016
                20-Jun-2025 
 ******************************************
 %nprocshared=24
 Will use up to   24 processors via shared memory.
 %mem=12GB
 %chk=ethyl_propiolate_ts1.chk
 -------------------
 # freq 6-31+g m062x
 -------------------
 1/10=4,30=1,38=1/1,3;
 2/12=2,17=6,18=5,40=1/2;
 3/5=1,6=6,7=10,11=2,25=1,30=1,71=2,74=-55,140=1/1,2,3;
 4//1;
 5/5=2,38=5,98=1/2;
 8/6=4,10=90,11=11/1;
 11/6=1,8=1,9=11,15=111,16=1/1,2,10;
 10/6=1/2;
 6/7=2,8=2,9=2,10=2,28=1/1;
 7/8=1,10=1,25=1/1,2,3,16;
 1/10=4,30=1/3;
 99//99;
 -------------------
 Title Card Required
 -------------------
 Symbolic Z-matrix:
 Charge =  0 Multiplicity = 2
 O                     2.71124  -1.35406   0.04514 
 H                     1.81077  -1.65302  -0.14946 
 C                     2.48807   0.39607   0.24346 
 H                     3.49117   0.73119   0.4421 
 C                     1.29273   0.77239   0.11026 
 C                    -0.14477   0.74545  -0.10944 
 O                    -0.84341   1.71954  -0.07778 
 O                    -0.56155  -0.50104  -0.35267 
 C                    -1.98137  -0.66718  -0.57186 
 C                    -2.73468  -0.68878   0.74285 
 H                    -2.05681  -1.61696  -1.09792 
 H                    -2.32733   0.13782  -1.22082 
 H                    -3.79106  -0.88822   0.55319 
 H                    -2.34626  -1.47447   1.39244 
 H                    -2.65274   0.27207   1.25117 
 

 GradGradGradGradGradGradGradGradGradGradGradGradGradGradGradGradGradGrad
 Berny optimization.
 Initialization pass.
 Trust Radius=3.00D-01 FncErr=1.00D-07 GrdErr=1.00D-07 EigMax=2.50D+02 EigMin=1.00D-04
 Number of steps in this run=      2 maximum allowed number of steps=      2.
 GradGradGradGradGradGradGradGradGradGradGradGradGradGradGradGradGradGrad

                          Input orientation:                          
 ---------------------------------------------------------------------
 Center     Atomic      Atomic             Coordinates (Angstroms)
 Number     Number       Type             X           Y           Z
 ---------------------------------------------------------------------
      1          8           0        2.711242   -1.354062    0.045136
      2          1           0        1.810766   -1.653023   -0.149461
      3          6           0        2.488068    0.396068    0.243460
      4          1           0        3.491165    0.731188    0.442103
      5          6           0        1.292726    0.772385    0.110259
      6          6           0       -0.144765    0.745446   -0.109444
      7          8           0       -0.843405    1.719536   -0.077781
      8          8           0       -0.561546   -0.501037   -0.352667
      9          6           0       -1.981367   -0.667175   -0.571859
     10          6           0       -2.734677   -0.688780    0.742851
     11          1           0       -2.056807   -1.616957   -1.097923
     12          1           0       -2.327334    0.137818   -1.220820
     13          1           0       -3.791055   -0.888220    0.553192
     14          1           0       -2.346259   -1.474465    1.392444
     15          1           0       -2.652735    0.272069    1.251171
 ---------------------------------------------------------------------
                    Distance matrix (angstroms):
                    1          2          3          4          5
     1  O    0.000000
     2  H    0.968557   0.000000
     3  C    1.775414   2.193604   0.000000
     4  H    2.261444   2.976265   1.076089   0.000000
     5  C    2.556991   2.493677   1.260238   2.223725   0.000000
     6  C    3.548042   3.094892   2.679257   3.677553   1.454433
     7  O    4.700811   4.292309   3.599094   4.476115   2.344250
     8  O    3.405443   2.645038   3.234240   4.309815   2.296569
     9  C    4.782580   3.940887   4.665949   5.738654   3.641058
    10  C    5.530591   4.731494   5.357551   6.392798   4.330722
    11  H    4.910192   3.982336   5.148540   6.218156   4.288127
    12  H    5.405146   4.634522   5.039733   6.080488   3.908872
    13  H    6.538730   5.697284   6.416597   7.460935   5.366435
    14  H    5.235270   4.437365   5.309404   6.312176   4.464812
    15  H    5.733330   5.058714   5.240106   6.213927   4.137470
                    6          7          8          9         10
     6  C    0.000000
     7  O    1.199146   0.000000
     8  O    1.336631   2.255205   0.000000
     9  C    2.362717   2.689881   1.446215   0.000000
    10  C    3.080756   3.170226   2.440882   1.515389   0.000000
    11  H    3.195926   3.693944   2.009102   1.088357   2.170131
    12  H    2.523485   2.451615   2.068776   1.090347   2.169146
    13  H    4.050109   3.985870   3.376421   2.142328   1.091642
    14  H    3.468465   3.823843   2.679212   2.154843   1.090936
    15  H    2.892278   2.671133   2.746463   2.157858   1.090108
                   11         12         13         14         15
    11  H    0.000000
    12  H    1.779754   0.000000
    13  H    2.502969   2.518403   0.000000
    14  H    2.511178   3.070662   1.770724   0.000000
    15  H    3.072750   2.496928   1.768959   1.778839   0.000000
 Stoichiometry    C5H7O3(2)
 Framework group  C1[X(C5H7O3)]
 Deg. of freedom    39
 Full point group                 C1      NOp   1
 Largest Abelian subgroup         C1      NOp   1
 Largest concise Abelian subgroup C1      NOp   1
                         Standard orientation:                         
 ---------------------------------------------------------------------
 Center     Atomic      Atomic             Coordinates (Angstroms)
 Number     Number       Type             X           Y           Z
 ---------------------------------------------------------------------
      1          8           0        2.772944   -1.322504    0.026582
      2          1           0        1.871949   -1.618595   -0.169990
      3          6           0        2.552783    0.426625    0.236754
      4          1           0        3.556461    0.758670    0.437612
      5          6           0        1.358084    0.805886    0.106160
      6          6           0       -0.079459    0.782902   -0.113652
      7          8           0       -0.776424    1.757954   -0.075365
      8          8           0       -0.498389   -0.461189   -0.365283
      9          6           0       -1.918501   -0.623402   -0.585526
     10          6           0       -2.671799   -0.652609    0.729044
     11          1           0       -1.995591   -1.569472   -1.118000
     12          1           0       -2.263109    0.186556   -1.229009
     13          1           0       -3.728525   -0.848947    0.538091
     14          1           0       -2.284707   -1.443337    1.373288
     15          1           0       -2.588188    0.304637    1.243850
 ---------------------------------------------------------------------
 Rotational constants (GHZ):           3.6991478           1.1524920           0.9459086
 Standard basis: 6-31+G (6D, 7F)
 There are   118 symmetry adapted cartesian basis functions of A   symmetry.
 There are   118 symmetry adapted basis functions of A   symmetry.
   118 basis functions,   236 primitive gaussians,   118 cartesian basis functions
    31 alpha electrons       30 beta electrons
       nuclear repulsion energy       353.6349303011 Hartrees.
 NAtoms=   15 NActive=   15 NUniq=   15 SFac= 1.00D+00 NAtFMM=   60 NAOKFM=F Big=F
 Integral buffers will be    131072 words long.
 Raffenetti 2 integral format.
 Two-electron integral symmetry is turned on.
 One-electron integrals computed using PRISM.
 NBasis=   118 RedAO= T EigKep=  4.64D-06  NBF=   118
 NBsUse=   118 1.00D-06 EigRej= -1.00D+00 NBFU=   118
 ExpMin= 4.38D-02 ExpMax= 5.48D+03 ExpMxC= 8.25D+02 IAcc=3 IRadAn=         5 AccDes= 0.00D+00
 Harris functional with IExCor= 1009 and IRadAn=       5 diagonalized for initial guess.
 HarFok:  IExCor= 1009 AccDes= 0.00D+00 IRadAn=         5 IDoV= 1 UseB2=F ITyADJ=14
 ICtDFT=  3500011 ScaDFX=  1.000000  1.000000  1.000000  1.000000
 FoFCou: FMM=F IPFlag=           0 FMFlag=      100000 FMFlg1=           0
         NFxFlg=           0 DoJE=T BraDBF=F KetDBF=T FulRan=T
         wScrn=  0.000000 ICntrl=       500 IOpCl=  0 I1Cent=   200000004 NGrid=           0
         NMat0=    1 NMatS0=      1 NMatT0=    0 NMatD0=    1 NMtDS0=    0 NMtDT0=    0
 Petite list used in FoFCou.
 Initial guess <Sx>= 0.0000 <Sy>= 0.0000 <Sz>= 0.5000 <S**2>= 0.7500 S= 0.5000
 Requested convergence on RMS density matrix=1.00D-08 within 128 cycles.
 Requested convergence on MAX density matrix=1.00D-06.
 Requested convergence on             energy=1.00D-06.
 No special actions if energy rises.
 SCF Done:  E(UM062X) =  -419.970489580     A.U. after   19 cycles
            NFock= 19  Conv=0.60D-08     -V/T= 2.0055
 <Sx>= 0.0000 <Sy>= 0.0000 <Sz>= 0.5000 <S**2>= 0.7832 S= 0.5165
 <L.S>=  0.00000000000    
 Annihilation of the first spin contaminant:
 S**2 before annihilation     0.7832,   after     0.7506
 DoSCS=F DFT=T ScalE2(SS,OS)=  1.000000  1.000000
 Range of M.O.s used for correlation:     1   118
 NBasis=   118 NAE=    31 NBE=    30 NFC=     0 NFV=     0
 NROrb=    118 NOA=    31 NOB=    30 NVA=    87 NVB=    88

 **** Warning!!: The largest alpha MO coefficient is  0.14430843D+03


 **** Warning!!: The largest beta MO coefficient is  0.17395750D+03

 Symmetrizing basis deriv contribution to polar:
 IMax=3 JMax=2 DiffMx= 0.00D+00
 G2DrvN: will do    16 centers at a time, making    1 passes.
 Calling FoFCou, ICntrl=  3107 FMM=F I1Cent=   0 AccDes= 0.00D+00.
 End of G2Drv F.D. properties file   721 does not exist.
 End of G2Drv F.D. properties file   722 does not exist.
 End of G2Drv F.D. properties file   788 does not exist.
          IDoAtm=111111111111111
          Differentiating once with respect to electric field.
                with respect to dipole field.
          Differentiating once with respect to nuclear coordinates.
 Keep R1 and R2 ints in memory in canonical form, NReq=71861342.
          There are    48 degrees of freedom in the 1st order CPHF.  IDoFFX=6 NUNeed=     3.
     45 vectors produced by pass  0 Test12= 1.11D-14 2.08D-09 XBig12= 9.95D+01 3.89D+00.
 AX will form    45 AO Fock derivatives at one time.
     45 vectors produced by pass  1 Test12= 1.11D-14 2.08D-09 XBig12= 1.71D+01 6.16D-01.
     45 vectors produced by pass  2 Test12= 1.11D-14 2.08D-09 XBig12= 6.14D-01 8.88D-02.
     45 vectors produced by pass  3 Test12= 1.11D-14 2.08D-09 XBig12= 5.29D-03 1.31D-02.
     45 vectors produced by pass  4 Test12= 1.11D-14 2.08D-09 XBig12= 4.40D-05 7.28D-04.
     45 vectors produced by pass  5 Test12= 1.11D-14 2.08D-09 XBig12= 4.31D-07 8.43D-05.
     34 vectors produced by pass  6 Test12= 1.11D-14 2.08D-09 XBig12= 2.74D-09 5.68D-06.
     13 vectors produced by pass  7 Test12= 1.11D-14 2.08D-09 XBig12= 1.42D-11 3.56D-07.
      3 vectors produced by pass  8 Test12= 1.11D-14 2.08D-09 XBig12= 7.65D-14 3.06D-08.
      2 vectors produced by pass  9 Test12= 1.11D-14 2.08D-09 XBig12= 5.24D-16 4.12D-09.
 InvSVY:  IOpt=1 It=  1 EMax= 8.88D-15
 Solved reduced A of dimension   322 with    48 vectors.
 Isotropic polarizability for W=    0.000000       70.84 Bohr**3.
 End of Minotr F.D. properties file   721 does not exist.
 End of Minotr F.D. properties file   722 does not exist.
 End of Minotr F.D. properties file   788 does not exist.

 **********************************************************************

            Population analysis using the SCF density.

 **********************************************************************

 Orbital symmetries:
 Alpha Orbitals:
       Occupied  (A) (A) (A) (A) (A) (A) (A) (A) (A) (A) (A) (A)
                 (A) (A) (A) (A) (A) (A) (A) (A) (A) (A) (A) (A)
                 (A) (A) (A) (A) (A) (A) (A)
       Virtual   (A) (A) (A) (A) (A) (A) (A) (A) (A) (A) (A) (A)
                 (A) (A) (A) (A) (A) (A) (A) (A) (A) (A) (A) (A)
                 (A) (A) (A) (A) (A) (A) (A) (A) (A) (A) (A) (A)
                 (A) (A) (A) (A) (A) (A) (A) (A) (A) (A) (A) (A)
                 (A) (A) (A) (A) (A) (A) (A) (A) (A) (A) (A) (A)
                 (A) (A) (A) (A) (A) (A) (A) (A) (A) (A) (A) (A)
                 (A) (A) (A) (A) (A) (A) (A) (A) (A) (A) (A) (A)
                 (A) (A) (A)
 Beta  Orbitals:
       Occupied  (A) (A) (A) (A) (A) (A) (A) (A) (A) (A) (A) (A)
                 (A) (A) (A) (A) (A) (A) (A) (A) (A) (A) (A) (A)
                 (A) (A) (A) (A) (A) (A)
       Virtual   (A) (A) (A) (A) (A) (A) (A) (A) (A) (A) (A) (A)
                 (A) (A) (A) (A) (A) (A) (A) (A) (A) (A) (A) (A)
                 (A) (A) (A) (A) (A) (A) (A) (A) (A) (A) (A) (A)
                 (A) (A) (A) (A) (A) (A) (A) (A) (A) (A) (A) (A)
                 (A) (A) (A) (A) (A) (A) (A) (A) (A) (A) (A) (A)
                 (A) (A) (A) (A) (A) (A) (A) (A) (A) (A) (A) (A)
                 (A) (A) (A) (A) (A) (A) (A) (A) (A) (A) (A) (A)
                 (A) (A) (A) (A)
 The electronic state is 2-A.
 Alpha  occ. eigenvalues --  -19.72263 -19.67734 -19.66873 -10.74330 -10.65087
 Alpha  occ. eigenvalues --  -10.62770 -10.61704 -10.55565  -1.29401  -1.20144
 Alpha  occ. eigenvalues --   -1.11768  -0.93630  -0.89281  -0.80090  -0.73230
 Alpha  occ. eigenvalues --   -0.66116  -0.63296  -0.59951  -0.58271  -0.55403
 Alpha  occ. eigenvalues --   -0.53068  -0.50837  -0.48726  -0.48099  -0.46296
 Alpha  occ. eigenvalues --   -0.43403  -0.42483  -0.40240  -0.39636  -0.36158
 Alpha  occ. eigenvalues --   -0.32088
 Alpha virt. eigenvalues --   -0.03455   0.01280   0.02807   0.02993   0.03638
 Alpha virt. eigenvalues --    0.04450   0.05834   0.06150   0.07329   0.07660
 Alpha virt. eigenvalues --    0.08099   0.08359   0.09130   0.10989   0.11541
 Alpha virt. eigenvalues --    0.12573   0.13680   0.15122   0.15290   0.16402
 Alpha virt. eigenvalues --    0.17163   0.17798   0.18907   0.20144   0.21193
 Alpha virt. eigenvalues --    0.21399   0.23557   0.24499   0.25179   0.25711
 Alpha virt. eigenvalues --    0.27459   0.27635   0.28398   0.29553   0.30619
 Alpha virt. eigenvalues --    0.31313   0.32295   0.32851   0.33375   0.34880
 Alpha virt. eigenvalues --    0.36726   0.38602   0.39070   0.40538   0.42602
 Alpha virt. eigenvalues --    0.48209   0.54215   0.57058   0.68000   0.69253
 Alpha virt. eigenvalues --    0.69789   0.72362   0.73880   0.74801   0.75336
 Alpha virt. eigenvalues --    0.78321   0.79884   0.83789   0.86369   0.92638
 Alpha virt. eigenvalues --    0.94891   0.98261   1.03362   1.07477   1.09522
 Alpha virt. eigenvalues --    1.10345   1.13207   1.15141   1.18856   1.19689
 Alpha virt. eigenvalues --    1.20969   1.23197   1.24978   1.26471   1.29271
 Alpha virt. eigenvalues --    1.34707   1.37803   1.39675   1.42132   1.45612
 Alpha virt. eigenvalues --    1.45926   1.49604   1.64117   1.70140   1.79573
 Alpha virt. eigenvalues --    1.99879   2.06363
  Beta  occ. eigenvalues --  -19.72219 -19.67651 -19.66129 -10.74383 -10.65265
  Beta  occ. eigenvalues --  -10.62760 -10.61067 -10.55565  -1.29248  -1.19937
  Beta  occ. eigenvalues --   -1.09232  -0.92109  -0.88515  -0.79874  -0.72568
  Beta  occ. eigenvalues --   -0.65945  -0.62747  -0.59684  -0.57929  -0.55160
  Beta  occ. eigenvalues --   -0.51348  -0.50520  -0.48084  -0.46580  -0.43331
  Beta  occ. eigenvalues --   -0.42447  -0.41668  -0.39864  -0.39109  -0.34466
  Beta virt. eigenvalues --   -0.09508  -0.03386   0.01250   0.02596   0.02933
  Beta virt. eigenvalues --    0.03846   0.04484   0.06147   0.06608   0.07021
  Beta virt. eigenvalues --    0.07667   0.08180   0.08536   0.09375   0.11078
  Beta virt. eigenvalues --    0.11287   0.13455   0.14030   0.15376   0.15702
  Beta virt. eigenvalues --    0.16560   0.17188   0.17967   0.18450   0.20310
  Beta virt. eigenvalues --    0.21201   0.21557   0.23589   0.24424   0.25104
  Beta virt. eigenvalues --    0.25763   0.27370   0.27711   0.28501   0.29588
  Beta virt. eigenvalues --    0.30579   0.31301   0.32334   0.32829   0.33382
  Beta virt. eigenvalues --    0.35123   0.36833   0.38687   0.39037   0.40690
  Beta virt. eigenvalues --    0.42663   0.48572   0.54616   0.57303   0.68084
  Beta virt. eigenvalues --    0.69134   0.69782   0.72499   0.74284   0.74760
  Beta virt. eigenvalues --    0.76265   0.78688   0.79952   0.84329   0.88103
  Beta virt. eigenvalues --    0.93483   0.93965   0.97860   1.03308   1.07547
  Beta virt. eigenvalues --    1.09544   1.10329   1.13311   1.15270   1.18965
  Beta virt. eigenvalues --    1.20067   1.21163   1.23803   1.25727   1.27079
  Beta virt. eigenvalues --    1.29406   1.34794   1.37975   1.40900   1.42565
  Beta virt. eigenvalues --    1.45880   1.46106   1.49462   1.64253   1.70334
  Beta virt. eigenvalues --    1.80933   1.99880   2.06329
          Condensed to atoms (all electrons):
               1          2          3          4          5          6
     1  O    8.363429   0.162803   0.291556  -0.038020  -0.181587  -0.076660
     2  H    0.162803   0.401376   0.032108   0.003367  -0.016315  -0.019011
     3  C    0.291556   0.032108   9.539853   0.559884  -0.170259  -3.349101
     4  H   -0.038020   0.003367   0.559884   0.427684  -0.157102  -0.062605
     5  C   -0.181587  -0.016315  -0.170259  -0.157102  10.766144  -2.737219
     6  C   -0.076660  -0.019011  -3.349101  -0.062605  -2.737219  10.637775
     7  O   -0.001853   0.000676  -0.232262   0.000447  -0.407867   0.781966
     8  O    0.023539   0.008474  -0.237935  -0.000564  -1.114817   0.613611
     9  C   -0.001570   0.006001  -0.094020  -0.000079  -0.311349   0.156120
    10  C   -0.000186  -0.002645  -0.027720  -0.000270  -0.160209   0.004733
    11  H    0.000018  -0.000054   0.005534  -0.000000   0.009414   0.001946
    12  H   -0.000011   0.000007  -0.004617   0.000000  -0.010994   0.010511
    13  H    0.000000  -0.000000   0.000749   0.000000   0.007418   0.002167
    14  H   -0.000010   0.000002  -0.001678   0.000000   0.001696   0.004696
    15  H    0.000005  -0.000001   0.000527  -0.000000  -0.009607   0.004296
               7          8          9         10         11         12
     1  O   -0.001853   0.023539  -0.001570  -0.000186   0.000018  -0.000011
     2  H    0.000676   0.008474   0.006001  -0.002645  -0.000054   0.000007
     3  C   -0.232262  -0.237935  -0.094020  -0.027720   0.005534  -0.004617
     4  H    0.000447  -0.000564  -0.000079  -0.000270  -0.000000   0.000000
     5  C   -0.407867  -1.114817  -0.311349  -0.160209   0.009414  -0.010994
     6  C    0.781966   0.613611   0.156120   0.004733   0.001946   0.010511
     7  O    8.537856  -0.297067   0.037980  -0.048386  -0.000379  -0.000031
     8  O   -0.297067   9.357731   0.003842   0.044230  -0.067494  -0.037434
     9  C    0.037980   0.003842   5.861080  -0.083473   0.420973   0.427138
    10  C   -0.048386   0.044230  -0.083473   5.779799  -0.057815  -0.073272
    11  H   -0.000379  -0.067494   0.420973  -0.057815   0.496549  -0.031599
    12  H   -0.000031  -0.037434   0.427138  -0.073272  -0.031599   0.485062
    13  H   -0.000183   0.006981  -0.075630   0.400688  -0.000725  -0.000888
    14  H   -0.000514  -0.002039  -0.050730   0.391429  -0.004454   0.003750
    15  H    0.001737  -0.008419  -0.046726   0.405867   0.003575  -0.004654
              13         14         15
     1  O    0.000000  -0.000010   0.000005
     2  H   -0.000000   0.000002  -0.000001
     3  C    0.000749  -0.001678   0.000527
     4  H    0.000000   0.000000  -0.000000
     5  C    0.007418   0.001696  -0.009607
     6  C    0.002167   0.004696   0.004296
     7  O   -0.000183  -0.000514   0.001737
     8  O    0.006981  -0.002039  -0.008419
     9  C   -0.075630  -0.050730  -0.046726
    10  C    0.400688   0.391429   0.405867
    11  H   -0.000725  -0.004454   0.003575
    12  H   -0.000888   0.003750  -0.004654
    13  H    0.495027  -0.024990  -0.022531
    14  H   -0.024990   0.488188  -0.026868
    15  H   -0.022531  -0.026868   0.466518
          Atomic-Atomic Spin Densities.
               1          2          3          4          5          6
     1  O    0.488337   0.000617  -0.008882  -0.013115  -0.044489  -0.044923
     2  H    0.000617  -0.014895  -0.000145   0.000156   0.008232  -0.000524
     3  C   -0.008882  -0.000145   0.085181   0.030835   0.187906  -0.516659
     4  H   -0.013115   0.000156   0.030835   0.037887  -0.023433   0.003898
     5  C   -0.044489   0.008232   0.187906  -0.023433   1.541053  -0.687777
     6  C   -0.044923  -0.000524  -0.516659   0.003898  -0.687777   1.113267
     7  O   -0.001071   0.000128  -0.012883   0.000189  -0.053704   0.048432
     8  O    0.008867  -0.002858  -0.016602  -0.000674  -0.059267   0.041635
     9  C   -0.000299  -0.000695  -0.020988   0.000010  -0.049629   0.054285
    10  C    0.000682  -0.000112  -0.004343  -0.000066  -0.004390   0.012219
    11  H    0.000017  -0.000013   0.000575  -0.000000   0.003432  -0.003633
    12  H    0.000005  -0.000001   0.000249  -0.000000   0.001882  -0.001790
    13  H   -0.000000   0.000000  -0.000047   0.000000  -0.000414   0.000300
    14  H    0.000002  -0.000001   0.000156  -0.000000   0.000818  -0.000857
    15  H    0.000002  -0.000000   0.000123  -0.000000   0.000761  -0.000889
               7          8          9         10         11         12
     1  O   -0.001071   0.008867  -0.000299   0.000682   0.000017   0.000005
     2  H    0.000128  -0.002858  -0.000695  -0.000112  -0.000013  -0.000001
     3  C   -0.012883  -0.016602  -0.020988  -0.004343   0.000575   0.000249
     4  H    0.000189  -0.000674   0.000010  -0.000066  -0.000000  -0.000000
     5  C   -0.053704  -0.059267  -0.049629  -0.004390   0.003432   0.001882
     6  C    0.048432   0.041635   0.054285   0.012219  -0.003633  -0.001790
     7  O    0.054408  -0.013765  -0.001381   0.000263  -0.000021  -0.000096
     8  O   -0.013765   0.036434   0.006730  -0.001325   0.001260   0.000733
     9  C   -0.001381   0.006730   0.016319   0.001381  -0.003258  -0.001578
    10  C    0.000263  -0.001325   0.001381  -0.002831   0.000979   0.000499
    11  H   -0.000021   0.001260  -0.003258   0.000979   0.000999   0.000155
    12  H   -0.000096   0.000733  -0.001578   0.000499   0.000155  -0.000279
    13  H   -0.000010  -0.000074   0.000436  -0.000146  -0.000053  -0.000015
    14  H   -0.000010   0.000173  -0.000590   0.000290   0.000023   0.000001
    15  H   -0.000023   0.000257  -0.000493   0.000221   0.000018   0.000024
              13         14         15
     1  O   -0.000000   0.000002   0.000002
     2  H    0.000000  -0.000001  -0.000000
     3  C   -0.000047   0.000156   0.000123
     4  H    0.000000  -0.000000  -0.000000
     5  C   -0.000414   0.000818   0.000761
     6  C    0.000300  -0.000857  -0.000889
     7  O   -0.000010  -0.000010  -0.000023
     8  O   -0.000074   0.000173   0.000257
     9  C    0.000436  -0.000590  -0.000493
    10  C   -0.000146   0.000290   0.000221
    11  H   -0.000053   0.000023   0.000018
    12  H   -0.000015   0.000001   0.000024
    13  H    0.000374  -0.000018  -0.000063
    14  H   -0.000018   0.000047   0.000023
    15  H   -0.000063   0.000023   0.000131
 Mulliken charges and spin densities:
               1          2
     1  O   -0.541452   0.385749
     2  H    0.423211  -0.010113
     3  C   -0.312620  -0.275523
     4  H    0.267257   0.035686
     5  C    0.492653   0.820981
     6  C    0.026776   0.016982
     7  O   -0.372122   0.020457
     8  O   -0.292640   0.001523
     9  C   -0.249557   0.000250
    10  C   -0.572769   0.003320
    11  H    0.224510   0.000480
    12  H    0.237032  -0.000209
    13  H    0.211917   0.000271
    14  H    0.221522   0.000056
    15  H    0.236281   0.000091
 Sum of Mulliken charges =  -0.00000   1.00000
 Mulliken charges and spin densities with hydrogens summed into heavy atoms:
               1          2
     1  O   -0.118242   0.375636
     3  C   -0.045362  -0.239837
     5  C    0.492653   0.820981
     6  C    0.026776   0.016982
     7  O   -0.372122   0.020457
     8  O   -0.292640   0.001523
     9  C    0.211985   0.000521
    10  C    0.096952   0.003737
 APT charges:
               1
     1  O   -0.445613
     2  H    0.238433
     3  C    0.117816
     4  H    0.180933
     5  C   -0.358802
     6  C    1.418092
     7  O   -0.749064
     8  O   -0.924942
     9  C    0.503429
    10  C   -0.061600
    11  H   -0.000102
    12  H   -0.002200
    13  H    0.020278
    14  H    0.021602
    15  H    0.041740
 Sum of APT charges =   0.00000
 APT charges with hydrogens summed into heavy atoms:
               1
     1  O   -0.207180
     3  C    0.298749
     5  C   -0.358802
     6  C    1.418092
     7  O   -0.749064
     8  O   -0.924942
     9  C    0.501128
    10  C    0.022019
 Electronic spatial extent (au):  <R**2>=           1219.0657
 Charge=             -0.0000 electrons
 Dipole moment (field-independent basis, Debye):
    X=             -2.2848    Y=             -0.6256    Z=             -0.2200  Tot=              2.3791
 Quadrupole moment (field-independent basis, Debye-Ang):
   XX=            -46.2799   YY=            -53.7484   ZZ=            -47.6362
   XY=             11.8182   XZ=              1.7789   YZ=              1.0992
 Traceless Quadrupole moment (field-independent basis, Debye-Ang):
   XX=              2.9416   YY=             -4.5269   ZZ=              1.5853
   XY=             11.8182   XZ=              1.7789   YZ=              1.0992
 Octapole moment (field-independent basis, Debye-Ang**2):
  XXX=            -21.0752  YYY=            -18.3757  ZZZ=             -3.2963  XYY=             -2.6103
  XXY=             22.7585  XXZ=              2.1920  XZZ=             -4.8106  YZZ=             -0.2330
  YYZ=             -2.1839  XYZ=              1.6076
 Hexadecapole moment (field-independent basis, Debye-Ang**3):
 XXXX=          -1112.2926 YYYY=           -346.3628 ZZZZ=           -113.0263 XXXY=            106.6092
 XXXZ=             28.0517 YYYX=              4.8544 YYYZ=              5.3017 ZZZX=              3.0336
 ZZZY=              0.3614 XXYY=           -273.2186 XXZZ=           -214.8304 YYZZ=            -71.9196
 XXYZ=             10.0523 YYXZ=             -0.6771 ZZXY=             -2.1356
 N-N= 3.536349303011D+02 E-N=-1.689240719773D+03  KE= 4.176718580415D+02
  Exact polarizability:  90.739  -9.382  75.598   3.007   2.048  46.193
 Approx polarizability:  96.474 -20.128  93.158   4.576   3.051  48.630
                          Isotropic Fermi Contact Couplings
        Atom                 a.u.       MegaHertz       Gauss      10(-4) cm-1
     1  O(17)              0.03385     -20.51715      -7.32103      -6.84379
     2  H(1)              -0.00671     -29.99277     -10.70217     -10.00451
     3  C(13)             -0.02212     -24.87074      -8.87450      -8.29599
     4  H(1)               0.01571      70.23356      25.06108      23.42739
     5  C(13)              0.14344     161.25174      57.53863      53.78779
     6  C(13)             -0.02417     -27.16965      -9.69481      -9.06282
     7  O(17)              0.01531      -9.27930      -3.31109      -3.09524
     8  O(17)              0.04500     -27.28009      -9.73421      -9.09966
     9  C(13)              0.00522       5.86992       2.09453       1.95799
    10  C(13)             -0.00015      -0.17113      -0.06106      -0.05708
    11  H(1)               0.00014       0.61993       0.22121       0.20679
    12  H(1)              -0.00011      -0.50419      -0.17991      -0.16818
    13  H(1)               0.00016       0.70384       0.25115       0.23478
    14  H(1)               0.00003       0.13801       0.04924       0.04603
    15  H(1)               0.00000       0.00295       0.00105       0.00098
 --------------------------------------------------------
       Center         ----  Spin Dipole Couplings  ----
                      3XX-RR        3YY-RR        3ZZ-RR
 --------------------------------------------------------
     1   Atom       -0.447070      1.192969     -0.745899
     2   Atom        0.056188     -0.004625     -0.051562
     3   Atom        0.148963     -0.080672     -0.068291
     4   Atom       -0.005971      0.007917     -0.001947
     5   Atom       -0.478825      0.773140     -0.294315
     6   Atom        0.018234      0.002805     -0.021038
     7   Atom        0.071387     -0.066388     -0.004999
     8   Atom        0.033321     -0.019306     -0.014015
     9   Atom        0.011679     -0.004770     -0.006909
    10   Atom        0.002593     -0.001113     -0.001480
    11   Atom        0.001472      0.000104     -0.001576
    12   Atom        0.002834     -0.001345     -0.001489
    13   Atom        0.001474     -0.000643     -0.000831
    14   Atom        0.001469     -0.000516     -0.000953
    15   Atom        0.002655     -0.001413     -0.001242
 --------------------------------------------------------
                        XY            XZ            YZ
 --------------------------------------------------------
     1   Atom       -0.758538     -0.056360      0.151191
     2   Atom        0.025667      0.023061      0.012104
     3   Atom        0.006986      0.035389      0.000780
     4   Atom       -0.005376     -0.001342      0.000571
     5   Atom        0.097354     -0.011066      0.167956
     6   Atom       -0.003733      0.005843      0.003026
     7   Atom        0.014511      0.012552     -0.006921
     8   Atom        0.026580      0.012062      0.003433
     9   Atom        0.006586      0.003221      0.001080
    10   Atom        0.001098     -0.001002     -0.000265
    11   Atom        0.001749      0.001130      0.001243
    12   Atom        0.000304      0.002343     -0.000141
    13   Atom        0.000651     -0.000285     -0.000047
    14   Atom        0.001419     -0.001089     -0.000618
    15   Atom        0.000590     -0.001457     -0.000172
 --------------------------------------------------------


 ---------------------------------------------------------------------------------
              Anisotropic Spin Dipole Couplings in Principal Axis System
 ---------------------------------------------------------------------------------

       Atom             a.u.   MegaHertz   Gauss  10(-4) cm-1        Axes

              Baa    -0.7580    54.847    19.571    18.295 -0.1485 -0.1337  0.9798
     1 O(17)  Bbb    -0.7436    53.807    19.200    17.948  0.9196  0.3456  0.1865
              Bcc     1.5016  -108.654   -38.770   -36.243 -0.3636  0.9288  0.0716
 
              Baa    -0.0573   -30.553   -10.902   -10.191 -0.1659 -0.1435  0.9757
     2 H(1)   Bbb    -0.0138    -7.338    -2.618    -2.448 -0.3651  0.9280  0.0744
              Bcc     0.0710    37.890    13.520    12.639  0.9161  0.3439  0.2063
 
              Baa    -0.0809   -10.856    -3.874    -3.621 -0.0367  0.9985  0.0412
     3 C(13)  Bbb    -0.0739    -9.916    -3.538    -3.308 -0.1552 -0.0464  0.9868
              Bcc     0.1548    20.772     7.412     6.929  0.9872  0.0298  0.1567
 
              Baa    -0.0080    -4.271    -1.524    -1.425  0.9343  0.3091  0.1779
     4 H(1)   Bbb    -0.0018    -0.977    -0.349    -0.326 -0.1418 -0.1356  0.9806
              Bcc     0.0098     5.248     1.873     1.751 -0.3272  0.9413  0.0829
 
              Baa    -0.4897   -65.708   -23.446   -21.918  0.9861 -0.0942  0.1369
     5 C(13)  Bbb    -0.3162   -42.436   -15.142   -14.155 -0.1491 -0.1376  0.9792
              Bcc     0.8059   108.145    38.589    36.073  0.0734  0.9860  0.1498
 
              Baa    -0.0224    -3.004    -1.072    -1.002 -0.1536 -0.1402  0.9781
     6 C(13)  Bbb     0.0027     0.358     0.128     0.119  0.1706  0.9712  0.1660
              Bcc     0.0197     2.647     0.944     0.883  0.9733 -0.1924  0.1252
 
              Baa    -0.0690     4.990     1.781     1.665 -0.1134  0.9852  0.1288
     7 O(17)  Bbb    -0.0057     0.411     0.147     0.137 -0.1327 -0.1435  0.9807
              Bcc     0.0746    -5.401    -1.927    -1.802  0.9847  0.0941  0.1470
 
              Baa    -0.0305     2.210     0.789     0.737 -0.3985  0.9115  0.1015
     8 O(17)  Bbb    -0.0164     1.187     0.424     0.396 -0.1446 -0.1717  0.9745
              Bcc     0.0470    -3.398    -1.212    -1.133  0.9057  0.3737  0.2002
 
              Baa    -0.0075    -1.000    -0.357    -0.334 -0.1884  0.0680  0.9797
     9 C(13)  Bbb    -0.0071    -0.950    -0.339    -0.317 -0.3096  0.9426 -0.1249
              Bcc     0.0145     1.950     0.696     0.650  0.9320  0.3268  0.1565
 
              Baa    -0.0017    -0.230    -0.082    -0.077  0.2196  0.0287  0.9752
    10 C(13)  Bbb    -0.0014    -0.190    -0.068    -0.063 -0.2574  0.9659  0.0295
              Bcc     0.0031     0.420     0.150     0.140  0.9410  0.2575 -0.2195
 
              Baa    -0.0022    -1.200    -0.428    -0.400 -0.0768 -0.4204  0.9041
    11 H(1)   Bbb    -0.0010    -0.521    -0.186    -0.174 -0.6401  0.7160  0.2786
              Bcc     0.0032     1.721     0.614     0.574  0.7644  0.5573  0.3242
 
              Baa    -0.0026    -1.370    -0.489    -0.457 -0.3993  0.2029  0.8941
    12 H(1)   Bbb    -0.0013    -0.695    -0.248    -0.232  0.0429  0.9783 -0.2028
              Bcc     0.0039     2.065     0.737     0.689  0.9158  0.0426  0.3994
 
              Baa    -0.0009    -0.471    -0.168    -0.157  0.2303 -0.4571  0.8591
    13 H(1)   Bbb    -0.0008    -0.431    -0.154    -0.144 -0.1795  0.8477  0.4991
              Bcc     0.0017     0.902     0.322     0.301  0.9564  0.2691 -0.1132
 
              Baa    -0.0014    -0.747    -0.267    -0.249  0.1484  0.3951  0.9065
    14 H(1)   Bbb    -0.0012    -0.663    -0.237    -0.221 -0.5284  0.8066 -0.2650
              Bcc     0.0026     1.410     0.503     0.470  0.8359  0.4397 -0.3285
 
              Baa    -0.0017    -0.922    -0.329    -0.308  0.3255 -0.0956  0.9407
    15 H(1)   Bbb    -0.0015    -0.796    -0.284    -0.266 -0.0937  0.9867  0.1327
              Bcc     0.0032     1.718     0.613     0.573  0.9409  0.1313 -0.3122
 

 ---------------------------------------------------------------------------------

 Calling FoFJK, ICntrl=    100127 FMM=F ISym2X=0 I1Cent= 0 IOpClX= 1 NMat=1 NMatS=1 NMatT=0.
 Full mass-weighted force constant matrix:
 Low frequencies --- -656.6946 -366.4696 -139.3917  -88.4459  -52.2452   -0.0001
 Low frequencies ---    0.0008    0.0012   42.6680
 ******    4 imaginary frequencies (negative Signs) ****** 
 Diagonal vibrational polarizability:
       45.7901557      19.3639350      68.3804863
 Harmonic frequencies (cm**-1), IR intensities (KM/Mole), Raman scattering
 activities (A**4/AMU), depolarization ratios for plane and unpolarized
 incident light, reduced masses (AMU), force constants (mDyne/A),
 and normal coordinates:
                      1                      2                      3
                      A                      A                      A
 Frequencies --   -656.6908              -364.3549               -84.6370
 Red. masses --     11.9086                 1.0620                 7.0543
 Frc consts  --      3.0257                 0.0831                 0.0298
 IR Inten    --     14.3979               130.3241                 0.0538
  Atom  AN      X      Y      Z        X      Y      Z        X      Y      Z
     1   8     0.05  -0.48  -0.06     0.01   0.01  -0.05    -0.04  -0.00  -0.25
     2   1    -0.12  -0.03  -0.05    -0.17  -0.14   0.97    -0.05   0.09  -0.37
     3   6     0.00   0.79   0.11     0.00   0.00  -0.02     0.02  -0.00  -0.01
     4   1     0.26  -0.08   0.03     0.01   0.01  -0.08     0.05  -0.06  -0.06
     5   6    -0.03  -0.20  -0.03    -0.00  -0.00   0.02     0.01   0.04   0.25
     6   6    -0.03   0.01  -0.00     0.00   0.00   0.01     0.02   0.03   0.14
     7   8     0.00   0.02   0.00     0.00   0.00   0.00     0.05   0.07  -0.29
     8   8    -0.01   0.01  -0.00     0.00   0.00   0.01     0.03  -0.02   0.37
     9   6    -0.01   0.00  -0.00     0.00   0.00  -0.01     0.09  -0.04   0.04
    10   6    -0.00   0.00   0.00    -0.01  -0.00  -0.02    -0.17  -0.07  -0.11
    11   1     0.00   0.00   0.00     0.01   0.01  -0.02     0.21  -0.03   0.01
    12   1    -0.01   0.00  -0.00     0.01   0.01  -0.01     0.22  -0.03  -0.01
    13   1    -0.00  -0.00   0.00    -0.01  -0.00  -0.02    -0.14  -0.03  -0.32
    14   1     0.00   0.00  -0.00    -0.01  -0.01  -0.02    -0.31  -0.11  -0.07
    15   1    -0.00   0.00   0.00    -0.01  -0.01  -0.01    -0.24  -0.10  -0.06
                      4                      5                      6
                      A                      A                      A
 Frequencies --    -33.4149                50.3226               148.9238
 Red. masses --      3.3389                 3.7649                 5.2596
 Frc consts  --      0.0022                 0.0056                 0.0687
 IR Inten    --      1.5553                 1.5722                12.7198
  Atom  AN      X      Y      Z        X      Y      Z        X      Y      Z
     1   8     0.20   0.06   0.04     0.21   0.09  -0.04     0.05   0.05  -0.17
     2   1     0.26  -0.08   0.03     0.26  -0.03  -0.10     0.04  -0.01  -0.02
     3   6     0.03  -0.00   0.03     0.04   0.04  -0.06    -0.06  -0.02   0.20
     4   1    -0.02   0.12   0.05     0.02   0.16  -0.10    -0.09   0.00   0.31
     5   6    -0.01  -0.14  -0.01    -0.01  -0.10   0.00    -0.10  -0.08   0.32
     6   6    -0.01  -0.03  -0.03    -0.02  -0.10   0.06    -0.04  -0.05   0.00
     7   8     0.11   0.06  -0.10    -0.01  -0.10   0.12    -0.03  -0.03  -0.18
     8   8    -0.13   0.01   0.00    -0.04  -0.09   0.04    -0.01  -0.03  -0.18
     9   6    -0.15   0.14   0.01    -0.04  -0.04  -0.02    -0.04  -0.02  -0.01
    10   6    -0.07  -0.13   0.05    -0.17   0.25  -0.09     0.19   0.16   0.13
    11   1    -0.23   0.26  -0.21    -0.05  -0.13   0.14    -0.12  -0.09   0.12
    12   1    -0.14   0.31   0.22     0.07  -0.14  -0.20    -0.11  -0.10  -0.06
    13   1    -0.11   0.07   0.07    -0.15   0.20  -0.16     0.15   0.15   0.36
    14   1    -0.13  -0.36  -0.20    -0.24   0.38   0.12     0.30   0.24   0.16
    15   1     0.10  -0.29   0.31    -0.22   0.36  -0.29     0.29   0.23  -0.02
                      7                      8                      9
                      A                      A                      A
 Frequencies --    176.3158               284.1904               290.4246
 Red. masses --      1.1997                 2.8252                 3.6245
 Frc consts  --      0.0220                 0.1344                 0.1801
 IR Inten    --      3.1291                15.5702                14.9052
  Atom  AN      X      Y      Z        X      Y      Z        X      Y      Z
     1   8    -0.04   0.02   0.00    -0.12   0.06   0.07    -0.10   0.10  -0.12
     2   1    -0.04   0.04  -0.01    -0.13   0.17  -0.04    -0.17   0.20   0.07
     3   6     0.00   0.03  -0.01     0.06   0.09  -0.14     0.03   0.05   0.26
     4   1     0.01   0.02  -0.02     0.11   0.12  -0.43    -0.03  -0.04   0.70
     5   6     0.00   0.03  -0.00     0.01  -0.00   0.12     0.08   0.05  -0.19
     6   6     0.01  -0.03   0.00     0.03  -0.12   0.08     0.09  -0.08  -0.13
     7   8    -0.03  -0.06   0.00     0.01  -0.12  -0.03     0.06  -0.11   0.00
     8   8     0.03  -0.04   0.01     0.01  -0.10  -0.00     0.01  -0.09   0.03
     9   6     0.02   0.01  -0.00    -0.03   0.17  -0.05    -0.03   0.07   0.06
    10   6     0.02   0.04  -0.00     0.05   0.01  -0.01    -0.08   0.01   0.03
    11   1    -0.03   0.03  -0.03    -0.19   0.29  -0.24    -0.13   0.13  -0.03
    12   1     0.07   0.05   0.02     0.09   0.36   0.14     0.06   0.17   0.14
    13   1    -0.08   0.62  -0.05     0.09  -0.30   0.08    -0.03  -0.18  -0.03
    14   1    -0.37  -0.30  -0.19     0.33   0.13  -0.03     0.01   0.10   0.08
    15   1     0.49  -0.12   0.22    -0.17   0.04  -0.03    -0.27   0.04   0.01
                     10                     11                     12
                      A                      A                      A
 Frequencies --    331.9185               416.4937               555.2183
 Red. masses --      4.6624                 3.8587                 6.2727
 Frc consts  --      0.3026                 0.3944                 1.1393
 IR Inten    --      3.1252                 2.5223                 8.9327
  Atom  AN      X      Y      Z        X      Y      Z        X      Y      Z
     1   8    -0.19   0.14   0.01    -0.04   0.06  -0.01     0.08  -0.13  -0.01
     2   1    -0.25   0.33   0.00    -0.03   0.04  -0.01     0.11  -0.20  -0.01
     3   6     0.08   0.11  -0.03    -0.07   0.00   0.03    -0.01   0.02   0.01
     4   1     0.10   0.15  -0.17    -0.12   0.06   0.16     0.04  -0.13   0.01
     5   6     0.02  -0.11   0.08    -0.08  -0.14  -0.15     0.09   0.52   0.06
     6   6     0.04  -0.06   0.01    -0.07  -0.02   0.04     0.02  -0.10   0.02
     7   8     0.28   0.11   0.05     0.06   0.07   0.04     0.14  -0.02   0.02
     8   8    -0.07   0.01  -0.12    -0.10  -0.04   0.23    -0.15  -0.07   0.04
     9   6    -0.06  -0.21   0.01     0.01  -0.03  -0.17    -0.23  -0.09  -0.14
    10   6    -0.07  -0.05   0.01     0.23   0.04  -0.08     0.00  -0.01  -0.01
    11   1     0.06  -0.33   0.21     0.05  -0.03  -0.17    -0.15  -0.14  -0.07
    12   1    -0.19  -0.40  -0.17     0.11   0.00  -0.18    -0.20  -0.13  -0.20
    13   1    -0.10   0.14  -0.02     0.16   0.05   0.33    -0.08   0.03   0.42
    14   1    -0.24  -0.09   0.06     0.47   0.10  -0.16     0.23   0.04  -0.09
    15   1     0.08  -0.04  -0.03     0.46   0.07  -0.18     0.27   0.03  -0.12
                     13                     14                     15
                      A                      A                      A
 Frequencies --    596.9060               752.5913               813.8390
 Red. masses --      5.0841                11.4245                 1.3330
 Frc consts  --      1.0673                 3.8125                 0.5202
 IR Inten    --     10.3701                28.3966                15.2537
  Atom  AN      X      Y      Z        X      Y      Z        X      Y      Z
     1   8    -0.03   0.02  -0.00     0.00   0.00  -0.01    -0.00   0.01   0.00
     2   1    -0.16   0.37   0.03    -0.00  -0.02   0.05     0.04  -0.11  -0.00
     3   6     0.33  -0.02   0.05    -0.03  -0.01   0.12    -0.04   0.01  -0.02
     4   1     0.36  -0.08   0.06    -0.01   0.01  -0.00    -0.06  -0.01   0.08
     5   6     0.26  -0.10   0.00     0.05   0.06  -0.39    -0.03   0.00   0.01
     6   6     0.03   0.09   0.04    -0.11  -0.13   0.79     0.04  -0.03  -0.01
     7   8    -0.23  -0.09  -0.05     0.04   0.02  -0.20     0.03  -0.07  -0.00
     8   8    -0.13   0.15   0.05     0.03   0.03  -0.20    -0.03   0.05   0.01
     9   6    -0.14  -0.04  -0.09     0.02   0.02   0.01     0.02   0.09   0.01
    10   6     0.00  -0.02  -0.01    -0.00   0.01   0.02     0.01   0.03  -0.01
    11   1     0.10  -0.16   0.09     0.02  -0.04   0.13     0.12  -0.19   0.49
    12   1    -0.24  -0.21  -0.25    -0.07  -0.07  -0.07    -0.00  -0.27  -0.42
    13   1    -0.05   0.02   0.28     0.02  -0.01  -0.12     0.06  -0.16  -0.07
    14   1     0.16  -0.02  -0.10    -0.08  -0.04   0.00     0.16  -0.18  -0.35
    15   1     0.19  -0.02  -0.03    -0.12  -0.02   0.10    -0.14  -0.17   0.37
                     16                     17                     18
                      A                      A                      A
 Frequencies --    819.9477               887.8532               922.6198
 Red. masses --      1.3809                 2.6228                 1.4409
 Frc consts  --      0.5470                 1.2181                 0.7227
 IR Inten    --     36.9298                37.6942                59.1988
  Atom  AN      X      Y      Z        X      Y      Z        X      Y      Z
     1   8    -0.00  -0.00   0.02    -0.02   0.02   0.00     0.04  -0.07  -0.00
     2   1    -0.01  -0.01   0.05     0.11  -0.35  -0.03    -0.22   0.66   0.06
     3   6     0.03   0.02  -0.17    -0.06   0.03  -0.00     0.03  -0.04  -0.00
     4   1    -0.14  -0.15   0.96    -0.01  -0.12  -0.03    -0.16   0.52   0.06
     5   6    -0.00  -0.01   0.03    -0.02   0.01  -0.00    -0.00   0.04   0.01
     6   6    -0.01  -0.00   0.04     0.09  -0.07   0.00    -0.05  -0.03  -0.01
     7   8    -0.00   0.01  -0.00     0.04  -0.15  -0.02     0.00   0.01   0.00
     8   8     0.00  -0.00  -0.01    -0.14   0.19   0.02    -0.08  -0.01  -0.00
     9   6    -0.00  -0.01  -0.00     0.07  -0.02   0.06     0.04   0.01   0.06
    10   6    -0.00  -0.01   0.00     0.08  -0.04  -0.04     0.09   0.01  -0.04
    11   1    -0.01   0.02  -0.05     0.24   0.11  -0.18    -0.06   0.01   0.08
    12   1    -0.00   0.03   0.04    -0.24   0.06   0.32    -0.03  -0.00   0.08
    13   1    -0.00   0.02   0.00     0.09   0.17  -0.29     0.14  -0.01  -0.35
    14   1    -0.02   0.01   0.03    -0.24   0.12   0.33    -0.09  -0.03  -0.00
    15   1     0.01   0.01  -0.03     0.08   0.14  -0.37    -0.10  -0.00   0.01
                     19                     20                     21
                      A                      A                      A
 Frequencies --    946.9763              1097.5103              1108.7158
 Red. masses --      1.8394                 1.6490                 1.8938
 Frc consts  --      0.9719                 1.1703                 1.3716
 IR Inten    --     18.1255                 1.0282                11.2979
  Atom  AN      X      Y      Z        X      Y      Z        X      Y      Z
     1   8     0.02  -0.04  -0.00    -0.04  -0.01  -0.01    -0.05  -0.01  -0.01
     2   1    -0.14   0.40   0.04     0.14  -0.52  -0.05     0.15  -0.57  -0.06
     3   6    -0.08  -0.02  -0.02     0.02   0.00   0.00     0.09   0.00   0.01
     4   1    -0.28   0.54   0.04    -0.21   0.67   0.06    -0.12   0.63   0.07
     5   6    -0.05  -0.02  -0.01     0.02  -0.02  -0.00     0.04   0.02   0.01
     6   6     0.10   0.01   0.02     0.07   0.05   0.02    -0.07  -0.04  -0.02
     7   8     0.03  -0.08  -0.01    -0.01   0.00  -0.00    -0.01   0.02   0.00
     8   8     0.08   0.09   0.01     0.07  -0.01   0.01    -0.09  -0.01  -0.02
     9   6    -0.02   0.00  -0.08    -0.15  -0.02   0.07     0.16   0.01  -0.09
    10   6    -0.11  -0.03   0.06     0.05  -0.00  -0.09    -0.05   0.01   0.10
    11   1     0.23   0.02  -0.14    -0.19  -0.04   0.12     0.13   0.03  -0.14
    12   1     0.01   0.01  -0.08    -0.20  -0.02   0.11     0.23   0.02  -0.11
    13   1    -0.19   0.05   0.46     0.06   0.00  -0.13    -0.04  -0.02   0.09
    14   1     0.08   0.07   0.08     0.04  -0.01  -0.10    -0.05  -0.00   0.10
    15   1     0.17   0.03  -0.08     0.04   0.01  -0.12    -0.08  -0.02   0.17
                     22                     23                     24
                      A                      A                      A
 Frequencies --   1154.8692              1226.4551              1305.3398
 Red. masses --      2.0267                 1.7553                 3.6495
 Frc consts  --      1.5926                 1.5556                 3.6638
 IR Inten    --     18.4277                 7.9752               445.7645
  Atom  AN      X      Y      Z        X      Y      Z        X      Y      Z
     1   8    -0.00  -0.00  -0.00    -0.00  -0.00  -0.00     0.01   0.00   0.00
     2   1     0.00  -0.02  -0.00     0.01  -0.02  -0.00    -0.02   0.08   0.01
     3   6     0.02  -0.00   0.00     0.03  -0.00   0.00    -0.08   0.01  -0.01
     4   1     0.02   0.02   0.00     0.03   0.02   0.01    -0.08  -0.02  -0.02
     5   6     0.01   0.01   0.00     0.00   0.00   0.00     0.00  -0.01  -0.00
     6   6    -0.04  -0.03  -0.01    -0.07  -0.04  -0.02     0.28   0.22   0.08
     7   8     0.00   0.01  -0.00    -0.00   0.03   0.01    -0.04   0.01  -0.00
     8   8    -0.05   0.00  -0.05     0.03  -0.06  -0.00    -0.17  -0.15  -0.04
     9   6     0.09   0.00   0.20    -0.02   0.19   0.01     0.12   0.04  -0.02
    10   6    -0.09  -0.01  -0.16     0.01  -0.13  -0.01    -0.01  -0.08   0.01
    11   1     0.08   0.07   0.10     0.38  -0.03   0.35    -0.67  -0.07   0.26
    12   1     0.24   0.04   0.18    -0.22  -0.17  -0.33     0.21  -0.08  -0.23
    13   1    -0.19  -0.02   0.53    -0.07   0.26   0.05    -0.05   0.11   0.05
    14   1     0.43   0.10  -0.32    -0.11   0.14   0.38    -0.04   0.10   0.25
    15   1     0.40  -0.04  -0.17     0.15   0.10  -0.44     0.09   0.02  -0.18
                     25                     26                     27
                      A                      A                      A
 Frequencies --   1363.5154              1440.6628              1458.0879
 Red. masses --      1.3060                 1.3111                 1.2502
 Frc consts  --      1.4306                 1.6033                 1.5660
 IR Inten    --    108.4292                11.1890                19.4078
  Atom  AN      X      Y      Z        X      Y      Z        X      Y      Z
     1   8    -0.00  -0.00  -0.00     0.00   0.00   0.00     0.00   0.00   0.00
     2   1     0.01  -0.02  -0.00    -0.00   0.00  -0.00     0.00  -0.00  -0.00
     3   6     0.01  -0.00   0.00    -0.01   0.00  -0.00    -0.00   0.00  -0.00
     4   1     0.02   0.00   0.00    -0.02   0.00  -0.00    -0.00   0.00  -0.00
     5   6    -0.00   0.00   0.00     0.00  -0.00   0.00     0.00  -0.00   0.00
     6   6    -0.06  -0.05  -0.02     0.05   0.03   0.01     0.01   0.01   0.00
     7   8     0.01  -0.02  -0.00    -0.01   0.01  -0.00    -0.00  -0.00  -0.00
     8   8     0.03   0.10   0.01    -0.04  -0.04  -0.03    -0.01  -0.01  -0.01
     9   6    -0.04  -0.01   0.00    -0.10  -0.01   0.07    -0.03  -0.00   0.03
    10   6     0.02  -0.06   0.01     0.02   0.01   0.05     0.09   0.01  -0.11
    11   1    -0.57  -0.07   0.20     0.57   0.13  -0.29     0.14   0.05  -0.09
    12   1     0.69   0.11  -0.23     0.58   0.01  -0.28     0.16  -0.02  -0.09
    13   1    -0.00   0.06  -0.02     0.08  -0.01  -0.23    -0.05   0.01   0.55
    14   1    -0.07   0.01   0.14     0.04  -0.12  -0.13    -0.44   0.09   0.32
    15   1     0.03   0.04  -0.18     0.01   0.11  -0.14    -0.37  -0.19   0.35
                     28                     29                     30
                      A                      A                      A
 Frequencies --   1528.6510              1537.5865              1545.5041
 Red. masses --      1.0414                 1.0663                 1.0729
 Frc consts  --      1.4338                 1.4853                 1.5099
 IR Inten    --     16.4142                 3.2244                21.8412
  Atom  AN      X      Y      Z        X      Y      Z        X      Y      Z
     1   8    -0.00   0.00  -0.00     0.00   0.00   0.00     0.00   0.00  -0.00
     2   1     0.00  -0.00   0.00    -0.00   0.00   0.00    -0.00   0.00   0.00
     3   6    -0.00  -0.00  -0.00    -0.00   0.00  -0.00    -0.00   0.00  -0.00
     4   1    -0.00   0.00   0.00    -0.00  -0.00  -0.00    -0.00  -0.00  -0.00
     5   6     0.00   0.00  -0.00     0.00  -0.00   0.00     0.00  -0.00   0.00
     6   6    -0.00   0.00  -0.00     0.02   0.00   0.00     0.01   0.00   0.00
     7   8     0.00  -0.00   0.00    -0.01   0.01   0.00    -0.01   0.01   0.00
     8   8     0.00   0.00   0.00    -0.02  -0.01  -0.01    -0.01  -0.01  -0.01
     9   6    -0.01  -0.02   0.01    -0.01  -0.01  -0.06    -0.04  -0.01  -0.04
    10   6    -0.00  -0.05  -0.01     0.03  -0.01   0.02    -0.03   0.00  -0.03
    11   1    -0.00   0.04  -0.11     0.22  -0.28   0.42     0.24  -0.20   0.28
    12   1     0.01  -0.04  -0.03     0.13   0.38   0.39     0.18   0.29   0.23
    13   1    -0.10   0.65  -0.15    -0.06   0.19   0.19     0.05  -0.14  -0.26
    14   1     0.51   0.26   0.04    -0.03  -0.22  -0.23     0.09   0.34   0.34
    15   1    -0.37  -0.12   0.22    -0.35   0.15  -0.22     0.38  -0.23   0.35
                     31                     32                     33
                      A                      A                      A
 Frequencies --   1895.5428              1962.3791              3108.0705
 Red. masses --     11.4150                 7.8463                 1.0352
 Frc consts  --     24.1654                17.8024                 5.8917
 IR Inten    --    279.9273               179.3634                11.3561
  Atom  AN      X      Y      Z        X      Y      Z        X      Y      Z
     1   8    -0.00  -0.01  -0.00     0.00   0.04   0.01    -0.00   0.00  -0.00
     2   1     0.02  -0.08  -0.01    -0.01   0.07   0.01     0.00  -0.00   0.00
     3   6     0.20  -0.03   0.03    -0.40   0.05  -0.05     0.00  -0.00   0.00
     4   1     0.28   0.04   0.05    -0.61  -0.00  -0.09    -0.00   0.00   0.00
     5   6    -0.24   0.04  -0.03     0.59  -0.10   0.08    -0.00  -0.00  -0.00
     6   6    -0.37   0.61   0.03    -0.24   0.13  -0.02     0.00   0.00   0.00
     7   8     0.29  -0.39  -0.01     0.07  -0.09  -0.00     0.00  -0.00  -0.00
     8   8    -0.01  -0.06  -0.01    -0.01  -0.02  -0.00    -0.00  -0.00  -0.00
     9   6    -0.02   0.01  -0.00     0.00   0.01   0.00     0.00   0.00  -0.00
    10   6     0.01  -0.00   0.01    -0.00   0.00   0.00    -0.03  -0.01   0.04
    11   1     0.15  -0.05   0.06     0.03  -0.00   0.02    -0.00   0.01   0.00
    12   1     0.08   0.10   0.03     0.01   0.02   0.01     0.01  -0.02   0.02
    13   1     0.02  -0.03  -0.04     0.00  -0.01  -0.00     0.59   0.11   0.11
    14   1    -0.03  -0.02   0.00    -0.01  -0.00  -0.00    -0.22   0.43  -0.34
    15   1     0.03   0.03  -0.03     0.01   0.01  -0.01    -0.05  -0.46  -0.24
                     34                     35                     36
                      A                      A                      A
 Frequencies --   3140.4786              3188.3928              3192.5188
 Red. masses --      1.0600                 1.1005                 1.1026
 Frc consts  --      6.1594                 6.5917                 6.6210
 IR Inten    --     17.3428                12.5951                 5.0813
  Atom  AN      X      Y      Z        X      Y      Z        X      Y      Z
     1   8     0.00  -0.00  -0.00    -0.00   0.00   0.00     0.00  -0.00   0.00
     2   1    -0.00   0.00   0.00     0.00  -0.00  -0.00    -0.00  -0.00  -0.00
     3   6    -0.00   0.00  -0.00     0.00   0.00   0.00     0.00  -0.00  -0.00
     4   1    -0.00  -0.00  -0.00    -0.00  -0.00  -0.00    -0.00  -0.00   0.00
     5   6     0.00   0.00   0.00    -0.00   0.00   0.00     0.00  -0.00  -0.00
     6   6    -0.00  -0.00  -0.00     0.00   0.00   0.00    -0.00   0.00  -0.00
     7   8    -0.00   0.00  -0.00    -0.00  -0.00  -0.00     0.00  -0.00   0.00
     8   8     0.00   0.00   0.00     0.00  -0.00   0.00     0.00   0.00  -0.00
     9   6     0.02  -0.01   0.06    -0.00  -0.04  -0.01    -0.01   0.05  -0.00
    10   6    -0.01  -0.00  -0.01    -0.06   0.04  -0.03    -0.05  -0.05  -0.03
    11   1    -0.04  -0.50  -0.26     0.03   0.35   0.20    -0.03  -0.35  -0.20
    12   1    -0.25   0.61  -0.46    -0.05   0.10  -0.09     0.12  -0.29   0.23
    13   1     0.12   0.02   0.03     0.54   0.11   0.09     0.52   0.09   0.09
    14   1     0.02  -0.05   0.03     0.24  -0.51   0.41    -0.01  -0.02   0.00
    15   1    -0.00   0.02   0.01    -0.03  -0.12  -0.08     0.04   0.56   0.29
                     37                     38                     39
                      A                      A                      A
 Frequencies --   3213.2685              3371.3122              3838.4522
 Red. masses --      1.1057                 1.1194                 1.0678
 Frc consts  --      6.7265                 7.4962                 9.2691
 IR Inten    --     13.8452                19.6301                29.2555
  Atom  AN      X      Y      Z        X      Y      Z        X      Y      Z
     1   8    -0.00   0.00  -0.00     0.00   0.00   0.00    -0.06  -0.02  -0.01
     2   1     0.00  -0.00   0.00    -0.01   0.00  -0.00     0.93   0.31   0.20
     3   6     0.00   0.00   0.00    -0.10  -0.02  -0.02    -0.00   0.00  -0.00
     4   1    -0.00  -0.00  -0.00     0.93   0.30   0.19     0.01   0.00   0.00
     5   6    -0.00   0.00  -0.00     0.02  -0.00   0.00     0.00  -0.00   0.00
     6   6     0.00  -0.00  -0.00    -0.00  -0.00  -0.00     0.00   0.00   0.00
     7   8    -0.00   0.00   0.00    -0.00   0.00   0.00    -0.00  -0.00  -0.00
     8   8     0.00  -0.00   0.00    -0.00  -0.00  -0.00    -0.00  -0.00  -0.00
     9   6     0.01  -0.07  -0.00     0.00  -0.00   0.00    -0.00   0.00   0.00
    10   6     0.00  -0.06  -0.00    -0.00   0.00  -0.00    -0.00   0.00  -0.00
    11   1     0.04   0.51   0.29    -0.00   0.00   0.00    -0.00  -0.00  -0.00
    12   1    -0.13   0.30  -0.25    -0.00   0.00  -0.00     0.00  -0.00   0.00
    13   1     0.10   0.00   0.02     0.00   0.00   0.00    -0.00  -0.00   0.00
    14   1    -0.14   0.28  -0.24    -0.00   0.00  -0.00     0.00  -0.00   0.00
    15   1     0.04   0.49   0.27    -0.00   0.00   0.00     0.00  -0.00  -0.00

 -------------------
 - Thermochemistry -
 -------------------
 Temperature   298.150 Kelvin.  Pressure   1.00000 Atm.
 Atom     1 has atomic number  8 and mass  15.99491
 Atom     2 has atomic number  1 and mass   1.00783
 Atom     3 has atomic number  6 and mass  12.00000
 Atom     4 has atomic number  1 and mass   1.00783
 Atom     5 has atomic number  6 and mass  12.00000
 Atom     6 has atomic number  6 and mass  12.00000
 Atom     7 has atomic number  8 and mass  15.99491
 Atom     8 has atomic number  8 and mass  15.99491
 Atom     9 has atomic number  6 and mass  12.00000
 Atom    10 has atomic number  6 and mass  12.00000
 Atom    11 has atomic number  1 and mass   1.00783
 Atom    12 has atomic number  1 and mass   1.00783
 Atom    13 has atomic number  1 and mass   1.00783
 Atom    14 has atomic number  1 and mass   1.00783
 Atom    15 has atomic number  1 and mass   1.00783
 Molecular mass:   115.03952 amu.
 Principal axes and moments of inertia in atomic units:
                           1         2         3
     Eigenvalues --   487.880261565.946861907.94467
           X            0.99961   0.02728  -0.00544
           Y           -0.02728   0.99963  -0.00012
           Z            0.00544   0.00027   0.99999
 This molecule is an asymmetric top.
 Rotational symmetry number  1.
 Warning -- assumption of classical behavior for rotation
           may cause significant error
 Rotational temperatures (Kelvin)      0.17753     0.05531     0.04540
 Rotational constants (GHZ):           3.69915     1.15249     0.94591
    4 imaginary frequencies ignored.
 Zero-point vibrational energy     297103.7 (Joules/Mol)
                                   71.00948 (Kcal/Mol)
 Warning -- explicit consideration of   9 degrees of freedom as
           vibrations may cause significant error
 Vibrational temperatures:     72.40   214.27   253.68   408.89   417.86
          (Kelvin)            477.56   599.24   798.84   858.81  1082.81
                             1170.93  1179.72  1277.42  1327.44  1362.49
                             1579.07  1595.19  1661.60  1764.60  1878.09
                             1961.79  2072.79  2097.86  2199.39  2212.24
                             2223.64  2727.26  2823.43  4471.82  4518.45
                             4587.39  4593.32  4623.18  4850.57  5522.68
 
 Zero-point correction=                           0.113161 (Hartree/Particle)
 Thermal correction to Energy=                    0.120490
 Thermal correction to Enthalpy=                  0.121434
 Thermal correction to Gibbs Free Energy=         0.079808
 Sum of electronic and zero-point Energies=           -419.857329
 Sum of electronic and thermal Energies=              -419.850000
 Sum of electronic and thermal Enthalpies=            -419.849056
 Sum of electronic and thermal Free Energies=         -419.890682
 
                     E (Thermal)             CV                S
                      KCal/Mol        Cal/Mol-Kelvin    Cal/Mol-Kelvin
 Total                   75.608             25.379             87.610
 Electronic               0.000              0.000              1.377
 Translational            0.889              2.981             40.136
 Rotational               0.889              2.981             28.768
 Vibrational             73.831             19.417             17.329
 Vibration     1          0.595              1.977              4.805
 Vibration     2          0.618              1.904              2.686
 Vibration     3          0.628              1.872              2.367
 Vibration     4          0.683              1.703              1.508
 Vibration     5          0.686              1.692              1.471
 Vibration     6          0.714              1.612              1.251
 Vibration     7          0.780              1.434              0.904
 Vibration     8          0.911              1.128              0.533
 Vibration     9          0.955              1.038              0.455
                       Q            Log10(Q)             Ln(Q)
 Total Bot       0.195468D-36        -36.708924        -84.525421
 Total V=0       0.219477D+16         15.341390         35.324856
 Vib (Bot)       0.466281D-50        -50.331352       -115.892220
 Vib (Bot)    1  0.410782D+01          0.613612          1.412893
 Vib (Bot)    2  0.136198D+01          0.134171          0.308941
 Vib (Bot)    3  0.114059D+01          0.057128          0.131542
 Vib (Bot)    4  0.675019D+00         -0.170684         -0.393014
 Vib (Bot)    5  0.658308D+00         -0.181571         -0.418083
 Vib (Bot)    6  0.562262D+00         -0.250061         -0.575787
 Vib (Bot)    7  0.422716D+00         -0.373951         -0.861055
 Vib (Bot)    8  0.281232D+00         -0.550935         -1.268575
 Vib (Bot)    9  0.250952D+00         -0.600410         -1.382496
 Vib (V=0)       0.523554D+02          1.718962          3.958056
 Vib (V=0)    1  0.463814D+01          0.666344          1.534313
 Vib (V=0)    2  0.195086D+01          0.290226          0.668270
 Vib (V=0)    3  0.174537D+01          0.241887          0.556964
 Vib (V=0)    4  0.134003D+01          0.127115          0.292692
 Vib (V=0)    5  0.132666D+01          0.122760          0.282666
 Vib (V=0)    6  0.125242D+01          0.097751          0.225079
 Vib (V=0)    7  0.115474D+01          0.062485          0.143878
 Vib (V=0)    8  0.107366D+01          0.030869          0.071078
 Vib (V=0)    9  0.105944D+01          0.025078          0.057743
 Electronic      0.200000D+01          0.301030          0.693147
 Translational   0.484981D+08          7.685724         17.697035
 Rotational      0.432189D+06          5.635674         12.976618
 ***** Axes restored to original set *****
 -------------------------------------------------------------------
 Center     Atomic                   Forces (Hartrees/Bohr)
 Number     Number              X              Y              Z
 -------------------------------------------------------------------
      1        8           0.010390017    0.054761405    0.009063468
      2        1          -0.014683489   -0.006566500   -0.003342956
      3        6           0.017716613   -0.062102061   -0.005555424
      4        1          -0.002122703    0.000857125   -0.000205686
      5        6          -0.015218923    0.014663442   -0.000302955
      6        6           0.051129056   -0.016257931    0.005425053
      7        8          -0.031922945    0.038181999    0.000494156
      8        8           0.002321405   -0.016312589   -0.001978770
      9        6          -0.014859912   -0.007935993   -0.004744388
     10        6          -0.000325625   -0.000109672    0.000096396
     11        1          -0.000223596   -0.000700757   -0.000469719
     12        1          -0.000784654    0.001211606   -0.000827326
     13        1          -0.001498692   -0.000123674    0.000313489
     14        1           0.000383262   -0.000788583    0.000877734
     15        1          -0.000299816    0.001222183    0.001156930
 -------------------------------------------------------------------
 Cartesian Forces:  Max     0.062102061 RMS     0.017694650

 GradGradGradGradGradGradGradGradGradGradGradGradGradGradGradGradGradGrad
 Berny optimization.
 Search for a local minimum.
 Step number   1 out of a maximum of    2
 All quantities printed in internal units (Hartrees-Bohrs-Radians)
 Second derivative matrix not updated -- analytic derivatives used.
 ITU=  0
     Eigenvalues ---   -0.20615  -0.00709  -0.00424  -0.00005   0.00052
     Eigenvalues ---    0.00153   0.00622   0.01093   0.01451   0.02157
     Eigenvalues ---    0.03237   0.03505   0.04822   0.06601   0.07336
     Eigenvalues ---    0.07934   0.08826   0.10530   0.10818   0.12103
     Eigenvalues ---    0.12848   0.14700   0.16066   0.17818   0.20364
     Eigenvalues ---    0.26908   0.29630   0.42981   0.49148   0.63708
     Eigenvalues ---    0.72159   0.78354   0.80090   0.88575   0.92268
     Eigenvalues ---    0.95755   1.02838   1.84606   1.98451
 Eigenvalue     1 is  -2.06D-01 should be greater than     0.000000 Eigenvector:
                          Y3        Y1        Y5        X4        X1
   1                    0.77074  -0.55670  -0.19913   0.12917   0.10874
                          Z3        X2        Z1        X5        X3
   1                    0.09689  -0.06877  -0.05660  -0.05455  -0.03867
 Eigenvalue     2 is  -7.09D-03 should be greater than     0.000000 Eigenvector:
                          Z2        Z1        Z8        Z5        X2
   1                    0.82214  -0.33967   0.17822   0.15417  -0.14497
                          Z4        Z7        Z13       X14       Y2
   1                   -0.12374  -0.11432  -0.11078  -0.10804  -0.10786
 Eigenvalue     3 is  -4.24D-03 should be greater than     0.000000 Eigenvector:
                          Z7        Z2        Z8        Z5        Y14
   1                    0.54889   0.38609  -0.38060  -0.24833   0.21293
                          Y15       Z1        Z12       X14       Z15
   1                    0.19265   0.17097  -0.14966   0.14570  -0.14539
 Eigenvalue     4 is  -4.99D-05 should be greater than     0.000000 Eigenvector:
                          X2        X11       Y12       Z15       X1
   1                    0.30084  -0.29367   0.25317   0.25036   0.23988
                          Y14       X12       Y11       Z2        Z13
   1                   -0.22637  -0.21674   0.21603   0.19315   0.19242
 Quadratic step=2.866D+01 exceeds max=3.000D-01 adjusted using Lamda=-8.285D-02.
 Angle between NR and scaled steps=  85.59 degrees.
 Angle between quadratic step and forces=  34.92 degrees.
 Linear search not attempted -- first point.
 B after Tr=     0.000960    0.003619    0.000407
         Rot=    1.000000   -0.000021    0.000108   -0.000314 Ang=  -0.04 deg.
 Variable       Old X    -DE/DX   Delta X   Delta X   Delta X     New X
                                 (Linear)    (Quad)   (Total)
    X1        5.12350   0.01039   0.00000  -0.01864  -0.01621   5.10729
    Y1       -2.55881   0.05476   0.00000   0.17817   0.18500  -2.37381
    Z1        0.08529   0.00906   0.00000   0.01967   0.02107   0.10637
    X2        3.42185  -0.01468   0.00000   0.00520   0.00819   3.43005
    Y2       -3.12376  -0.00657   0.00000  -0.01352  -0.00774  -3.13150
    Z2       -0.28244  -0.00334   0.00000  -0.00089   0.00012  -0.28232
    X3        4.70177   0.01772   0.00000   0.04100   0.04153   4.74330
    Y3        0.74846  -0.06210   0.00000  -0.21585  -0.20927   0.53919
    Z3        0.46007  -0.00556   0.00000  -0.02301  -0.02156   0.43851
    X4        6.59735  -0.00212   0.00000   0.00642   0.00633   6.60368
    Y4        1.38175   0.00086   0.00000   0.00026   0.00799   1.38974
    Z4        0.83545  -0.00021   0.00000   0.00055   0.00244   0.83789
    X5        2.44290  -0.01522   0.00000   0.01971   0.01968   2.46258
    Y5        1.45960   0.01466   0.00000   0.03607   0.04122   1.50082
    Z5        0.20836  -0.00030   0.00000   0.00852   0.00952   0.21788
    X6       -0.27357   0.05113   0.00000   0.04582   0.04594  -0.22763
    Y6        1.40869  -0.01626   0.00000   0.00447   0.00796   1.41665
    Z6       -0.20682   0.00543   0.00000   0.00694   0.00736  -0.19946
    X7       -1.59380  -0.03192   0.00000  -0.01890  -0.01996  -1.61377
    Y7        3.24945   0.03818   0.00000   0.02336   0.02597   3.27542
    Z7       -0.14698   0.00049   0.00000  -0.00053  -0.00034  -0.14732
    X8       -1.06117   0.00232   0.00000   0.00187   0.00359  -1.05758
    Y8       -0.94682  -0.01631   0.00000  -0.02253  -0.01955  -0.96637
    Z8       -0.66644  -0.00198   0.00000  -0.00449  -0.00436  -0.67080
    X9       -3.74424  -0.01486   0.00000  -0.03573  -0.03373  -3.77798
    Y9       -1.26078  -0.00794   0.00000  -0.01592  -0.01463  -1.27541
    Z9       -1.08066  -0.00474   0.00000  -0.01119  -0.01165  -1.09231
   X10       -5.16779  -0.00033   0.00000  -0.01285  -0.01137  -5.17916
   Y10       -1.30161  -0.00011   0.00000  -0.00344  -0.00314  -1.30474
   Z10        1.40378   0.00010   0.00000   0.00210   0.00134   1.40512
   X11       -3.88680  -0.00022   0.00000  -0.01475  -0.01141  -3.89821
   Y11       -3.05561  -0.00070   0.00000  -0.01496  -0.01370  -3.06931
   Z11       -2.07477  -0.00047   0.00000  -0.00958  -0.01015  -2.08492
   X12       -4.39802  -0.00078   0.00000  -0.01500  -0.01370  -4.41173
   Y12        0.26044   0.00121   0.00000   0.00053   0.00148   0.26192
   Z12       -2.30702  -0.00083   0.00000  -0.00607  -0.00661  -2.31362
   X13       -7.16406  -0.00150   0.00000  -0.01685  -0.01506  -7.17911
   Y13       -1.67849  -0.00012   0.00000  -0.00059  -0.00153  -1.68003
   Z13        1.04538   0.00031   0.00000   0.01274   0.01153   1.05691
   X14       -4.43379   0.00038   0.00000  -0.00315  -0.00100  -4.43479
   Y14       -2.78634  -0.00079   0.00000  -0.00230  -0.00158  -2.78791
   Z14        2.63134   0.00088   0.00000   0.00217   0.00150   2.63284
   X15       -5.01294  -0.00030   0.00000  -0.00295  -0.00282  -5.01576
   Y15        0.51414   0.00122   0.00000   0.00117   0.00153   0.51567
   Z15        2.36437   0.00116   0.00000   0.00044  -0.00021   2.36416
         Item               Value     Threshold  Converged?
 Maximum Force            0.062102     0.000450     NO 
 RMS     Force            0.017695     0.000300     NO 
 Maximum Displacement     0.209271     0.001800     NO 
 RMS     Displacement     0.044648     0.001200     NO 
 Predicted change in Energy=-3.465504D-02
 GradGradGradGradGradGradGradGradGradGradGradGradGradGradGradGradGradGrad


 ----------------------------------------------------------------------

 Electric dipole moment (input orientation):
 (Debye = 10**-18 statcoulomb cm , SI units = C m)
                  (au)            (Debye)         (10**-30 SI)
   Tot        0.936004D+00      0.237909D+01      0.793577D+01
   x         -0.898480D+00     -0.228371D+01     -0.761763D+01
   y         -0.248249D+00     -0.630985D+00     -0.210474D+01
   z         -0.849070D-01     -0.215812D+00     -0.719872D+00

 Dipole polarizability, Alpha (input orientation).
 (esu units = cm**3 , SI units = C**2 m**2 J**-1)
 Alpha(0;0):
               (au)            (10**-24 esu)      (10**-40 SI)
   iso        0.708433D+02      0.104979D+02      0.116805D+02
   aniso      0.429286D+02      0.636136D+01      0.707796D+01
   xx         0.907708D+02      0.134508D+02      0.149661D+02
   yx        -0.933514D+01     -0.138332D+01     -0.153916D+01
   yy         0.755922D+02      0.112016D+02      0.124635D+02
   zx         0.306898D+01      0.454776D+00      0.506007D+00
   zy         0.185378D+01      0.274702D+00      0.305647D+00
   zz         0.461670D+02      0.684125D+01      0.761192D+01

 ----------------------------------------------------------------------

 Dipole orientation:
     8          0.72989873         -3.77275194         -4.24719407
     1          0.55780687         -3.91509131         -2.43056272
     6          0.16929035         -0.50385528         -4.75351910
     1          0.32700047         -0.35074025         -6.77511804
     6         -0.24128032          0.71796236         -2.75098153
     6         -0.58929041          1.32145474         -0.09225459
     8         -1.02961720          3.40533605          0.68141837
     8         -0.36045943         -0.75321813          1.33019930
     6         -0.63433830         -0.40151741          4.02655185
     6          1.78094300          0.61831725          5.17849151
     1         -1.08416910         -2.28124339          4.72960344
     1         -2.22872512          0.85981169          4.36191133
     1          1.56908573          0.73445901          7.22719815
     1          3.36518927         -0.63149168          4.75634182
     1          2.19256714          2.50500552          4.46114046

 Electric dipole moment (dipole orientation):
 (Debye = 10**-18 statcoulomb cm , SI units = C m)
                  (au)            (Debye)         (10**-30 SI)
   Tot        0.936004D+00      0.237909D+01      0.793577D+01
   x          0.000000D+00      0.000000D+00      0.000000D+00
   y          0.000000D+00      0.000000D+00      0.000000D+00
   z          0.936004D+00      0.237909D+01      0.793577D+01

 Dipole polarizability, Alpha (dipole orientation).
 (esu units = cm**3 , SI units = C**2 m**2 J**-1)
 Alpha(0;0):
               (au)            (10**-24 esu)      (10**-40 SI)
   iso        0.708433D+02      0.104979D+02      0.116805D+02
   aniso      0.429286D+02      0.636136D+01      0.707796D+01
   xx         0.473368D+02      0.701459D+01      0.780478D+01
   yx        -0.738293D+01     -0.109404D+01     -0.121728D+01
   yy         0.799867D+02      0.118528D+02      0.131880D+02
   zx        -0.303424D+01     -0.449628D+00     -0.500279D+00
   zy         0.113729D+02      0.168529D+01      0.187514D+01
   zz         0.852065D+02      0.126263D+02      0.140487D+02

 ----------------------------------------------------------------------
 1\1\GINC-AJ\Freq\UM062X\6-31+G\C5H7O3(2)\AAYUSH\20-Jun-2025\0\\# freq 
 6-31+g m062x\\Title Card Required\\0,2\O,2.711242,-1.354062,0.045136\H
 ,1.810766,-1.653023,-0.149461\C,2.488068,0.396068,0.24346\H,3.491165,0
 .731188,0.442103\C,1.292726,0.772385,0.110259\C,-0.144765,0.745446,-0.
 109444\O,-0.843405,1.719536,-0.077781\O,-0.561546,-0.501037,-0.352667\
 C,-1.981367,-0.667175,-0.571859\C,-2.734677,-0.68878,0.742851\H,-2.056
 807,-1.616957,-1.097923\H,-2.327334,0.137818,-1.22082\H,-3.791055,-0.8
 8822,0.553192\H,-2.346259,-1.474465,1.392444\H,-2.652735,0.272069,1.25
 1171\\Version=ES64L-G16RevA.03\State=2-A\HF=-419.9704896\S2=0.783243\S
 2-1=0.\S2A=0.750576\RMSD=5.989e-09\RMSF=1.769e-02\ZeroPoint=0.1131608\
 Thermal=0.1204897\Dipole=-0.8984805,-0.2482486,-0.084907\DipoleDeriv=-
 0.2835282,-0.1257179,0.0330075,0.2239517,-0.5074345,0.0322556,0.080384
 ,-0.0148631,-0.5458767,0.0471072,0.0641407,-0.0488234,-0.0811373,0.303
 7753,-0.018039,-0.0703173,0.0033286,0.3644166,0.1898645,0.1955867,0.05
 22557,-0.1404341,0.1472011,0.0047901,0.0088976,0.0498461,0.0163818,0.1
 931668,-0.0127406,-0.0051135,0.0063239,0.1432324,-0.0087105,-0.0006709
 ,-0.0105514,0.2064,-0.7921483,-0.1047269,-0.0985896,0.0064582,-0.17329
 64,-0.0075134,-0.1074429,-0.0292571,-0.1109604,2.0538954,-0.2475205,0.
 1600994,0.4826715,1.7298599,0.1450475,0.282089,0.1278275,0.4705215,-0.
 8997658,0.4253518,-0.0186502,0.0723848,-0.9878743,-0.0308348,-0.055011
 ,-0.0043865,-0.3595528,-1.3239077,-0.3426056,-0.0601943,-0.7079501,-1.
 0260835,-0.1162703,-0.1808836,-0.1454026,-0.4248353,0.8440529,0.239621
 8,0.0082389,0.1710876,0.3243528,-0.0018338,0.0306986,0.0596264,0.34188
 18,-0.103767,-0.0514523,0.0290605,-0.0296431,0.0109795,-0.0154334,0.06
 45096,-0.0361007,-0.0920118,0.0079718,0.0052878,0.0285536,-0.0455633,-
 0.0384487,-0.0973078,-0.0013422,-0.0701634,0.030172,-0.0140329,-0.0454
 151,0.0019084,0.0418627,0.0084973,0.1066629,-0.0103694,0.0405702,-0.00
 10637,-0.117287,-0.0506812,-0.0183256,-0.0464823,0.1051528,-0.0027113,
 -0.0422155,0.0003773,0.0729671,0.0719152,0.0842525,-0.0487037,0.047080
 4,-0.0056904,0.0920697,0.0034664,0.0626053,-0.0014197,0.1264631,-0.033
 3812,-0.0147237,-0.0006105,-0.034223,-0.0821715,-0.0017924,-0.0334567,
 0.0329797\Polar=90.7708068,-9.3351371,75.5921562,3.0689811,1.8537781,4
 6.167049\Quadrupole=2.1566868,-3.3241672,1.1674803,8.8047214,1.2616323
 ,0.8504088\PG=C01 [X(C5H7O3)]\NImag=4\\0.51720694,0.14316132,0.0381276
 8,0.10519612,0.02825079,0.03508159,-0.46263127,-0.15763704,-0.10121382
 ,0.45665535,-0.12291115,-0.06777130,-0.03098966,0.14547748,0.08408208,
 -0.09653549,-0.03702059,-0.01696660,0.09860336,0.03701994,0.01719170,-
 0.04467924,-0.06754839,-0.01126043,0.00067352,-0.02559213,-0.00328720,
 1.12277236,-0.03342574,0.12317456,0.01502279,0.01186078,-0.00758591,0.
 00120721,0.04187807,-0.07443216,-0.00686557,0.01044699,-0.03114554,0.0
 0188868,-0.00528135,-0.00081774,0.16264510,-0.01642940,0.12173043,0.00
 264628,0.00451715,0.00038462,0.00034294,0.00143633,-0.00000141,-0.3426
 7823,-0.10288365,-0.06094066,0.34884520,-0.01504766,-0.02628476,-0.006
 51178,0.00201189,-0.00542206,-0.00056067,-0.11865966,-0.03793018,-0.01
 861546,0.10130363,0.07165116,-0.00222021,-0.00339609,0.00340389,0.0000
 4439,-0.00068893,0.00150669,-0.06298615,-0.01627866,-0.04663281,0.0641
 0070,0.02267839,0.03162076,-0.01247726,0.08282196,0.00737960,0.0034166
 4,0.00186808,0.00099731,-0.73407444,0.08248060,-0.09585823,-0.00844638
 ,0.02985352,0.00187828,1.09897322,0.03041931,-0.07682457,-0.00688966,-
 0.00163255,-0.00181109,-0.00048812,0.14231046,0.01727161,0.02896892,-0
 .00252749,-0.00543318,-0.00184035,-0.16660675,0.11725836,0.00052928,0.
 00099908,0.01085327,0.00039283,0.00012165,-0.00040257,-0.08778527,0.01
 983204,-0.04750066,-0.00244023,0.00313084,0.00537094,0.13639002,-0.017
 66752,0.07820860,0.00146998,-0.01483104,-0.00136164,0.00357229,0.00276
 105,0.00076243,-0.00481248,0.00782048,-0.00020518,-0.00041810,-0.00065
 540,-0.00129762,-0.24982005,0.00017187,-0.02555595,0.77681364,-0.00336
 271,0.00442139,0.00046806,0.00456863,-0.00199777,0.00020861,0.02611565
 ,-0.01343700,0.00167642,-0.00187835,0.00310060,-0.00086279,-0.03837937
 ,-0.02962069,0.00112764,-0.23462704,0.88831557,0.00011011,-0.00129394,
 -0.00251817,0.00102587,-0.00001430,0.00102449,0.00189034,-0.00111712,0
 .00446848,-0.00141640,-0.00066304,0.00695260,-0.03061179,0.00728714,-0
 .08492657,0.05712877,0.06329444,0.20541518,-0.00047619,0.00289814,0.00
 031925,-0.00087049,-0.00123989,-0.00031494,-0.00389541,0.00035657,-0.0
 0061912,0.00030271,-0.00010026,0.00022759,-0.05351684,0.03954959,-0.00
 617554,-0.35143417,0.36650205,0.00723020,0.38075599,0.00062397,-0.0004
 4749,0.00001937,-0.00117929,0.00074538,-0.00006441,-0.00342691,0.00188
 135,-0.00032311,0.00014538,-0.00038322,0.00015638,0.03709555,-0.006911
 33,0.00122751,0.34569730,-0.55561424,-0.01765624,-0.41262359,0.6660988
 2,0.00004620,0.00033167,-0.00000974,-0.00030148,-0.00007539,-0.0000152
 2,-0.00113337,0.00025170,0.00033651,0.00025994,0.00010164,-0.00120362,
 -0.00657856,0.00165365,0.02289687,0.00379774,-0.01296298,-0.06146709,-
 0.00207694,0.02988254,0.01674023,-0.00136116,0.00684220,0.00047558,-0.
 00082356,-0.00208356,-0.00011194,0.00633913,-0.00756731,-0.00003651,-0
 .00048597,0.00126614,0.00026427,-0.04752881,-0.04135576,-0.01550534,-0
 .13821085,-0.10223923,-0.02536964,0.02953202,0.02454549,0.00236063,0.4
 4556241,0.00047659,0.00504314,0.00055019,-0.00304044,-0.00108015,-0.00
 033067,0.00418137,-0.00712260,-0.00034477,0.00002472,0.00047937,0.0002
 0369,-0.02722426,-0.01161553,-0.00755908,-0.05225920,-0.28255223,-0.03
 773860,0.00932534,-0.10565072,-0.01932189,0.11812348,0.48102402,-0.000
 23261,0.00159270,0.00125746,-0.00034894,-0.00019075,-0.00171142,0.0016
 4099,-0.00219782,-0.00013999,0.00004875,0.00034793,-0.00068446,-0.0128
 6046,-0.00955107,0.00987761,-0.01930043,-0.04700553,-0.06814505,0.0008
 6029,-0.01593876,0.02699989,0.07012362,0.07372640,0.09364596,0.0005164
 2,-0.00120189,-0.00003756,-0.00043717,0.00090385,-0.00002621,-0.000201
 03,0.00034847,-0.00000829,-0.00012361,-0.00009135,-0.00006052,0.005728
 64,0.00107640,0.00129130,-0.02981345,-0.03643263,-0.01139549,-0.005521
 08,0.01599138,0.00180320,-0.19663798,-0.02115991,-0.02823045,0.4528707
 7,0.00006922,0.00034751,0.00003075,-0.00036843,0.00094087,0.00010694,0
 .00074626,-0.00154933,-0.00003209,-0.00016592,0.00019007,0.00003699,-0
 .00168586,-0.00235931,-0.00133930,-0.05286774,-0.01512610,-0.01219380,
 -0.00122330,0.00208680,0.00056331,0.01223903,-0.08454731,0.00039938,-0
 .01039194,0.66830448,-0.00004354,-0.00005797,-0.00000947,-0.00003311,0
 .00022792,0.00025154,0.00029786,-0.00011496,-0.00033865,-0.00000949,0.
 00008012,-0.00036445,-0.00075853,-0.00157392,0.00629149,-0.01292698,-0
 .01322666,-0.00241806,-0.00266561,0.00311714,-0.00485822,-0.02285416,-
 0.00291059,-0.06670919,0.02571085,0.00794819,0.56197207,-0.00007853,0.
 00041973,0.00001847,0.00004967,-0.00029473,0.00001008,0.00016523,-0.00
 029224,0.00009979,0.00001652,0.00003921,0.00009778,-0.00074659,-0.0001
 9066,-0.00192357,0.00026660,0.00662408,0.00288170,0.00073256,-0.002687
 64,0.00114706,-0.04304124,-0.00805663,0.03244128,-0.09782356,0.0011228
 4,0.04385400,0.57315954,-0.00004204,-0.00001130,0.00007623,0.00003066,
 -0.00000939,-0.00013743,0.00003734,-0.00000415,-0.00001350,0.00000934,
 0.00000226,0.00001213,0.00003904,-0.00001504,-0.00008071,-0.00172486,0
 .00223647,0.00165537,0.00104961,0.00002466,-0.00067804,-0.00629833,0.0
 0191341,0.00563399,0.00132846,-0.09013343,-0.00166776,-0.00138731,0.60
 364670,0.00000754,0.00021588,-0.00000596,-0.00001062,-0.00014742,0.000
 04519,-0.00002667,-0.00021230,0.00003974,0.00001765,0.00001058,0.00003
 155,0.00004740,0.00010576,-0.00069461,-0.00145914,0.00492697,0.0017029
 0,0.00215160,-0.00102338,-0.00089982,-0.00463059,-0.00364963,0.0091467
 9,0.05649942,0.00135535,-0.19620121,0.04492097,0.00356421,0.53152912,-
 0.00007506,0.00051263,0.00010753,-0.00013773,-0.00011746,-0.00010699,0
 .00028037,-0.00064583,-0.00006719,-0.00001865,0.00009110,-0.00002239,-
 0.00128863,-0.00090667,0.00014443,-0.00633485,0.00371665,-0.00242304,0
 .00230576,-0.00058538,0.00049719,-0.02192306,-0.04092410,-0.01944079,-
 0.04446433,-0.00291899,-0.00444436,0.00236003,0.01598033,0.00919672,0.
 06657103,-0.00003265,0.00015428,0.00006951,-0.00000420,-0.00005394,-0.
 00008214,0.00001979,-0.00013316,0.00000881,0.00000184,0.00002280,0.000
 00499,-0.00040328,-0.00005028,-0.00031312,0.00157010,0.00079653,-0.000
 17208,-0.00143945,0.00021291,-0.00035833,-0.00164767,-0.00306001,-0.00
 021988,-0.01606664,-0.27165079,-0.11645816,0.00059799,0.00364046,0.003
 03976,0.01871164,0.28755575,0.00003017,0.00012263,-0.00003172,-0.00009
 503,-0.00008706,0.00006245,0.00000961,-0.00010657,-0.00000506,-0.00000
 804,0.00002344,-0.00000486,-0.00041643,-0.00022998,0.00005552,-0.00045
 992,0.00307670,0.00013555,0.00121366,0.00003698,0.00058433,-0.00360618
 ,-0.00704550,-0.00161207,-0.00964352,-0.11459383,-0.11597103,0.0004922
 8,-0.02731306,-0.01582074,0.00832636,0.12698263,0.12389176,-0.00009877
 ,0.00011376,0.00006607,0.00019929,-0.00025092,-0.00008238,0.00012089,0
 .00005379,-0.00003019,0.00003480,-0.00000377,-0.00003055,-0.00030634,-
 0.00020588,0.00055530,0.00016978,0.00813393,0.00014374,0.00188589,-0.0
 0266882,0.00013144,-0.03406885,0.02099688,-0.02569736,-0.07263830,0.05
 573550,-0.04621368,0.00760806,-0.01364699,0.01285007,0.00294336,-0.001
 45586,0.00197543,0.09512620,0.00003510,0.00000620,-0.00003832,-0.00003
 515,-0.00001899,0.00005120,0.00003447,-0.00005475,-0.00007202,0.000016
 72,0.00000201,-0.00004960,0.00022773,-0.00003848,0.00092951,-0.0024066
 7,0.00099614,-0.00088985,-0.00104472,-0.00153104,-0.00129461,-0.002954
 97,0.00587410,-0.00597724,0.06638142,-0.20883002,0.12434015,-0.0001796
 7,0.00145900,-0.00203876,0.00836054,-0.01924653,0.01795537,-0.06768074
 ,0.21987756,-0.00000554,-0.00006314,0.00001388,0.00001533,0.00000235,-
 0.00002684,0.00010013,0.00002596,0.00002567,-0.00000632,-0.00000303,-0
 .00000375,0.00023230,-0.00017415,-0.00005579,-0.00181929,0.00374005,0.
 00104714,0.00238212,-0.00088799,0.00006978,-0.00597597,0.00186213,-0.0
 0215205,-0.05012930,0.11777699,-0.14791549,-0.00727792,0.02324095,-0.0
 1864562,0.00595718,-0.01278160,0.01090782,0.05419645,-0.13235073,0.158
 85704,-0.00003404,0.00012258,0.00002857,0.00002539,-0.00007733,-0.0000
 3301,0.00003286,-0.00010041,-0.00000990,0.00001670,0.00001323,0.000015
 22,-0.00032034,-0.00002670,-0.00024807,0.00090775,0.00241592,0.0003716
 6,0.00028856,-0.00069428,0.00007478,-0.00188986,-0.00155039,0.00385438
 ,-0.01601378,-0.00308472,-0.00708403,-0.30592316,-0.04898517,-0.046057
 73,0.00029376,0.00057061,0.00001303,0.00036865,-0.00038446,0.00016286,
 0.33494305,0.00000700,0.00003334,-0.00000964,-0.00001166,-0.00001316,0
 .00002359,-0.00002216,-0.00003586,0.00000216,0.00000478,0.00000493,0.0
 0000923,-0.00006094,0.00005894,-0.00021143,0.00081077,-0.00051650,-0.0
 0034480,-0.00053960,-0.00003246,0.00061355,0.00063833,0.00111076,0.000
 07721,-0.00033953,-0.00114227,-0.00051634,-0.04949117,-0.05677639,-0.0
 0898222,-0.00000318,-0.00007614,0.00010559,0.00004302,-0.00012354,0.00
 018503,0.05423764,0.05732821,0.00000644,-0.00012332,0.00004361,-0.0000
 0801,0.00007074,-0.00005515,-0.00003167,0.00011107,-0.00002778,0.00000
 451,-0.00001091,-0.00002452,0.00019479,0.00012617,0.00044223,0.0005899
 3,-0.00261952,-0.00115776,-0.00084468,0.00083989,0.00017729,0.00705220
 ,0.00193598,-0.00516597,0.02885631,0.00565545,0.00685106,-0.04900710,-
 0.00914369,-0.05831567,-0.00062146,-0.00068768,0.00110627,-0.00094445,
 0.00062267,0.00084838,0.05024842,0.00990150,0.06111666,0.00004906,-0.0
 0003336,-0.00005488,-0.00005183,0.00003728,0.00008549,-0.00003338,-0.0
 0000206,-0.00000300,-0.00001177,-0.00000518,-0.00000257,0.00013630,0.0
 0001281,0.00009332,-0.00033523,-0.00156649,-0.00016802,-0.00033763,0.0
 0049604,0.00003686,0.00297701,0.00089816,-0.00111386,0.00422466,-0.014
 47690,0.01515571,-0.08522852,0.07309282,-0.06103814,0.00046624,-0.0000
 0710,-0.00110509,-0.00151530,-0.00006084,0.00330119,-0.01081798,0.0250
 0325,-0.01971061,0.08960662,0.00001946,0.00004540,-0.00007972,-0.00002
 453,0.00001391,0.00010034,-0.00003642,-0.00005778,0.00000371,-0.000007
 29,0.00000057,0.00001867,-0.00012077,0.00004882,-0.00013205,0.00044899
 ,-0.00105369,0.00033786,-0.00082169,0.00023803,0.00032027,-0.00067142,
 -0.00006021,-0.00067435,0.00061692,0.00108012,-0.00106971,0.07249044,-
 0.19603770,0.11727059,-0.00062550,0.00061526,0.00000065,0.00044751,0.0
 0109790,-0.00046290,-0.00341452,0.00468406,-0.00502609,-0.08014007,0.2
 0898031,-0.00002518,-0.00008494,0.00002153,0.00006483,0.00006320,-0.00
 005765,0.00000997,0.00006807,0.00001680,-0.00000147,-0.00000754,0.0000
 0503,0.00008746,0.00004656,-0.00011368,-0.00010575,0.00034603,0.000040
 35,0.00003171,-0.00030900,0.00014839,-0.00153931,-0.00142472,0.0029738
 6,-0.01162175,0.02484277,-0.02257641,-0.05767188,0.11540250,-0.1439696
 0,-0.00045591,-0.00027595,0.00098215,0.00359556,-0.00107715,-0.0040188
 4,-0.00128512,0.00387309,-0.00319063,0.06245329,-0.12949169,0.15973899
 ,0.00002284,-0.00015777,-0.00004747,0.00001696,0.00008310,0.00004091,-
 0.00001015,0.00011847,0.00001027,-0.00002244,-0.00001544,-0.00000822,0
 .00027087,-0.00008797,0.00023750,-0.00202084,0.00040889,0.00060200,0.0
 0024832,-0.00072918,-0.00006468,0.00156077,0.00018837,-0.00174439,0.00
 033381,0.01727093,0.01201508,-0.05151662,-0.01948292,-0.01246847,-0.00
 097822,-0.00041515,0.00327367,0.00017065,-0.00030876,-0.00113323,-0.00
 187755,-0.03027657,-0.01578462,0.00087174,0.01183889,0.00646357,0.0529
 2986,0.00000997,-0.00001408,0.00003110,-0.00001616,-0.00001850,-0.0000
 3379,-0.00003776,0.00001535,0.00000469,0.00000281,-0.00000038,-0.00000
 403,0.00009475,0.00004177,-0.00006505,0.00009137,0.00005152,-0.0004910
 4,-0.00064881,-0.00071745,0.00097290,0.00116358,0.00024396,-0.00002221
 ,-0.00096302,0.00238872,0.00188254,-0.01871424,-0.26993556,-0.11443539
 ,-0.00064579,0.00127285,0.00107202,0.00038858,0.00053044,-0.00010993,0
 .00095799,-0.00450392,-0.00165226,-0.00324838,-0.01959499,-0.01197122,
 0.02156511,0.29024026,0.00000228,0.00008026,0.00001196,-0.00002428,-0.
 00003094,-0.00002888,-0.00008323,-0.00006202,-0.00000940,0.00000786,-0
 .00000049,0.00002701,-0.00012316,0.00022658,-0.00030264,0.00221304,-0.
 00218745,-0.00015400,-0.00171958,0.00092308,0.00050043,-0.00064666,0.0
 0204707,0.00241861,-0.00300799,-0.03055711,-0.01800398,-0.01008292,-0.
 11055118,-0.10794208,0.00335273,0.00124326,-0.00428039,-0.00051544,-0.
 00011063,0.00104868,-0.00005105,-0.00472652,-0.00264801,0.00207032,0.0
 1888442,0.00999971,0.00860809,0.12482167,0.11936298\\-0.01039002,-0.05
 476140,-0.00906347,0.01468349,0.00656650,0.00334296,-0.01771661,0.0621
 0206,0.00555542,0.00212270,-0.00085712,0.00020569,0.01521892,-0.014663
 44,0.00030296,-0.05112906,0.01625793,-0.00542505,0.03192294,-0.0381820
 0,-0.00049416,-0.00232141,0.01631259,0.00197877,0.01485991,0.00793599,
 0.00474439,0.00032562,0.00010967,-0.00009640,0.00022360,0.00070076,0.0
 0046972,0.00078465,-0.00121161,0.00082733,0.00149869,0.00012367,-0.000
 31349,-0.00038326,0.00078858,-0.00087773,0.00029982,-0.00122218,-0.001
 15693\\\@


 IN THE FIGHT BETWEEN YOU AND THE WORLD, BACK THE WORLD

                                        -- FRANZ KAFKA
 Job cpu time:       0 days  0 hours 18 minutes 31.2 seconds.
 Elapsed time:       0 days  0 hours  0 minutes 46.3 seconds.
 File lengths (MBytes):  RWF=     59 Int=      0 D2E=      0 Chk=      8 Scr=      1
 Normal termination of Gaussian 16 at Fri Jun 20 14:21:37 2025.
