 Entering Gaussian System, Link 0=g16
 Initial command:
 /opt/g16/l1.exe "/home/aayush/scratches/g16/Gau-80596.inp" -scrdir="/home/aayush/scratches/g16/"
 Entering Link 1 = /opt/g16/l1.exe PID=     80599.
  
 Copyright (c) 1988,1990,1992,1993,1995,1998,2003,2009,2016,
            Gaussian, Inc.  All Rights Reserved.
  
 This is part of the Gaussian(R) 16 program.  It is based on
 the Gaussian(R) 09 system (copyright 2009, Gaussian, Inc.),
 the Gaussian(R) 03 system (copyright 2003, Gaussian, Inc.),
 the Gaussian(R) 98 system (copyright 1998, Gaussian, Inc.),
 the Gaussian(R) 94 system (copyright 1995, Gaussian, Inc.),
 the Gaussian 92(TM) system (copyright 1992, Gaussian, Inc.),
 the Gaussian 90(TM) system (copyright 1990, Gaussian, Inc.),
 the Gaussian 88(TM) system (copyright 1988, Gaussian, Inc.),
 the Gaussian 86(TM) system (copyright 1986, Carnegie Mellon
 University), and the Gaussian 82(TM) system (copyright 1983,
 Carnegie Mellon University). Gaussian is a federally registered
 trademark of Gaussian, Inc.
  
 This software contains proprietary and confidential information,
 including trade secrets, belonging to Gaussian, Inc.
  
 This software is provided under written license and may be
 used, copied, transmitted, or stored only in accord with that
 written license.
  
 The following legend is applicable only to US Government
 contracts under FAR:
  
                    RESTRICTED RIGHTS LEGEND
  
 Use, reproduction and disclosure by the US Government is
 subject to restrictions as set forth in subparagraphs (a)
 and (c) of the Commercial Computer Software - Restricted
 Rights clause in FAR 52.227-19.
  
 Gaussian, Inc.
 340 Quinnipiac St., Bldg. 40, Wallingford CT 06492
  
  
 ---------------------------------------------------------------
 Warning -- This program may not be used in any manner that
 competes with the business of Gaussian, Inc. or will provide
 assistance to any competitor of Gaussian, Inc.  The licensee
 of this program is prohibited from giving any competitor of
 Gaussian, Inc. access to this program.  By using this program,
 the user acknowledges that Gaussian, Inc. is engaged in the
 business of creating and licensing software in the field of
 computational chemistry and represents and warrants to the
 licensee that it is not a competitor of Gaussian, Inc. and that
 it will not use this program in any manner prohibited above.
 ---------------------------------------------------------------
  

 Cite this work as:
 Gaussian 16, Revision A.03,
 M. J. Frisch, G. W. Trucks, H. B. Schlegel, G. E. Scuseria, 
 M. A. Robb, J. R. Cheeseman, G. Scalmani, V. Barone, 
 G. A. Petersson, H. Nakatsuji, X. Li, M. Caricato, A. V. Marenich, 
 J. Bloino, B. G. Janesko, R. Gomperts, B. Mennucci, H. P. Hratchian, 
 J. V. Ortiz, A. F. Izmaylov, J. L. Sonnenberg, D. Williams-Young, 
 F. Ding, F. Lipparini, F. Egidi, J. Goings, B. Peng, A. Petrone, 
 T. Henderson, D. Ranasinghe, V. G. Zakrzewski, J. Gao, N. Rega, 
 G. Zheng, W. Liang, M. Hada, M. Ehara, K. Toyota, R. Fukuda, 
 J. Hasegawa, M. Ishida, T. Nakajima, Y. Honda, O. Kitao, H. Nakai, 
 T. Vreven, K. Throssell, J. A. Montgomery, Jr., J. E. Peralta, 
 F. Ogliaro, M. J. Bearpark, J. J. Heyd, E. N. Brothers, K. N. Kudin, 
 V. N. Staroverov, T. A. Keith, R. Kobayashi, J. Normand, 
 K. Raghavachari, A. P. Rendell, J. C. Burant, S. S. Iyengar, 
 J. Tomasi, M. Cossi, J. M. Millam, M. Klene, C. Adamo, R. Cammi, 
 J. W. Ochterski, R. L. Martin, K. Morokuma, O. Farkas, 
 J. B. Foresman, and D. J. Fox, Gaussian, Inc., Wallingford CT, 2016.
 
 ******************************************
 Gaussian 16:  ES64L-G16RevA.03 25-Dec-2016
                23-Jun-2025 
 ******************************************
 %nprocshared=24
 Will use up to   24 processors via shared memory.
 %mem=12GB
 %chk=ethyl_propiolate_ts1.chk
 --------------------------
 # freq 6-311++g(d,p) m062x
 --------------------------
 1/10=4,30=1,38=1/1,3;
 2/12=2,17=6,18=5,40=1/2;
 3/5=4,6=6,7=1111,11=2,25=1,30=1,71=2,74=-55,140=1/1,2,3;
 4//1;
 5/5=2,38=5,98=1/2;
 8/6=4,10=90,11=11/1;
 11/6=1,8=1,9=11,15=111,16=1/1,2,10;
 10/6=1/2;
 6/7=2,8=2,9=2,10=2,28=1/1;
 7/8=1,10=1,25=1/1,2,3,16;
 1/10=4,30=1/3;
 99//99;
 -------------------
 Title Card Required
 -------------------
 Symbolic Z-matrix:
 Charge =  0 Multiplicity = 2
 O                     2.7829   -1.41844   0.02475 
 H                     1.86516  -1.67345  -0.16738 
 C                     2.54255   0.59946   0.25405 
 H                     3.58904   0.70875   0.42878 
 C                     1.35594   0.7901    0.09732 
 C                    -0.08189   0.7845   -0.11958 
 O                    -0.78074   1.75671  -0.08915 
 O                    -0.49838  -0.46401  -0.36172 
 C                    -1.91722  -0.63044  -0.58052 
 C                    -2.67088  -0.6512    0.73414 
 H                    -1.99318  -1.58071  -1.10582 
 H                    -2.26407   0.17373  -1.23013 
 H                    -3.72725  -0.85107   0.5449 
 H                    -2.28212  -1.436     1.38464 
 H                    -2.58893   0.31015   1.2415 
 

 GradGradGradGradGradGradGradGradGradGradGradGradGradGradGradGradGradGrad
 Berny optimization.
 Initialization pass.
 Trust Radius=3.00D-01 FncErr=1.00D-07 GrdErr=1.00D-07 EigMax=2.50D+02 EigMin=1.00D-04
 Number of steps in this run=      2 maximum allowed number of steps=      2.
 GradGradGradGradGradGradGradGradGradGradGradGradGradGradGradGradGradGrad

                          Input orientation:                          
 ---------------------------------------------------------------------
 Center     Atomic      Atomic             Coordinates (Angstroms)
 Number     Number       Type             X           Y           Z
 ---------------------------------------------------------------------
      1          8           0        2.782904   -1.418440    0.024748
      2          1           0        1.865160   -1.673450   -0.167375
      3          6           0        2.542551    0.599457    0.254046
      4          1           0        3.589043    0.708751    0.428782
      5          6           0        1.355940    0.790101    0.097321
      6          6           0       -0.081888    0.784501   -0.119575
      7          8           0       -0.780739    1.756712   -0.089150
      8          8           0       -0.498381   -0.464010   -0.361722
      9          6           0       -1.917216   -0.630442   -0.580519
     10          6           0       -2.670878   -0.651198    0.734143
     11          1           0       -1.993178   -1.580709   -1.105820
     12          1           0       -2.264066    0.173726   -1.230129
     13          1           0       -3.727246   -0.851067    0.544900
     14          1           0       -2.282121   -1.436000    1.384638
     15          1           0       -2.588925    0.310153    1.241496
 ---------------------------------------------------------------------
                    Distance matrix (angstroms):
                    1          2          3          4          5
     1  O    0.000000
     2  H    0.971697   0.000000
     3  C    2.045056   2.408850   0.000000
     4  H    2.310421   3.000343   1.066594   0.000000
     5  C    2.630427   2.529516   1.212004   2.259034   0.000000
     6  C    3.616740   3.136049   2.657351   3.712434   1.454106
     7  O    4.774318   4.332772   3.535715   4.523436   2.352553
     8  O    3.439059   2.662112   3.279848   4.325194   2.285174
     9  C    4.804000   3.945240   4.700922   5.755955   3.631936
    10  C    5.552985   4.736388   5.382794   6.413214   4.324136
    11  H    4.910751   3.971908   5.212983   6.225578   4.276082
    12  H    5.438898   4.646721   5.048523   6.107137   3.904675
    13  H    6.555496   5.697250   6.441969   7.481617   5.360274
    14  H    5.244434   4.434531   5.357125   6.323305   4.455132
    15  H    5.772786   5.075280   5.233622   6.243931   4.135390
                    6          7          8          9         10
     6  C    0.000000
     7  O    1.197711   0.000000
     8  O    1.338238   2.255134   0.000000
     9  C    2.362829   2.689150   1.445221   0.000000
    10  C    3.081061   3.169932   2.440431   1.515511   0.000000
    11  H    3.196862   3.693509   2.008760   1.088448   2.169961
    12  H    2.523545   2.451109   2.068449   1.090406   2.168954
    13  H    4.050339   3.985528   3.375996   2.142767   1.091638
    14  H    3.469050   3.823560   2.678855   2.154976   1.090958
    15  H    2.891843   2.670709   2.745908   2.157696   1.090101
                   11         12         13         14         15
    11  H    0.000000
    12  H    1.779572   0.000000
    13  H    2.502848   2.518298   0.000000
    14  H    2.511336   3.070594   1.770789   0.000000
    15  H    3.072485   2.496613   1.769026   1.778670   0.000000
 Stoichiometry    C5H7O3(2)
 Framework group  C1[X(C5H7O3)]
 Deg. of freedom    39
 Full point group                 C1      NOp   1
 Largest Abelian subgroup         C1      NOp   1
 Largest concise Abelian subgroup C1      NOp   1
                         Standard orientation:                         
 ---------------------------------------------------------------------
 Center     Atomic      Atomic             Coordinates (Angstroms)
 Number     Number       Type             X           Y           Z
 ---------------------------------------------------------------------
      1          8           0        2.782904   -1.418440    0.024748
      2          1           0        1.865160   -1.673450   -0.167375
      3          6           0        2.542551    0.599457    0.254046
      4          1           0        3.589043    0.708751    0.428782
      5          6           0        1.355940    0.790101    0.097321
      6          6           0       -0.081888    0.784501   -0.119575
      7          8           0       -0.780739    1.756712   -0.089150
      8          8           0       -0.498381   -0.464010   -0.361722
      9          6           0       -1.917216   -0.630442   -0.580519
     10          6           0       -2.670878   -0.651198    0.734143
     11          1           0       -1.993178   -1.580709   -1.105820
     12          1           0       -2.264066    0.173726   -1.230129
     13          1           0       -3.727246   -0.851067    0.544900
     14          1           0       -2.282121   -1.436000    1.384638
     15          1           0       -2.588925    0.310153    1.241496
 ---------------------------------------------------------------------
 Rotational constants (GHZ):           3.5348550           1.1512449           0.9343523
 Standard basis: 6-311++G(d,p) (5D, 7F)
 There are   233 symmetry adapted cartesian basis functions of A   symmetry.
 There are   225 symmetry adapted basis functions of A   symmetry.
   225 basis functions,   351 primitive gaussians,   233 cartesian basis functions
    31 alpha electrons       30 beta electrons
       nuclear repulsion energy       351.4928312307 Hartrees.
 NAtoms=   15 NActive=   15 NUniq=   15 SFac= 1.00D+00 NAtFMM=   60 NAOKFM=F Big=F
 Integral buffers will be    131072 words long.
 Raffenetti 2 integral format.
 Two-electron integral symmetry is turned on.
 One-electron integrals computed using PRISM.
 NBasis=   225 RedAO= T EigKep=  1.46D-06  NBF=   225
 NBsUse=   225 1.00D-06 EigRej= -1.00D+00 NBFU=   225
 ExpMin= 3.60D-02 ExpMax= 8.59D+03 ExpMxC= 1.30D+03 IAcc=3 IRadAn=         5 AccDes= 0.00D+00
 Harris functional with IExCor= 1009 and IRadAn=       5 diagonalized for initial guess.
 HarFok:  IExCor= 1009 AccDes= 0.00D+00 IRadAn=         5 IDoV= 1 UseB2=F ITyADJ=14
 ICtDFT=  3500011 ScaDFX=  1.000000  1.000000  1.000000  1.000000
 FoFCou: FMM=F IPFlag=           0 FMFlag=      100000 FMFlg1=           0
         NFxFlg=           0 DoJE=T BraDBF=F KetDBF=T FulRan=T
         wScrn=  0.000000 ICntrl=       500 IOpCl=  0 I1Cent=   200000004 NGrid=           0
         NMat0=    1 NMatS0=      1 NMatT0=    0 NMatD0=    1 NMtDS0=    0 NMtDT0=    0
 Petite list used in FoFCou.
 Initial guess <Sx>= 0.0000 <Sy>= 0.0000 <Sz>= 0.5000 <S**2>= 0.7500 S= 0.5000
 Requested convergence on RMS density matrix=1.00D-08 within 128 cycles.
 Requested convergence on MAX density matrix=1.00D-06.
 Requested convergence on             energy=1.00D-06.
 No special actions if energy rises.
 Restarting incremental Fock formation.
 SCF Done:  E(UM062X) =  -420.204766892     A.U. after   23 cycles
            NFock= 23  Conv=0.93D-08     -V/T= 2.0032
 <Sx>= 0.0000 <Sy>= 0.0000 <Sz>= 0.5000 <S**2>= 0.7699 S= 0.5099
 <L.S>=  0.00000000000    
 Annihilation of the first spin contaminant:
 S**2 before annihilation     0.7699,   after     0.7502
 DoSCS=F DFT=T ScalE2(SS,OS)=  1.000000  1.000000
 Range of M.O.s used for correlation:     1   225
 NBasis=   225 NAE=    31 NBE=    30 NFC=     0 NFV=     0
 NROrb=    225 NOA=    31 NOB=    30 NVA=   194 NVB=   195

 **** Warning!!: The largest alpha MO coefficient is  0.22674514D+03


 **** Warning!!: The largest beta MO coefficient is  0.22378679D+03

 Symmetrizing basis deriv contribution to polar:
 IMax=3 JMax=2 DiffMx= 0.00D+00
 G2DrvN: will do    16 centers at a time, making    1 passes.
 Calling FoFCou, ICntrl=  3107 FMM=F I1Cent=   0 AccDes= 0.00D+00.
 End of G2Drv F.D. properties file   721 does not exist.
 End of G2Drv F.D. properties file   722 does not exist.
 End of G2Drv F.D. properties file   788 does not exist.
          IDoAtm=111111111111111
          Differentiating once with respect to electric field.
                with respect to dipole field.
          Differentiating once with respect to nuclear coordinates.
 Keep R1 and R2 ints in memory in canonical form, NReq=671901991.
          There are    48 degrees of freedom in the 1st order CPHF.  IDoFFX=6 NUNeed=     3.
     45 vectors produced by pass  0 Test12= 2.47D-14 2.08D-09 XBig12= 1.05D+02 3.94D+00.
 AX will form    45 AO Fock derivatives at one time.
     45 vectors produced by pass  1 Test12= 2.47D-14 2.08D-09 XBig12= 2.45D+01 5.38D-01.
     45 vectors produced by pass  2 Test12= 2.47D-14 2.08D-09 XBig12= 1.08D+00 1.36D-01.
     45 vectors produced by pass  3 Test12= 2.47D-14 2.08D-09 XBig12= 1.25D-02 1.59D-02.
     45 vectors produced by pass  4 Test12= 2.47D-14 2.08D-09 XBig12= 1.40D-04 1.66D-03.
     45 vectors produced by pass  5 Test12= 2.47D-14 2.08D-09 XBig12= 1.59D-06 1.58D-04.
     39 vectors produced by pass  6 Test12= 2.47D-14 2.08D-09 XBig12= 1.53D-08 1.29D-05.
     23 vectors produced by pass  7 Test12= 2.47D-14 2.08D-09 XBig12= 1.04D-10 8.00D-07.
      4 vectors produced by pass  8 Test12= 2.47D-14 2.08D-09 XBig12= 8.23D-13 7.98D-08.
      3 vectors produced by pass  9 Test12= 2.47D-14 2.08D-09 XBig12= 8.02D-15 9.69D-09.
 InvSVY:  IOpt=1 It=  1 EMax= 1.42D-14
 Solved reduced A of dimension   339 with    48 vectors.
 Isotropic polarizability for W=    0.000000       75.42 Bohr**3.
 End of Minotr F.D. properties file   721 does not exist.
 End of Minotr F.D. properties file   722 does not exist.
 End of Minotr F.D. properties file   788 does not exist.

 **********************************************************************

            Population analysis using the SCF density.

 **********************************************************************

 Orbital symmetries:
 Alpha Orbitals:
       Occupied  (A) (A) (A) (A) (A) (A) (A) (A) (A) (A) (A) (A)
                 (A) (A) (A) (A) (A) (A) (A) (A) (A) (A) (A) (A)
                 (A) (A) (A) (A) (A) (A) (A)
       Virtual   (A) (A) (A) (A) (A) (A) (A) (A) (A) (A) (A) (A)
                 (A) (A) (A) (A) (A) (A) (A) (A) (A) (A) (A) (A)
                 (A) (A) (A) (A) (A) (A) (A) (A) (A) (A) (A) (A)
                 (A) (A) (A) (A) (A) (A) (A) (A) (A) (A) (A) (A)
                 (A) (A) (A) (A) (A) (A) (A) (A) (A) (A) (A) (A)
                 (A) (A) (A) (A) (A) (A) (A) (A) (A) (A) (A) (A)
                 (A) (A) (A) (A) (A) (A) (A) (A) (A) (A) (A) (A)
                 (A) (A) (A) (A) (A) (A) (A) (A) (A) (A) (A) (A)
                 (A) (A) (A) (A) (A) (A) (A) (A) (A) (A) (A) (A)
                 (A) (A) (A) (A) (A) (A) (A) (A) (A) (A) (A) (A)
                 (A) (A) (A) (A) (A) (A) (A) (A) (A) (A) (A) (A)
                 (A) (A) (A) (A) (A) (A) (A) (A) (A) (A) (A) (A)
                 (A) (A) (A) (A) (A) (A) (A) (A) (A) (A) (A) (A)
                 (A) (A) (A) (A) (A) (A) (A) (A) (A) (A) (A) (A)
                 (A) (A) (A) (A) (A) (A) (A) (A) (A) (A) (A) (A)
                 (A) (A) (A) (A) (A) (A) (A) (A) (A) (A) (A) (A)
                 (A) (A)
 Beta  Orbitals:
       Occupied  (A) (A) (A) (A) (A) (A) (A) (A) (A) (A) (A) (A)
                 (A) (A) (A) (A) (A) (A) (A) (A) (A) (A) (A) (A)
                 (A) (A) (A) (A) (A) (A)
       Virtual   (A) (A) (A) (A) (A) (A) (A) (A) (A) (A) (A) (A)
                 (A) (A) (A) (A) (A) (A) (A) (A) (A) (A) (A) (A)
                 (A) (A) (A) (A) (A) (A) (A) (A) (A) (A) (A) (A)
                 (A) (A) (A) (A) (A) (A) (A) (A) (A) (A) (A) (A)
                 (A) (A) (A) (A) (A) (A) (A) (A) (A) (A) (A) (A)
                 (A) (A) (A) (A) (A) (A) (A) (A) (A) (A) (A) (A)
                 (A) (A) (A) (A) (A) (A) (A) (A) (A) (A) (A) (A)
                 (A) (A) (A) (A) (A) (A) (A) (A) (A) (A) (A) (A)
                 (A) (A) (A) (A) (A) (A) (A) (A) (A) (A) (A) (A)
                 (A) (A) (A) (A) (A) (A) (A) (A) (A) (A) (A) (A)
                 (A) (A) (A) (A) (A) (A) (A) (A) (A) (A) (A) (A)
                 (A) (A) (A) (A) (A) (A) (A) (A) (A) (A) (A) (A)
                 (A) (A) (A) (A) (A) (A) (A) (A) (A) (A) (A) (A)
                 (A) (A) (A) (A) (A) (A) (A) (A) (A) (A) (A) (A)
                 (A) (A) (A) (A) (A) (A) (A) (A) (A) (A) (A) (A)
                 (A) (A) (A) (A) (A) (A) (A) (A) (A) (A) (A) (A)
                 (A) (A) (A)
 The electronic state is 2-A.
 Alpha  occ. eigenvalues --  -19.69565 -19.65524 -19.64368 -10.71784 -10.61568
 Alpha  occ. eigenvalues --  -10.59787 -10.58378 -10.54584  -1.26758  -1.17619
 Alpha  occ. eigenvalues --   -1.11529  -0.92022  -0.88157  -0.79143  -0.71762
 Alpha  occ. eigenvalues --   -0.65610  -0.62590  -0.59636  -0.57557  -0.54737
 Alpha  occ. eigenvalues --   -0.53246  -0.50399  -0.49474  -0.47801  -0.46223
 Alpha  occ. eigenvalues --   -0.43095  -0.41944  -0.40080  -0.39511  -0.37477
 Alpha  occ. eigenvalues --   -0.34197
 Alpha virt. eigenvalues --   -0.02543  -0.00732   0.00792   0.01290   0.01630
 Alpha virt. eigenvalues --    0.02787   0.04650   0.04965   0.05351   0.06009
 Alpha virt. eigenvalues --    0.06585   0.07034   0.08138   0.08868   0.10136
 Alpha virt. eigenvalues --    0.11014   0.11867   0.12087   0.12202   0.12995
 Alpha virt. eigenvalues --    0.13390   0.14036   0.14460   0.15699   0.15947
 Alpha virt. eigenvalues --    0.16773   0.17833   0.18003   0.18742   0.20337
 Alpha virt. eigenvalues --    0.20622   0.20969   0.22060   0.23330   0.23415
 Alpha virt. eigenvalues --    0.25802   0.26498   0.27637   0.28766   0.29263
 Alpha virt. eigenvalues --    0.30062   0.31131   0.31649   0.31999   0.32717
 Alpha virt. eigenvalues --    0.33487   0.34101   0.35966   0.36423   0.37307
 Alpha virt. eigenvalues --    0.40232   0.41696   0.45612   0.45867   0.49654
 Alpha virt. eigenvalues --    0.50587   0.50983   0.54738   0.55680   0.57444
 Alpha virt. eigenvalues --    0.61420   0.62393   0.63629   0.65431   0.66363
 Alpha virt. eigenvalues --    0.66902   0.68519   0.68879   0.70507   0.72494
 Alpha virt. eigenvalues --    0.73941   0.76416   0.77040   0.78226   0.81226
 Alpha virt. eigenvalues --    0.84202   0.89588   0.91554   0.95479   0.99006
 Alpha virt. eigenvalues --    1.00853   1.04754   1.07386   1.07582   1.10573
 Alpha virt. eigenvalues --    1.12708   1.14360   1.16619   1.18608   1.20452
 Alpha virt. eigenvalues --    1.20882   1.22803   1.24741   1.28413   1.32827
 Alpha virt. eigenvalues --    1.34113   1.34506   1.36442   1.40988   1.44702
 Alpha virt. eigenvalues --    1.45556   1.49120   1.50882   1.52478   1.53946
 Alpha virt. eigenvalues --    1.57345   1.58354   1.59605   1.60659   1.63089
 Alpha virt. eigenvalues --    1.65367   1.67589   1.69626   1.73235   1.74634
 Alpha virt. eigenvalues --    1.81020   1.82141   1.83771   1.85265   1.86859
 Alpha virt. eigenvalues --    1.89477   1.93620   1.98502   2.02182   2.07388
 Alpha virt. eigenvalues --    2.11027   2.12095   2.13337   2.19931   2.30304
 Alpha virt. eigenvalues --    2.34682   2.38654   2.41862   2.50663   2.52894
 Alpha virt. eigenvalues --    2.54928   2.60577   2.61518   2.62391   2.63737
 Alpha virt. eigenvalues --    2.64561   2.66278   2.70849   2.73981   2.74269
 Alpha virt. eigenvalues --    2.78868   2.81926   2.83821   2.87706   2.90969
 Alpha virt. eigenvalues --    2.93616   2.96615   2.97834   2.99914   3.00913
 Alpha virt. eigenvalues --    3.07737   3.12030   3.14722   3.18526   3.20900
 Alpha virt. eigenvalues --    3.23795   3.24826   3.29062   3.32016   3.41919
 Alpha virt. eigenvalues --    3.43163   3.52912   3.64113   3.71943   3.84105
 Alpha virt. eigenvalues --    3.85403   3.89705   3.90535   4.02151   4.08937
 Alpha virt. eigenvalues --    4.16051   4.27016   5.06825   5.12444   5.13012
 Alpha virt. eigenvalues --    5.16042   5.30664   5.44818   5.58493   5.71212
 Alpha virt. eigenvalues --    5.93368  23.61753  23.92340  23.93412  24.05122
 Alpha virt. eigenvalues --   25.03460  49.95585  49.99099  50.10470
  Beta  occ. eigenvalues --  -19.69552 -19.64331 -19.64104 -10.71805 -10.61565
  Beta  occ. eigenvalues --  -10.59849 -10.58139 -10.54584  -1.26696  -1.17519
  Beta  occ. eigenvalues --   -1.05437  -0.91378  -0.87731  -0.79039  -0.71521
  Beta  occ. eigenvalues --   -0.65518  -0.62193  -0.59498  -0.57427  -0.54574
  Beta  occ. eigenvalues --   -0.50866  -0.50145  -0.47711  -0.46317  -0.43031
  Beta  occ. eigenvalues --   -0.40453  -0.40045  -0.39701  -0.38166  -0.35761
  Beta virt. eigenvalues --   -0.09339  -0.02491  -0.00634   0.00995   0.01332
  Beta virt. eigenvalues --    0.01783   0.02897   0.04914   0.05047   0.05777
  Beta virt. eigenvalues --    0.06433   0.06968   0.07134   0.08364   0.08988
  Beta virt. eigenvalues --    0.10807   0.11270   0.12027   0.12139   0.12245
  Beta virt. eigenvalues --    0.13010   0.13730   0.14130   0.14521   0.15776
  Beta virt. eigenvalues --    0.16068   0.17099   0.17959   0.18224   0.18756
  Beta virt. eigenvalues --    0.20413   0.20967   0.21323   0.22063   0.23435
  Beta virt. eigenvalues --    0.23640   0.25880   0.26308   0.27478   0.28662
  Beta virt. eigenvalues --    0.29316   0.30143   0.31097   0.31556   0.31983
  Beta virt. eigenvalues --    0.32629   0.33720   0.34017   0.36062   0.36706
  Beta virt. eigenvalues --    0.37434   0.40225   0.41810   0.45785   0.45953
  Beta virt. eigenvalues --    0.49690   0.50629   0.51132   0.54947   0.55743
  Beta virt. eigenvalues --    0.57659   0.61401   0.62612   0.63777   0.65458
  Beta virt. eigenvalues --    0.66617   0.67135   0.68603   0.69079   0.70611
  Beta virt. eigenvalues --    0.72572   0.74036   0.76521   0.77027   0.78563
  Beta virt. eigenvalues --    0.81170   0.84597   0.89718   0.91624   0.95600
  Beta virt. eigenvalues --    0.99183   1.00937   1.05174   1.08189   1.08248
  Beta virt. eigenvalues --    1.11080   1.13842   1.14588   1.17079   1.19152
  Beta virt. eigenvalues --    1.20879   1.22169   1.22961   1.24890   1.28562
  Beta virt. eigenvalues --    1.33480   1.34069   1.35379   1.36701   1.41242
  Beta virt. eigenvalues --    1.45431   1.45615   1.49167   1.50896   1.53058
  Beta virt. eigenvalues --    1.55054   1.57443   1.58470   1.59695   1.60734
  Beta virt. eigenvalues --    1.63194   1.65476   1.67903   1.69774   1.73323
  Beta virt. eigenvalues --    1.74695   1.81027   1.82678   1.84052   1.85499
  Beta virt. eigenvalues --    1.86951   1.89933   1.93766   1.98560   2.02328
  Beta virt. eigenvalues --    2.07484   2.11344   2.12146   2.14379   2.19953
  Beta virt. eigenvalues --    2.30339   2.34719   2.38768   2.42188   2.50667
  Beta virt. eigenvalues --    2.52905   2.54938   2.60506   2.61515   2.62366
  Beta virt. eigenvalues --    2.63787   2.64565   2.66236   2.70634   2.73994
  Beta virt. eigenvalues --    2.74712   2.78982   2.82046   2.84924   2.90975
  Beta virt. eigenvalues --    2.93112   2.93959   2.97444   2.99765   3.00756
  Beta virt. eigenvalues --    3.01142   3.09158   3.12216   3.14857   3.20251
  Beta virt. eigenvalues --    3.22122   3.24421   3.27857   3.29394   3.32071
  Beta virt. eigenvalues --    3.42060   3.43216   3.52941   3.64252   3.72059
  Beta virt. eigenvalues --    3.84110   3.85406   3.90018   3.93335   4.02235
  Beta virt. eigenvalues --    4.09180   4.16246   4.27045   5.08745   5.12527
  Beta virt. eigenvalues --    5.16091   5.21194   5.30790   5.44902   5.60904
  Beta virt. eigenvalues --    5.71313   5.93404  23.61812  23.92355  23.93428
  Beta virt. eigenvalues --   24.05123  25.03660  49.95067  49.99071  50.10439
          Condensed to atoms (all electrons):
               1          2          3          4          5          6
     1  O    8.119688   0.261372  -0.181043  -0.025102  -0.035345   0.146454
     2  H    0.261372   0.476079   0.176728   0.005178  -0.036790  -0.138557
     3  C   -0.181043   0.176728  18.874540   0.743020  -4.912135  -6.588588
     4  H   -0.025102   0.005178   0.743020   0.415642  -0.247654  -0.089649
     5  C   -0.035345  -0.036790  -4.912135  -0.247654  12.053879  -2.127990
     6  C    0.146454  -0.138557  -6.588588  -0.089649  -2.127990  14.244142
     7  O   -0.001758   0.001337   0.012099  -0.000314   0.115243   0.217102
     8  O    0.011775   0.008368   0.092274  -0.000908  -0.323699   0.031868
     9  C    0.004078  -0.002885  -0.256351  -0.000383  -0.428694   0.496215
    10  C   -0.002771   0.001636   0.051835  -0.000125   0.068863  -0.192338
    11  H    0.000218  -0.001487  -0.004063   0.000115   0.000471   0.018712
    12  H    0.000268  -0.000414   0.006900  -0.000039  -0.020699   0.006058
    13  H   -0.000075   0.000112  -0.000628  -0.000004   0.007519  -0.002356
    14  H    0.000620  -0.000794   0.001733   0.000037  -0.008514   0.007719
    15  H    0.000206  -0.000195  -0.013409  -0.000031  -0.053282   0.047208
               7          8          9         10         11         12
     1  O   -0.001758   0.011775   0.004078  -0.002771   0.000218   0.000268
     2  H    0.001337   0.008368  -0.002885   0.001636  -0.001487  -0.000414
     3  C    0.012099   0.092274  -0.256351   0.051835  -0.004063   0.006900
     4  H   -0.000314  -0.000908  -0.000383  -0.000125   0.000115  -0.000039
     5  C    0.115243  -0.323699  -0.428694   0.068863   0.000471  -0.020699
     6  C    0.217102   0.031868   0.496215  -0.192338   0.018712   0.006058
     7  O    8.021652  -0.137763   0.058293  -0.065811   0.004648  -0.021889
     8  O   -0.137763   8.391863   0.121195  -0.046029  -0.087426  -0.015290
     9  C    0.058293   0.121195   5.513835   0.002486   0.447280   0.404876
    10  C   -0.065811  -0.046029   0.002486   5.479936  -0.071287  -0.019660
    11  H    0.004648  -0.087426   0.447280  -0.071287   0.526868  -0.034652
    12  H   -0.021889  -0.015290   0.404876  -0.019660  -0.034652   0.508863
    13  H   -0.000669   0.015585  -0.048075   0.404549  -0.001470  -0.005073
    14  H    0.000852  -0.005180  -0.026093   0.407558  -0.009473   0.004789
    15  H    0.005150  -0.020927   0.012265   0.374164   0.012014  -0.010788
              13         14         15
     1  O   -0.000075   0.000620   0.000206
     2  H    0.000112  -0.000794  -0.000195
     3  C   -0.000628   0.001733  -0.013409
     4  H   -0.000004   0.000037  -0.000031
     5  C    0.007519  -0.008514  -0.053282
     6  C   -0.002356   0.007719   0.047208
     7  O   -0.000669   0.000852   0.005150
     8  O    0.015585  -0.005180  -0.020927
     9  C   -0.048075  -0.026093   0.012265
    10  C    0.404549   0.407558   0.374164
    11  H   -0.001470  -0.009473   0.012014
    12  H   -0.005073   0.004789  -0.010788
    13  H    0.527458  -0.032139  -0.031907
    14  H   -0.032139   0.539439  -0.046534
    15  H   -0.031907  -0.046534   0.542432
          Atomic-Atomic Spin Densities.
               1          2          3          4          5          6
     1  O    0.905406   0.001813  -0.073325   0.004935  -0.132244   0.080681
     2  H    0.001813  -0.026381   0.003684  -0.000826   0.029868  -0.017622
     3  C   -0.073325   0.003684  -0.310652   0.045002   0.277950  -0.102967
     4  H    0.004935  -0.000826   0.045002   0.013636  -0.043418   0.000981
     5  C   -0.132244   0.029868   0.277950  -0.043418   1.149541  -0.876950
     6  C    0.080681  -0.017622  -0.102967   0.000981  -0.876950   0.889412
     7  O   -0.001329   0.000575   0.006701  -0.000497   0.036961  -0.046474
     8  O    0.007025  -0.002365  -0.022832   0.000310  -0.105320   0.115330
     9  C    0.003936  -0.002816   0.005377   0.000527  -0.074103   0.048750
    10  C   -0.001080   0.001082   0.000632  -0.000268   0.026595  -0.014414
    11  H    0.000452  -0.000486   0.000529   0.000066  -0.009506   0.005859
    12  H    0.000089  -0.000087  -0.002382   0.000026  -0.009915   0.010184
    13  H   -0.000018   0.000020   0.000643  -0.000008   0.002681  -0.002030
    14  H    0.000052  -0.000155  -0.000471   0.000023  -0.002832   0.002102
    15  H    0.000044  -0.000029  -0.000328   0.000018  -0.004418   0.003525
               7          8          9         10         11         12
     1  O   -0.001329   0.007025   0.003936  -0.001080   0.000452   0.000089
     2  H    0.000575  -0.002365  -0.002816   0.001082  -0.000486  -0.000087
     3  C    0.006701  -0.022832   0.005377   0.000632   0.000529  -0.002382
     4  H   -0.000497   0.000310   0.000527  -0.000268   0.000066   0.000026
     5  C    0.036961  -0.105320  -0.074103   0.026595  -0.009506  -0.009915
     6  C   -0.046474   0.115330   0.048750  -0.014414   0.005859   0.010184
     7  O    0.022764  -0.006088  -0.005668   0.002412  -0.000451  -0.000532
     8  O   -0.006088   0.003966   0.008307  -0.001984   0.000544   0.000144
     9  C   -0.005668   0.008307   0.019251  -0.009185   0.003093   0.002577
    10  C    0.002412  -0.001984  -0.009185   0.000917  -0.002428  -0.001009
    11  H   -0.000451   0.000544   0.003093  -0.002428   0.001716   0.000500
    12  H   -0.000532   0.000144   0.002577  -0.001009   0.000500   0.000225
    13  H    0.000178   0.000168  -0.000733  -0.000305  -0.000300  -0.000156
    14  H   -0.000123  -0.000028   0.001056  -0.000076   0.000300   0.000084
    15  H   -0.000243   0.000154   0.001265  -0.000307   0.000251   0.000163
              13         14         15
     1  O   -0.000018   0.000052   0.000044
     2  H    0.000020  -0.000155  -0.000029
     3  C    0.000643  -0.000471  -0.000328
     4  H   -0.000008   0.000023   0.000018
     5  C    0.002681  -0.002832  -0.004418
     6  C   -0.002030   0.002102   0.003525
     7  O    0.000178  -0.000123  -0.000243
     8  O    0.000168  -0.000028   0.000154
     9  C   -0.000733   0.001056   0.001265
    10  C   -0.000305  -0.000076  -0.000307
    11  H   -0.000300   0.000300   0.000251
    12  H   -0.000156   0.000084   0.000163
    13  H    0.000039   0.000033  -0.000069
    14  H    0.000033  -0.000084  -0.000021
    15  H   -0.000069  -0.000021   0.000177
 Mulliken charges and spin densities:
               1          2
     1  O   -0.298585   0.796436
     2  H    0.250311  -0.013724
     3  C   -2.002911  -0.172441
     4  H    0.200217   0.020507
     5  C    1.948827   0.264890
     6  C   -0.076000   0.096367
     7  O   -0.208173   0.008187
     8  O   -0.035707  -0.002669
     9  C   -0.298041   0.001631
    10  C   -0.393004   0.000581
    11  H    0.199531   0.000138
    12  H    0.196750  -0.000089
    13  H    0.167173   0.000144
    14  H    0.165978  -0.000139
    15  H    0.183635   0.000179
 Sum of Mulliken charges =  -0.00000   1.00000
 Mulliken charges and spin densities with hydrogens summed into heavy atoms:
               1          2
     1  O   -0.048274   0.782712
     3  C   -1.802695  -0.151934
     5  C    1.948827   0.264890
     6  C   -0.076000   0.096367
     7  O   -0.208173   0.008187
     8  O   -0.035707  -0.002669
     9  C    0.098239   0.001681
    10  C    0.123782   0.000766
 APT charges:
               1
     1  O   -0.145138
     2  H    0.265910
     3  C   -0.394954
     4  H    0.253463
     5  C   -0.245798
     6  C    1.461227
     7  O   -0.781349
     8  O   -0.943507
     9  C    0.542187
    10  C   -0.043819
    11  H   -0.012257
    12  H   -0.011327
    13  H    0.012215
    14  H    0.011192
    15  H    0.031954
 Sum of APT charges =   0.00000
 APT charges with hydrogens summed into heavy atoms:
               1
     1  O    0.120772
     3  C   -0.141491
     5  C   -0.245798
     6  C    1.461227
     7  O   -0.781349
     8  O   -0.943507
     9  C    0.518603
    10  C    0.011542
 Electronic spatial extent (au):  <R**2>=           1228.1874
 Charge=             -0.0000 electrons
 Dipole moment (field-independent basis, Debye):
    X=             -1.8039    Y=             -1.2059    Z=             -0.2149  Tot=              2.1805
 Quadrupole moment (field-independent basis, Debye-Ang):
   XX=            -43.3779   YY=            -52.2387   ZZ=            -47.4349
   XY=              9.2945   XZ=              1.6886   YZ=              1.0465
 Traceless Quadrupole moment (field-independent basis, Debye-Ang):
   XX=              4.3059   YY=             -4.5549   ZZ=              0.2490
   XY=              9.2945   XZ=              1.6886   YZ=              1.0465
 Octapole moment (field-independent basis, Debye-Ang**2):
  XXX=             -6.4688  YYY=            -19.6628  ZZZ=             -3.3648  XYY=             -1.7062
  XXY=             16.2800  XXZ=              2.6995  XZZ=             -4.5828  YZZ=             -0.3266
  YYZ=             -2.3093  XYZ=              1.2069
 Hexadecapole moment (field-independent basis, Debye-Ang**3):
 XXXX=          -1050.8340 YYYY=           -352.1302 ZZZZ=           -113.0580 XXXY=             80.4662
 XXXZ=             29.8854 YYYX=             -6.7710 YYYZ=              4.9435 ZZZX=              2.9965
 ZZZY=             -0.0086 XXYY=           -266.9438 XXZZ=           -214.6779 YYZZ=            -73.9799
 XXYZ=              8.8069 YYXZ=             -1.0893 ZZXY=             -3.1924
 N-N= 3.514928312307D+02 E-N=-1.687354599609D+03  KE= 4.188444251091D+02
  Exact polarizability:  95.923  -9.336  80.110   2.510   1.998  50.219
 Approx polarizability: 104.929 -14.797  90.430   5.142   2.047  57.867
                          Isotropic Fermi Contact Couplings
        Atom                 a.u.       MegaHertz       Gauss      10(-4) cm-1
     1  O(17)              0.12466     -75.57039     -26.96539     -25.20757
     2  H(1)              -0.01355     -60.55638     -21.60802     -20.19943
     3  C(13)              0.01352      15.20422       5.42524       5.07158
     4  H(1)               0.00773      34.56043      12.33202      11.52812
     5  C(13)              0.04749      53.38945      19.05068      17.80880
     6  C(13)             -0.01331     -14.96183      -5.33875      -4.99073
     7  O(17)              0.00780      -4.73076      -1.68805      -1.57801
     8  O(17)              0.01560      -9.45432      -3.37354      -3.15362
     9  C(13)              0.00217       2.44336       0.87185       0.81502
    10  C(13)             -0.00002      -0.02469      -0.00881      -0.00823
    11  H(1)               0.00007       0.29144       0.10399       0.09721
    12  H(1)              -0.00004      -0.15861      -0.05660      -0.05291
    13  H(1)               0.00005       0.20543       0.07330       0.06852
    14  H(1)               0.00001       0.03539       0.01263       0.01181
    15  H(1)              -0.00000      -0.01248      -0.00445      -0.00416
 --------------------------------------------------------
       Center         ----  Spin Dipole Couplings  ----
                      3XX-RR        3YY-RR        3ZZ-RR
 --------------------------------------------------------
     1   Atom       -1.150128      2.707551     -1.557424
     2   Atom        0.122401     -0.021870     -0.100531
     3   Atom        0.079832     -0.044383     -0.035449
     4   Atom       -0.006866      0.012197     -0.005332
     5   Atom       -0.221459      0.367849     -0.146390
     6   Atom        0.009334      0.001088     -0.010422
     7   Atom        0.040316     -0.032335     -0.007982
     8   Atom        0.017247     -0.011253     -0.005994
     9   Atom        0.005645     -0.002316     -0.003329
    10   Atom        0.002016     -0.000918     -0.001097
    11   Atom        0.001971     -0.000715     -0.001256
    12   Atom        0.002036     -0.000968     -0.001068
    13   Atom        0.001212     -0.000563     -0.000650
    14   Atom        0.001700     -0.000819     -0.000881
    15   Atom        0.001804     -0.000903     -0.000901
 --------------------------------------------------------
                        XY            XZ            YZ
 --------------------------------------------------------
     1   Atom       -1.374498     -0.114883      0.356882
     2   Atom        0.052526      0.047259      0.021396
     3   Atom        0.005524      0.018907      0.000691
     4   Atom        0.009238      0.001118      0.003830
     5   Atom       -0.023289     -0.013495      0.065399
     6   Atom       -0.004057      0.002559      0.001011
     7   Atom        0.008475      0.007844     -0.002162
     8   Atom        0.009102      0.005181      0.000638
     9   Atom        0.002176      0.001344      0.000331
    10   Atom        0.000215     -0.000623     -0.000071
    11   Atom        0.000770      0.000945      0.000479
    12   Atom       -0.000320      0.001306     -0.000102
    13   Atom        0.000174     -0.000185     -0.000012
    14   Atom        0.000558     -0.000913     -0.000252
    15   Atom       -0.000158     -0.000886      0.000002
 --------------------------------------------------------


 ---------------------------------------------------------------------------------
              Anisotropic Spin Dipole Couplings in Principal Axis System
 ---------------------------------------------------------------------------------

       Atom             a.u.   MegaHertz   Gauss  10(-4) cm-1        Axes

              Baa    -1.5899   115.046    41.051    38.375  0.9304  0.2777  0.2392
     1 O(17)  Bbb    -1.5869   114.830    40.974    38.303 -0.2052 -0.1461  0.9677
              Bcc     3.1769  -229.876   -82.026   -76.679 -0.3037  0.9495  0.0789
 
              Baa    -0.1116   -59.528   -21.241   -19.857 -0.1669 -0.1352  0.9767
     2 H(1)   Bbb    -0.0385   -20.564    -7.338    -6.860 -0.3290  0.9414  0.0741
              Bcc     0.1501    80.093    28.579    26.716  0.9295  0.3090  0.2016
 
              Baa    -0.0446    -5.989    -2.137    -1.998 -0.0479  0.9986  0.0235
     3 C(13)  Bbb    -0.0385    -5.162    -1.842    -1.722 -0.1563 -0.0307  0.9872
              Bcc     0.0831    11.151     3.979     3.719  0.9865  0.0436  0.1576
 
              Baa    -0.0106    -5.678    -2.026    -1.894  0.9187 -0.3858  0.0849
     4 H(1)   Bbb    -0.0060    -3.209    -1.145    -1.070 -0.1461 -0.1321  0.9804
              Bcc     0.0167     8.887     3.171     2.964  0.3670  0.9131  0.1777
 
              Baa    -0.2241   -30.068   -10.729   -10.030  0.9880  0.0219  0.1532
     5 C(13)  Bbb    -0.1530   -20.530    -7.326    -6.848 -0.1491 -0.1298  0.9803
              Bcc     0.3771    50.598    18.055    16.878 -0.0414  0.9913  0.1249
 
              Baa    -0.0110    -1.470    -0.524    -0.490 -0.1502 -0.1329  0.9797
     6 C(13)  Bbb    -0.0002    -0.031    -0.011    -0.010  0.3437  0.9221  0.1778
              Bcc     0.0112     1.500     0.535     0.500  0.9270 -0.3634  0.0928
 
              Baa    -0.0337     2.437     0.870     0.813 -0.1256  0.9847  0.1212
     7 O(17)  Bbb    -0.0087     0.633     0.226     0.211 -0.1331 -0.1378  0.9815
              Bcc     0.0424    -3.070    -1.095    -1.024  0.9831  0.1072  0.1484
 
              Baa    -0.0140     1.014     0.362     0.338 -0.2953  0.9484  0.1153
     8 O(17)  Bbb    -0.0069     0.498     0.178     0.166 -0.1474 -0.1645  0.9753
              Bcc     0.0209    -1.512    -0.539    -0.504  0.9440  0.2710  0.1883
 
              Baa    -0.0035    -0.473    -0.169    -0.158 -0.1410 -0.0170  0.9899
     9 C(13)  Bbb    -0.0029    -0.385    -0.138    -0.129 -0.2449  0.9694 -0.0183
              Bcc     0.0064     0.859     0.306     0.286  0.9592  0.2450  0.1409
 
              Baa    -0.0012    -0.164    -0.058    -0.055  0.1817  0.1006  0.9782
    10 C(13)  Bbb    -0.0009    -0.125    -0.045    -0.042 -0.0905  0.9922 -0.0853
              Bcc     0.0022     0.289     0.103     0.096  0.9792  0.0731 -0.1894
 
              Baa    -0.0016    -0.859    -0.306    -0.287 -0.1683 -0.3490  0.9219
    11 H(1)   Bbb    -0.0009    -0.457    -0.163    -0.152 -0.3380  0.8990  0.2786
              Bcc     0.0025     1.316     0.469     0.439  0.9260  0.2647  0.2692
 
              Baa    -0.0015    -0.824    -0.294    -0.275 -0.3446 -0.0249  0.9384
    12 H(1)   Bbb    -0.0010    -0.534    -0.190    -0.178  0.0808  0.9951  0.0560
              Bcc     0.0025     1.358     0.484     0.453  0.9353 -0.0952  0.3409
 
              Baa    -0.0007    -0.356    -0.127    -0.119  0.1034 -0.0623  0.9927
    13 H(1)   Bbb    -0.0006    -0.309    -0.110    -0.103 -0.0892  0.9934  0.0716
              Bcc     0.0012     0.665     0.237     0.222  0.9906  0.0959 -0.0971
 
              Baa    -0.0012    -0.636    -0.227    -0.212  0.2423  0.2691  0.9321
    14 H(1)   Bbb    -0.0009    -0.494    -0.176    -0.165 -0.2701  0.9415 -0.2015
              Bcc     0.0021     1.129     0.403     0.377  0.9318  0.2030 -0.3009
 
              Baa    -0.0012    -0.626    -0.223    -0.209  0.2893  0.1620  0.9434
    15 H(1)   Bbb    -0.0009    -0.482    -0.172    -0.161  0.0019  0.9855 -0.1698
              Bcc     0.0021     1.108     0.395     0.370  0.9572 -0.0509 -0.2848
 

 ---------------------------------------------------------------------------------

 Calling FoFJK, ICntrl=    100127 FMM=F ISym2X=0 I1Cent= 0 IOpClX= 1 NMat=1 NMatS=1 NMatT=0.
 Full mass-weighted force constant matrix:
 Low frequencies --- -493.4490  -51.0197  -22.8380   -3.5224   -0.0008   -0.0007
 Low frequencies ---    0.0004   13.5401   38.8640
 ******    2 imaginary frequencies (negative Signs) ****** 
 Diagonal vibrational polarizability:
       35.2678608      29.3501213     169.4827010
 Harmonic frequencies (cm**-1), IR intensities (KM/Mole), Raman scattering
 activities (A**4/AMU), depolarization ratios for plane and unpolarized
 incident light, reduced masses (AMU), force constants (mDyne/A),
 and normal coordinates:
                      1                      2                      3
                      A                      A                      A
 Frequencies --   -493.4490               -36.3442                35.7057
 Red. masses --     12.3165                 5.8106                 6.1855
 Frc consts  --      1.7669                 0.0045                 0.0046
 IR Inten    --     71.8667                 4.9114                 1.2418
  Atom  AN      X      Y      Z        X      Y      Z        X      Y      Z
     1   8     0.05  -0.54  -0.06    -0.11  -0.07   0.33     0.45   0.05   0.08
     2   1    -0.06  -0.21  -0.05    -0.10  -0.04   0.25     0.52  -0.18   0.05
     3   6    -0.03   0.78   0.10     0.04   0.02  -0.28    -0.01   0.02  -0.07
     4   1     0.07  -0.15  -0.01     0.07   0.02  -0.45    -0.02   0.19  -0.10
     5   6    -0.01  -0.02  -0.00     0.03   0.04  -0.18    -0.04  -0.17  -0.06
     6   6    -0.00   0.01   0.00     0.00   0.04  -0.00    -0.05  -0.09   0.01
     7   8    -0.01  -0.01  -0.00    -0.02   0.02   0.23     0.03  -0.04   0.10
     8   8    -0.01  -0.00  -0.00     0.00   0.06  -0.15    -0.15  -0.04  -0.05
     9   6     0.00   0.00   0.00    -0.01   0.07  -0.06    -0.17   0.10  -0.03
    10   6    -0.00   0.00   0.00     0.09  -0.16  -0.00    -0.15   0.12  -0.02
    11   1    -0.01   0.00  -0.00    -0.04   0.16  -0.21    -0.27   0.13  -0.06
    12   1    -0.00   0.00   0.00    -0.08   0.17   0.10    -0.11   0.16   0.01
    13   1    -0.00   0.00   0.00     0.08  -0.15   0.05    -0.17   0.22  -0.01
    14   1    -0.00  -0.00   0.00     0.16  -0.26  -0.16    -0.21   0.06  -0.05
    15   1     0.00  -0.00  -0.00     0.11  -0.24   0.15    -0.06   0.09   0.02
                      4                      5                      6
                      A                      A                      A
 Frequencies --     79.4791               115.5478               203.4690
 Red. masses --      3.3778                 3.3953                 1.7934
 Frc consts  --      0.0126                 0.0267                 0.0437
 IR Inten    --      1.6164                 1.2656                 4.3098
  Atom  AN      X      Y      Z        X      Y      Z        X      Y      Z
     1   8    -0.04   0.02  -0.03    -0.04   0.02   0.02    -0.09   0.09  -0.00
     2   1    -0.08   0.03   0.12    -0.00   0.05  -0.19    -0.11   0.11   0.05
     3   6     0.06   0.05  -0.20    -0.03   0.01   0.06     0.04   0.10   0.02
     4   1     0.09   0.05  -0.38    -0.04   0.02   0.13     0.04   0.13   0.01
     5   6     0.04   0.04  -0.01    -0.03   0.00  -0.01     0.02  -0.04   0.00
     6   6     0.02  -0.03   0.11    -0.02  -0.06  -0.02     0.03  -0.09  -0.01
     7   8    -0.02  -0.05   0.12    -0.09  -0.11   0.15     0.04  -0.09  -0.01
     8   8     0.05  -0.05   0.17     0.05  -0.04  -0.20     0.00  -0.08  -0.01
     9   6     0.09  -0.07  -0.02     0.03  -0.08  -0.03    -0.02   0.05  -0.00
    10   6    -0.16   0.11  -0.16     0.13   0.25   0.04     0.00   0.03   0.01
    11   1     0.17  -0.15   0.10    -0.02  -0.21   0.21    -0.12   0.10  -0.08
    12   1     0.20  -0.16  -0.20    -0.02  -0.24  -0.20     0.05   0.14   0.07
    13   1    -0.12   0.06  -0.34     0.13   0.12   0.17    -0.09   0.56  -0.02
    14   1    -0.28   0.21   0.03     0.23   0.45   0.22    -0.33  -0.30  -0.20
    15   1    -0.28   0.19  -0.29     0.10   0.39  -0.24     0.44  -0.13   0.25
                      7                      8                      9
                      A                      A                      A
 Frequencies --    223.8660               244.5136               264.9518
 Red. masses --      1.1330                 2.0446                 3.6890
 Frc consts  --      0.0335                 0.0720                 0.1526
 IR Inten    --     88.9368                 6.9583                12.0133
  Atom  AN      X      Y      Z        X      Y      Z        X      Y      Z
     1   8     0.02  -0.01  -0.05     0.08  -0.09   0.02    -0.02   0.02   0.03
     2   1    -0.15  -0.15   0.96     0.13  -0.09  -0.24     0.05   0.06  -0.37
     3   6    -0.01  -0.01  -0.01    -0.06  -0.09  -0.05     0.02   0.04  -0.18
     4   1    -0.00  -0.01  -0.07    -0.05  -0.13  -0.11     0.09   0.12  -0.62
     5   6    -0.02   0.00   0.05    -0.05   0.09   0.05    -0.07  -0.09   0.38
     6   6    -0.01   0.01   0.01    -0.05   0.07   0.03    -0.03  -0.05   0.11
     7   8    -0.02  -0.00  -0.01    -0.13   0.02  -0.02     0.02  -0.00  -0.12
     8   8     0.00   0.01  -0.03     0.05   0.03   0.03    -0.02  -0.02  -0.04
     9   6     0.01   0.00  -0.02     0.07  -0.03  -0.00    -0.03   0.05  -0.06
    10   6     0.04   0.01   0.00     0.06   0.03  -0.01     0.09   0.02   0.01
    11   1     0.00  -0.00  -0.01     0.10  -0.06   0.04    -0.07   0.07  -0.09
    12   1    -0.00  -0.00  -0.02     0.06  -0.07  -0.05    -0.02   0.09  -0.01
    13   1     0.03   0.04   0.03    -0.03   0.56  -0.05     0.10  -0.18   0.16
    14   1     0.04   0.00  -0.01    -0.30  -0.27  -0.16     0.31   0.13   0.01
    15   1     0.07   0.01   0.00     0.49  -0.10   0.17    -0.00   0.06  -0.06
                     10                     11                     12
                      A                      A                      A
 Frequencies --    337.2154               422.7570               573.2348
 Red. masses --      2.9585                 3.9003                 4.8148
 Frc consts  --      0.1982                 0.4107                 0.9322
 IR Inten    --      8.8226                 2.2560                 1.4495
  Atom  AN      X      Y      Z        X      Y      Z        X      Y      Z
     1   8     0.02  -0.03  -0.00    -0.02   0.03  -0.00     0.03  -0.05  -0.00
     2   1     0.03  -0.04  -0.02    -0.00  -0.02  -0.02    -0.02   0.11   0.01
     3   6    -0.02  -0.03   0.01    -0.09   0.02   0.01     0.15  -0.04   0.02
     4   1    -0.03  -0.07   0.08    -0.12   0.08   0.11     0.17  -0.16   0.03
     5   6     0.01   0.10  -0.06    -0.08  -0.15  -0.14     0.17   0.38   0.05
     6   6     0.00  -0.05   0.01    -0.07  -0.01   0.06     0.04  -0.04   0.03
     7   8    -0.15  -0.16  -0.04     0.07   0.09   0.04     0.03  -0.05  -0.00
     8   8     0.05  -0.08   0.10    -0.11  -0.02   0.23    -0.16  -0.02   0.05
     9   6     0.03   0.24  -0.02     0.00  -0.04  -0.16    -0.25  -0.10  -0.15
    10   6     0.06   0.04  -0.01     0.22   0.03  -0.09    -0.00  -0.01  -0.01
    11   1    -0.15   0.39  -0.27     0.07  -0.05  -0.16    -0.12  -0.16  -0.05
    12   1     0.20   0.48   0.20     0.10  -0.02  -0.19    -0.24  -0.16  -0.23
    13   1     0.11  -0.29   0.04     0.15   0.06   0.33    -0.09   0.04   0.47
    14   1     0.33   0.14  -0.05     0.47   0.09  -0.17     0.26   0.04  -0.11
    15   1    -0.19   0.05   0.00     0.47   0.06  -0.19     0.30   0.02  -0.12
                     13                     14                     15
                      A                      A                      A
 Frequencies --    596.1471               768.7516               775.1053
 Red. masses --      8.0714                 1.1008                 2.3429
 Frc consts  --      1.6901                 0.3833                 0.8293
 IR Inten    --      7.4824               188.7847                 0.5963
  Atom  AN      X      Y      Z        X      Y      Z        X      Y      Z
     1   8     0.02  -0.03  -0.00     0.04  -0.05  -0.00    -0.00   0.00   0.01
     2   1     0.08  -0.24  -0.02    -0.25   0.91   0.08     0.02  -0.07  -0.01
     3   6    -0.35  -0.02  -0.06    -0.00  -0.03  -0.01     0.03   0.02  -0.16
     4   1    -0.37   0.03  -0.06    -0.04   0.29   0.03    -0.13  -0.13   0.91
     5   6    -0.26   0.38   0.02    -0.01  -0.01   0.00    -0.02  -0.02   0.15
     6   6     0.01  -0.15  -0.03    -0.02   0.00  -0.02     0.03   0.04  -0.24
     7   8     0.36   0.09   0.07    -0.00   0.02   0.01    -0.01  -0.00   0.07
     8   8     0.09  -0.22  -0.05     0.01  -0.02   0.00    -0.01  -0.01   0.06
     9   6     0.05  -0.00   0.04    -0.00  -0.01   0.00    -0.01  -0.01  -0.00
    10   6    -0.01   0.01   0.01     0.00  -0.00   0.00    -0.00  -0.00  -0.01
    11   1    -0.19   0.12  -0.14    -0.03   0.03  -0.07    -0.01   0.02  -0.06
    12   1     0.18   0.19   0.20     0.02   0.05   0.06     0.02   0.03   0.04
    13   1     0.02  -0.03  -0.12    -0.00   0.01  -0.01    -0.01   0.01   0.04
    14   1    -0.08   0.04   0.09    -0.02   0.02   0.04     0.02   0.03   0.02
    15   1    -0.11   0.03  -0.02     0.00   0.02  -0.04     0.05   0.02  -0.05
                     16                     17                     18
                      A                      A                      A
 Frequencies --    784.1079               801.3070               821.1163
 Red. masses --      2.2502                 1.2319                 1.0696
 Frc consts  --      0.8151                 0.4661                 0.4249
 IR Inten    --     57.8215                 0.8088                22.3184
  Atom  AN      X      Y      Z        X      Y      Z        X      Y      Z
     1   8     0.00  -0.01   0.00     0.00  -0.02  -0.00    -0.02  -0.04  -0.01
     2   1    -0.02   0.04   0.04    -0.02   0.04   0.00     0.07  -0.33  -0.03
     3   6     0.01   0.01  -0.12    -0.03  -0.01  -0.00     0.03  -0.03   0.00
     4   1    -0.15  -0.04   0.90    -0.05   0.28  -0.03    -0.07   0.90   0.09
     5   6     0.00   0.01  -0.05    -0.02   0.01   0.01     0.01   0.02   0.00
     6   6    -0.04  -0.05   0.27     0.03  -0.02  -0.05     0.00   0.00   0.00
     7   8     0.02   0.00  -0.08     0.02  -0.05   0.01    -0.01  -0.00  -0.00
     8   8     0.01   0.02  -0.07    -0.02   0.03   0.02    -0.00   0.01   0.00
     9   6     0.01   0.02   0.00     0.01   0.08   0.01     0.00  -0.02   0.00
    10   6     0.00   0.01   0.01     0.01   0.03  -0.01     0.00  -0.01   0.00
    11   1     0.02  -0.04   0.11     0.08  -0.18   0.47     0.01   0.04  -0.11
    12   1    -0.03  -0.06  -0.08     0.02  -0.26  -0.41    -0.02   0.05   0.10
    13   1     0.02  -0.03  -0.05     0.05  -0.17  -0.05    -0.01   0.05   0.00
    14   1    -0.01  -0.04  -0.05     0.17  -0.18  -0.35    -0.05   0.05   0.10
    15   1    -0.06  -0.03   0.09    -0.13  -0.16   0.38     0.04   0.04  -0.11
                     19                     20                     21
                      A                      A                      A
 Frequencies --    892.4245               929.0637              1072.2804
 Red. masses --      3.0787                 2.8211                 4.1149
 Frc consts  --      1.4446                 1.4347                 2.7876
 IR Inten    --     15.0476                 4.5965                22.5576
  Atom  AN      X      Y      Z        X      Y      Z        X      Y      Z
     1   8    -0.01   0.00  -0.00     0.00   0.00   0.00    -0.00  -0.00  -0.00
     2   1     0.03  -0.12  -0.01    -0.02   0.08   0.01    -0.00   0.01  -0.00
     3   6     0.05  -0.00   0.01    -0.12   0.00  -0.02     0.08  -0.00   0.01
     4   1     0.04   0.12   0.02    -0.13  -0.01  -0.02     0.09  -0.04   0.01
     5   6     0.03  -0.05  -0.01    -0.07  -0.03  -0.02     0.04   0.05   0.01
     6   6    -0.06   0.09   0.01     0.15  -0.01   0.02    -0.14  -0.08  -0.04
     7   8    -0.05   0.15   0.01     0.04  -0.13  -0.01     0.01   0.03   0.01
     8   8     0.19  -0.18  -0.02     0.10   0.17   0.02    -0.21  -0.02  -0.04
     9   6    -0.07  -0.01  -0.10    -0.01   0.01  -0.10     0.35   0.03  -0.13
    10   6    -0.14   0.03   0.07    -0.15  -0.05   0.08    -0.11  -0.00   0.17
    11   1    -0.22  -0.06   0.01     0.38   0.03  -0.20     0.36   0.08  -0.25
    12   1     0.28   0.00  -0.28    -0.02  -0.01  -0.11     0.47   0.02  -0.22
    13   1    -0.19  -0.14   0.54    -0.27   0.10   0.65    -0.13  -0.00   0.33
    14   1     0.26  -0.06  -0.26     0.10   0.12   0.14    -0.07   0.05   0.22
    15   1     0.02  -0.11   0.32     0.25   0.04  -0.14    -0.07  -0.05   0.27
                     22                     23                     24
                      A                      A                      A
 Frequencies --   1127.4715              1202.8020              1262.5929
 Red. masses --      2.0679                 1.7814                 5.5477
 Frc consts  --      1.5488                 1.5184                 5.2107
 IR Inten    --     21.8763                10.4097               580.4079
  Atom  AN      X      Y      Z        X      Y      Z        X      Y      Z
     1   8     0.00  -0.00  -0.00    -0.00  -0.00  -0.00     0.00   0.01   0.00
     2   1    -0.00   0.01   0.00    -0.00   0.00   0.00    -0.02   0.03   0.00
     3   6     0.01  -0.00   0.00     0.02  -0.00   0.00    -0.11  -0.00  -0.02
     4   1     0.02  -0.00   0.00     0.03  -0.01   0.00    -0.13   0.08  -0.01
     5   6     0.01   0.01   0.00     0.01   0.00   0.00    -0.02  -0.03  -0.01
     6   6    -0.02  -0.01   0.00    -0.06  -0.03  -0.02     0.39   0.32   0.10
     7   8     0.00   0.01  -0.00    -0.01   0.04   0.01    -0.06  -0.02  -0.01
     8   8    -0.05  -0.01  -0.05     0.03  -0.07   0.00    -0.19  -0.19  -0.04
     9   6     0.07   0.01   0.22    -0.02   0.19   0.01     0.13   0.04  -0.03
    10   6    -0.09  -0.01  -0.17     0.02  -0.14  -0.00     0.00  -0.07  -0.00
    11   1     0.04   0.06   0.14     0.30  -0.04   0.39    -0.61  -0.06   0.22
    12   1     0.17   0.03   0.21    -0.20  -0.18  -0.35    -0.04  -0.13  -0.18
    13   1    -0.18  -0.01   0.46    -0.07   0.28   0.02    -0.05   0.12   0.06
    14   1     0.45   0.11  -0.33    -0.10   0.14   0.39    -0.07   0.11   0.26
    15   1     0.44  -0.03  -0.21     0.13   0.10  -0.45     0.03  -0.01  -0.11
                     25                     26                     27
                      A                      A                      A
 Frequencies --   1346.0213              1402.1700              1431.3286
 Red. masses --      1.1568                 1.2540                 1.3545
 Frc consts  --      1.2349                 1.4526                 1.6349
 IR Inten    --     41.8436                15.6556                 8.3728
  Atom  AN      X      Y      Z        X      Y      Z        X      Y      Z
     1   8    -0.00  -0.00  -0.00    -0.00  -0.00  -0.00     0.00   0.00   0.00
     2   1     0.00  -0.01   0.00     0.00   0.00   0.00     0.00  -0.00  -0.00
     3   6     0.00   0.00   0.00     0.01  -0.00   0.00    -0.01   0.00  -0.00
     4   1     0.01  -0.01   0.00     0.01  -0.00   0.00    -0.01   0.00  -0.00
     5   6     0.00   0.00   0.00    -0.00   0.00  -0.00     0.00  -0.00   0.00
     6   6    -0.02  -0.03  -0.01    -0.04  -0.02  -0.01     0.04   0.02   0.01
     7   8     0.01  -0.01  -0.00     0.01  -0.01   0.00    -0.01   0.01  -0.00
     8   8     0.01   0.08   0.00     0.02   0.03   0.02    -0.02  -0.02  -0.02
     9   6    -0.02  -0.01   0.00     0.05   0.01  -0.04    -0.09  -0.01   0.08
    10   6     0.01  -0.06   0.01     0.04  -0.00  -0.11     0.09   0.01  -0.07
    11   1    -0.60  -0.07   0.19    -0.36  -0.09   0.21     0.47   0.11  -0.23
    12   1     0.69   0.11  -0.21    -0.34   0.02   0.20     0.48  -0.00  -0.22
    13   1    -0.00   0.07  -0.03    -0.08   0.02   0.50     0.01   0.00   0.36
    14   1    -0.05   0.02   0.14    -0.28   0.16   0.29    -0.36  -0.03   0.15
    15   1     0.04   0.03  -0.17    -0.22  -0.20   0.32    -0.32  -0.07   0.16
                     28                     29                     30
                      A                      A                      A
 Frequencies --   1493.6407              1502.9501              1514.9463
 Red. masses --      1.0404                 1.0621                 1.0805
 Frc consts  --      1.3675                 1.4135                 1.4610
 IR Inten    --     12.3212                 1.7176                17.1654
  Atom  AN      X      Y      Z        X      Y      Z        X      Y      Z
     1   8    -0.00  -0.00  -0.00     0.00   0.00   0.00     0.00   0.00   0.00
     2   1     0.00  -0.00   0.00     0.00  -0.00   0.00    -0.00  -0.00   0.00
     3   6     0.00   0.00   0.00    -0.00   0.00  -0.00    -0.00   0.00  -0.00
     4   1     0.00  -0.00   0.00    -0.00   0.00  -0.00    -0.01   0.00  -0.00
     5   6    -0.00   0.00  -0.00     0.00  -0.00   0.00     0.00  -0.00   0.00
     6   6    -0.00   0.00  -0.00     0.01   0.00   0.00     0.02   0.00   0.00
     7   8     0.00  -0.00   0.00    -0.01   0.01   0.00    -0.01   0.01  -0.00
     8   8     0.00   0.01   0.00    -0.01  -0.01  -0.01    -0.01  -0.01  -0.01
     9   6    -0.01  -0.02   0.01     0.00  -0.01  -0.05    -0.05  -0.01  -0.05
    10   6    -0.00  -0.04  -0.01     0.02  -0.01   0.03    -0.03   0.00  -0.02
    11   1     0.00   0.05  -0.13     0.20  -0.26   0.39     0.30  -0.22   0.30
    12   1     0.02  -0.05  -0.03     0.10   0.36   0.37     0.21   0.33   0.24
    13   1    -0.10   0.63  -0.16    -0.06   0.22   0.18     0.05  -0.13  -0.25
    14   1     0.51   0.27   0.04     0.01  -0.25  -0.28     0.08   0.32   0.31
    15   1    -0.36  -0.13   0.24    -0.37   0.17  -0.26     0.34  -0.21   0.32
                     31                     32                     33
                      A                      A                      A
 Frequencies --   1847.4178              2156.6757              3075.6623
 Red. masses --     12.0764                 6.2350                 1.0354
 Frc consts  --     24.2839                17.0867                 5.7709
 IR Inten    --    396.4757                88.2178                 8.9580
  Atom  AN      X      Y      Z        X      Y      Z        X      Y      Z
     1   8    -0.00  -0.00  -0.00    -0.00   0.02   0.00     0.00   0.00  -0.00
     2   1     0.01  -0.04  -0.00    -0.00   0.02   0.00    -0.00  -0.00   0.00
     3   6     0.08  -0.01   0.01    -0.38   0.03  -0.06     0.00   0.00   0.00
     4   1     0.12   0.02   0.02    -0.72   0.04  -0.10    -0.00  -0.00  -0.00
     5   6    -0.05  -0.00  -0.01     0.55  -0.05   0.08    -0.00  -0.00  -0.00
     6   6    -0.47   0.63   0.02    -0.12   0.01  -0.02     0.00   0.00   0.00
     7   8     0.31  -0.42  -0.01     0.01  -0.01   0.00     0.00  -0.00  -0.00
     8   8     0.01  -0.06  -0.01    -0.00  -0.00  -0.00    -0.00  -0.00  -0.00
     9   6    -0.04   0.01  -0.00     0.00   0.00   0.00    -0.00   0.00  -0.00
    10   6     0.01   0.00   0.01    -0.00  -0.00   0.00    -0.03  -0.01   0.04
    11   1     0.18  -0.05   0.08     0.01   0.00   0.00    -0.00   0.01   0.01
    12   1     0.09   0.12   0.03    -0.00   0.00   0.00     0.01  -0.02   0.02
    13   1     0.02  -0.04  -0.05     0.00  -0.00   0.00     0.59   0.11   0.11
    14   1    -0.03  -0.02   0.00    -0.00  -0.00  -0.00    -0.22   0.43  -0.35
    15   1     0.04   0.03  -0.04     0.00   0.00  -0.00    -0.04  -0.46  -0.23
                     34                     35                     36
                      A                      A                      A
 Frequencies --   3108.7713              3151.0068              3155.7010
 Red. masses --      1.0605                 1.1018                 1.1048
 Frc consts  --      6.0388                 6.4456                 6.4822
 IR Inten    --     16.5195                12.6599                 2.5804
  Atom  AN      X      Y      Z        X      Y      Z        X      Y      Z
     1   8    -0.00  -0.00  -0.00     0.00   0.00   0.00     0.00   0.00   0.00
     2   1     0.00   0.00   0.00     0.00  -0.00  -0.00    -0.00  -0.00  -0.00
     3   6    -0.00  -0.00  -0.00     0.00   0.00   0.00     0.00  -0.00   0.00
     4   1     0.00   0.00  -0.00    -0.00  -0.00  -0.00    -0.00   0.00   0.00
     5   6     0.00   0.00   0.00    -0.00   0.00   0.00    -0.00  -0.00  -0.00
     6   6    -0.00  -0.00  -0.00     0.00   0.00  -0.00    -0.00   0.00  -0.00
     7   8    -0.00   0.00  -0.00     0.00  -0.00  -0.00     0.00  -0.00   0.00
     8   8     0.00   0.00   0.00     0.00  -0.00   0.00     0.00  -0.00  -0.00
     9   6     0.02  -0.01   0.06    -0.00  -0.03  -0.01    -0.01   0.05  -0.00
    10   6    -0.01  -0.00  -0.01    -0.07   0.04  -0.04    -0.04  -0.06  -0.03
    11   1    -0.04  -0.50  -0.26     0.02   0.28   0.15    -0.03  -0.36  -0.19
    12   1    -0.25   0.60  -0.47    -0.02   0.04  -0.04     0.12  -0.27   0.22
    13   1     0.13   0.03   0.03     0.60   0.12   0.10     0.44   0.07   0.08
    14   1     0.02  -0.05   0.03     0.24  -0.51   0.41    -0.05   0.07  -0.07
    15   1    -0.00   0.02   0.01    -0.02  -0.06  -0.04     0.05   0.61   0.32
                     37                     38                     39
                      A                      A                      A
 Frequencies --   3175.9823              3460.0128              3787.6803
 Red. masses --      1.1076                 1.1530                 1.0677
 Frc consts  --      6.5826                 8.1326                 9.0250
 IR Inten    --     11.8059                74.2915                31.9574
  Atom  AN      X      Y      Z        X      Y      Z        X      Y      Z
     1   8    -0.00  -0.00  -0.00     0.00   0.00   0.00    -0.06  -0.02  -0.01
     2   1     0.00  -0.00   0.00    -0.00  -0.00  -0.00     0.94   0.26   0.20
     3   6     0.00   0.00   0.00    -0.11  -0.01  -0.02    -0.00   0.00   0.00
     4   1    -0.00  -0.00  -0.00     0.97   0.10   0.16     0.00   0.00   0.00
     5   6    -0.00   0.00   0.00     0.03  -0.00   0.00     0.00  -0.00   0.00
     6   6     0.00  -0.00  -0.00    -0.00  -0.00  -0.00     0.00   0.00   0.00
     7   8    -0.00   0.00   0.00     0.00   0.00   0.00    -0.00  -0.00  -0.00
     8   8    -0.00   0.00   0.00     0.00   0.00   0.00    -0.00  -0.00  -0.00
     9   6     0.01  -0.07  -0.00    -0.00  -0.00  -0.00    -0.00  -0.00   0.00
    10   6     0.00  -0.06  -0.00     0.00  -0.00   0.00    -0.00   0.00  -0.00
    11   1     0.04   0.56   0.31     0.00   0.00   0.00    -0.00  -0.00  -0.00
    12   1    -0.13   0.32  -0.27     0.00   0.00  -0.00     0.00  -0.00   0.00
    13   1     0.08   0.01   0.01     0.00   0.00  -0.00     0.00  -0.00  -0.00
    14   1    -0.13   0.25  -0.22    -0.00   0.00  -0.00    -0.00  -0.00   0.00
    15   1     0.04   0.44   0.24    -0.00   0.00   0.00     0.00  -0.00  -0.00

 -------------------
 - Thermochemistry -
 -------------------
 Temperature   298.150 Kelvin.  Pressure   1.00000 Atm.
 Atom     1 has atomic number  8 and mass  15.99491
 Atom     2 has atomic number  1 and mass   1.00783
 Atom     3 has atomic number  6 and mass  12.00000
 Atom     4 has atomic number  1 and mass   1.00783
 Atom     5 has atomic number  6 and mass  12.00000
 Atom     6 has atomic number  6 and mass  12.00000
 Atom     7 has atomic number  8 and mass  15.99491
 Atom     8 has atomic number  8 and mass  15.99491
 Atom     9 has atomic number  6 and mass  12.00000
 Atom    10 has atomic number  6 and mass  12.00000
 Atom    11 has atomic number  1 and mass   1.00783
 Atom    12 has atomic number  1 and mass   1.00783
 Atom    13 has atomic number  1 and mass   1.00783
 Atom    14 has atomic number  1 and mass   1.00783
 Atom    15 has atomic number  1 and mass   1.00783
 Molecular mass:   115.03952 amu.
 Principal axes and moments of inertia in atomic units:
                           1         2         3
     Eigenvalues --   510.555931567.643221931.54251
           X            0.99962   0.02708  -0.00564
           Y           -0.02708   0.99963  -0.00034
           Z            0.00563   0.00050   0.99998
 This molecule is an asymmetric top.
 Rotational symmetry number  1.
 Warning -- assumption of classical behavior for rotation
           may cause significant error
 Rotational temperatures (Kelvin)      0.16965     0.05525     0.04484
 Rotational constants (GHZ):           3.53486     1.15124     0.93435
    2 imaginary frequencies ignored.
 Zero-point vibrational energy     293945.7 (Joules/Mol)
                                   70.25470 (Kcal/Mol)
 Warning -- explicit consideration of  11 degrees of freedom as
           vibrations may cause significant error
 Vibrational temperatures:     51.37   114.35   166.25   292.75   322.09
          (Kelvin)            351.80   381.21   485.18   608.25   824.76
                              857.72  1106.06  1115.20  1128.16  1152.90
                             1181.40  1284.00  1336.72  1542.77  1622.18
                             1730.56  1816.59  1936.62  2017.41  2059.36
                             2149.02  2162.41  2179.67  2658.02  3102.98
                             4425.19  4472.83  4533.60  4540.35  4569.53
                             4978.19  5449.63
 
 Zero-point correction=                           0.111958 (Hartree/Particle)
 Thermal correction to Energy=                    0.120807
 Thermal correction to Enthalpy=                  0.121751
 Thermal correction to Gibbs Free Energy=         0.076598
 Sum of electronic and zero-point Energies=           -420.092809
 Sum of electronic and thermal Energies=              -420.083960
 Sum of electronic and thermal Enthalpies=            -420.083016
 Sum of electronic and thermal Free Energies=         -420.128169
 
                     E (Thermal)             CV                S
                      KCal/Mol        Cal/Mol-Kelvin    Cal/Mol-Kelvin
 Total                   75.807             29.964             95.032
 Electronic               0.000              0.000              1.377
 Translational            0.889              2.981             40.136
 Rotational               0.889              2.981             28.826
 Vibrational             74.030             24.002             24.693
 Vibration     1          0.594              1.982              5.484
 Vibration     2          0.600              1.963              3.904
 Vibration     3          0.608              1.937              3.174
 Vibration     4          0.639              1.835              2.101
 Vibration     5          0.649              1.805              1.928
 Vibration     6          0.660              1.772              1.770
 Vibration     7          0.671              1.737              1.629
 Vibration     8          0.718              1.601              1.225
 Vibration     9          0.785              1.421              0.883
 Vibration    10          0.929              1.089              0.498
 Vibration    11          0.954              1.040              0.456
                       Q            Log10(Q)             Ln(Q)
 Total Bot       0.585420D-35        -35.232532        -81.125904
 Total V=0       0.183875D+17         16.264523         37.450448
 Vib (Bot)       0.135603D-48        -48.867730       -112.522107
 Vib (Bot)    1  0.579651D+01          0.763167          1.757256
 Vib (Bot)    2  0.259137D+01          0.413530          0.952187
 Vib (Bot)    3  0.177039D+01          0.248068          0.571198
 Vib (Bot)    4  0.978668D+00         -0.009365         -0.021563
 Vib (Bot)    5  0.882137D+00         -0.054464         -0.125408
 Vib (Bot)    6  0.800259D+00         -0.096770         -0.222820
 Vib (Bot)    7  0.731283D+00         -0.135914         -0.312955
 Vib (Bot)    8  0.551608D+00         -0.258370         -0.594918
 Vib (Bot)    9  0.414466D+00         -0.382511         -0.880764
 Vib (Bot)   10  0.267627D+00         -0.572470         -1.318162
 Vib (Bot)   11  0.251466D+00         -0.599520         -1.380447
 Vib (V=0)       0.425917D+03          2.629325          6.054246
 Vib (V=0)    1  0.631804D+01          0.800582          1.843409
 Vib (V=0)    2  0.313917D+01          0.496814          1.143958
 Vib (V=0)    3  0.233964D+01          0.369149          0.849996
 Vib (V=0)    4  0.159900D+01          0.203847          0.469376
 Vib (V=0)    5  0.151399D+01          0.180122          0.414745
 Vib (V=0)    6  0.144362D+01          0.159452          0.367152
 Vib (V=0)    7  0.138588D+01          0.141724          0.326332
 Vib (V=0)    8  0.124449D+01          0.094993          0.218729
 Vib (V=0)    9  0.114945D+01          0.060489          0.139282
 Vib (V=0)   10  0.106712D+01          0.028213          0.064963
 Vib (V=0)   11  0.105967D+01          0.025172          0.057962
 Electronic      0.200000D+01          0.301030          0.693147
 Translational   0.484981D+08          7.685724         17.697035
 Rotational      0.445085D+06          5.648443         13.006021
 ***** Axes restored to original set *****
 -------------------------------------------------------------------
 Center     Atomic                   Forces (Hartrees/Bohr)
 Number     Number              X              Y              Z
 -------------------------------------------------------------------
      1        8           0.000369914   -0.004840198   -0.000583528
      2        1           0.000007784   -0.000100695   -0.000016385
      3        6           0.000364452    0.005218303    0.000750881
      4        1          -0.000171302   -0.000080976   -0.000035812
      5        6          -0.000440015   -0.000133954   -0.000084057
      6        6           0.000046538    0.000001083    0.000007256
      7        8          -0.000069275   -0.000031612   -0.000011709
      8        8          -0.000089172   -0.000043551   -0.000023202
      9        6           0.000002455    0.000004496   -0.000001056
     10        6          -0.000010512    0.000000298    0.000000021
     11        1          -0.000008017    0.000004669   -0.000004580
     12        1          -0.000001173    0.000005119    0.000002804
     13        1          -0.000002310    0.000000807    0.000000313
     14        1          -0.000001186   -0.000002143   -0.000002364
     15        1           0.000001820   -0.000001647    0.000001419
 -------------------------------------------------------------------
 Cartesian Forces:  Max     0.005218303 RMS     0.001076180

 GradGradGradGradGradGradGradGradGradGradGradGradGradGradGradGradGradGrad
 Berny optimization.
 Search for a local minimum.
 Step number   1 out of a maximum of    2
 All quantities printed in internal units (Hartrees-Bohrs-Radians)
 Second derivative matrix not updated -- analytic derivatives used.
 ITU=  0
     Eigenvalues ---   -0.12043  -0.00042   0.00029   0.00100   0.00188
     Eigenvalues ---    0.00267   0.00341   0.01164   0.01430   0.02158
     Eigenvalues ---    0.02869   0.03218   0.03453   0.04975   0.06269
     Eigenvalues ---    0.07563   0.08260   0.09327   0.09802   0.10232
     Eigenvalues ---    0.11465   0.13992   0.15904   0.17059   0.19985
     Eigenvalues ---    0.28916   0.29879   0.43479   0.48837   0.62152
     Eigenvalues ---    0.70765   0.76949   0.78628   0.84796   0.87399
     Eigenvalues ---    0.94248   0.98741   1.74236   2.46964
 Eigenvalue     1 is  -1.20D-01 should be greater than     0.000000 Eigenvector:
                          Y3        Y1        Z3        X1        Y2
   1                    0.76947  -0.60888   0.09691   0.09455  -0.06876
                          Z1        X2        Y4        X3        X4
   1                   -0.06647  -0.05867  -0.03978  -0.03540   0.03532
 Eigenvalue     2 is  -4.17D-04 should be greater than     0.000000 Eigenvector:
                          Z1        Z4        Z2        Z3        Z7
   1                    0.46848  -0.40311   0.27145  -0.25997   0.21955
                          Y14       Z11       Y15       Z5        Y12
   1                   -0.21374  -0.19804  -0.19797  -0.17963   0.17459
 Angle between quadratic step and forces=  37.03 degrees.
 Linear search not attempted -- first point.
 B after Tr=     0.000819   -0.001786   -0.000054
         Rot=    1.000000    0.000077    0.000020    0.000051 Ang=   0.01 deg.
 Variable       Old X    -DE/DX   Delta X   Delta X   Delta X     New X
                                 (Linear)    (Quad)   (Total)
    X1        5.25893   0.00037   0.00000   0.02709   0.02763   5.28655
    Y1       -2.68046  -0.00484   0.00000  -0.03739  -0.03972  -2.72018
    Z1        0.04677  -0.00058   0.00000   0.00111   0.00169   0.04845
    X2        3.52464   0.00001   0.00000   0.01818   0.01869   3.54333
    Y2       -3.16236  -0.00010   0.00000  -0.00227  -0.00447  -3.16683
    Z2       -0.31629  -0.00002   0.00000   0.00433   0.00490  -0.31140
    X3        4.80473   0.00036   0.00000  -0.00198  -0.00106   4.80366
    Y3        1.13281   0.00522   0.00000   0.04481   0.04260   1.17541
    Z3        0.48008   0.00075   0.00000   0.00269   0.00264   0.48272
    X4        6.78231  -0.00017   0.00000  -0.00061   0.00032   6.78263
    Y4        1.33935  -0.00008   0.00000   0.01419   0.01183   1.35118
    Z4        0.81028  -0.00004   0.00000  -0.00261  -0.00260   0.80768
    X5        2.56236  -0.00044   0.00000  -0.00240  -0.00144   2.56092
    Y5        1.49307  -0.00013   0.00000  -0.01021  -0.01223   1.48084
    Z5        0.18391  -0.00008   0.00000  -0.00348  -0.00366   0.18025
    X6       -0.15475   0.00005   0.00000  -0.00189  -0.00091  -0.15565
    Y6        1.48249   0.00000   0.00000  -0.00463  -0.00644   1.47606
    Z6       -0.22596   0.00001   0.00000  -0.00043  -0.00072  -0.22668
    X7       -1.47538  -0.00007   0.00000   0.00139   0.00255  -1.47283
    Y7        3.31970  -0.00003   0.00000  -0.00249  -0.00415   3.31556
    Z7       -0.16847  -0.00001   0.00000   0.00382   0.00319  -0.16528
    X8       -0.94180  -0.00009   0.00000  -0.00704  -0.00628  -0.94808
    Y8       -0.87685  -0.00004   0.00000  -0.00262  -0.00442  -0.88127
    Z8       -0.68356  -0.00002   0.00000  -0.00326  -0.00322  -0.68677
    X9       -3.62301   0.00000   0.00000  -0.00754  -0.00680  -3.62981
    Y9       -1.19136   0.00000   0.00000   0.00382   0.00224  -1.18912
    Z9       -1.09702  -0.00000   0.00000  -0.00119  -0.00121  -1.09823
   X10       -5.04723  -0.00001   0.00000  -0.00530  -0.00466  -5.05189
   Y10       -1.23059   0.00000   0.00000   0.00246   0.00140  -1.22918
   Z10        1.38733   0.00000   0.00000   0.00011   0.00005   1.38738
   X11       -3.76656  -0.00001   0.00000  -0.01202  -0.01143  -3.77799
   Y11       -2.98711   0.00000   0.00000   0.00584   0.00412  -2.98299
   Z11       -2.08970  -0.00000   0.00000  -0.00420  -0.00394  -2.09364
   X12       -4.27846  -0.00000   0.00000  -0.00547  -0.00453  -4.28299
   Y12        0.32829   0.00001   0.00000   0.00738   0.00567   0.33397
   Z12       -2.32461   0.00000   0.00000   0.00211   0.00184  -2.32277
   X13       -7.04347  -0.00000   0.00000  -0.00643  -0.00582  -7.04930
   Y13       -1.60828   0.00000   0.00000   0.00770   0.00679  -1.60149
   Z13        1.02971   0.00000   0.00000   0.00128   0.00119   1.03090
   X14       -4.31258  -0.00000   0.00000  -0.00742  -0.00698  -4.31957
   Y14       -2.71365  -0.00000   0.00000  -0.00162  -0.00256  -2.71620
   Z14        2.61659  -0.00000   0.00000  -0.00346  -0.00326   2.61332
   X15       -4.89236   0.00000   0.00000  -0.00007   0.00072  -4.89164
   Y15        0.58610  -0.00000   0.00000   0.00024  -0.00068   0.58542
   Z15        2.34609   0.00000   0.00000   0.00345   0.00312   2.34920
         Item               Value     Threshold  Converged?
 Maximum Force            0.005218     0.000450     NO 
 RMS     Force            0.001076     0.000300     NO 
 Maximum Displacement     0.042599     0.001800     NO 
 RMS     Displacement     0.011027     0.001200     NO 
 Predicted change in Energy=-6.344962D-04
 GradGradGradGradGradGradGradGradGradGradGradGradGradGradGradGradGradGrad


 ----------------------------------------------------------------------

 Electric dipole moment (input orientation):
 (Debye = 10**-18 statcoulomb cm , SI units = C m)
                  (au)            (Debye)         (10**-30 SI)
   Tot        0.857881D+00      0.218052D+01      0.727342D+01
   x         -0.709724D+00     -0.180394D+01     -0.601729D+01
   y         -0.474450D+00     -0.120593D+01     -0.402255D+01
   z         -0.845597D-01     -0.214929D+00     -0.716927D+00

 Dipole polarizability, Alpha (input orientation).
 (esu units = cm**3 , SI units = C**2 m**2 J**-1)
 Alpha(0;0):
               (au)            (10**-24 esu)      (10**-40 SI)
   iso        0.754172D+02      0.111757D+02      0.124346D+02
   aniso      0.436866D+02      0.647369D+01      0.720295D+01
   xx         0.959231D+02      0.142143D+02      0.158156D+02
   yx        -0.933552D+01     -0.138338D+01     -0.153922D+01
   yy         0.801098D+02      0.118710D+02      0.132083D+02
   zx         0.250972D+01      0.371901D+00      0.413796D+00
   zy         0.199765D+01      0.296022D+00      0.329369D+00
   zz         0.502189D+02      0.744167D+01      0.827998D+01

 ----------------------------------------------------------------------

 Dipole orientation:
     8          2.66522974         -4.41434755         -2.87288403
     1          2.19195614         -4.05326148         -1.13581410
     6          0.97887737         -1.42476698         -4.64875819
     1          1.62330507         -2.10944484         -6.43158065
     6          0.01117460         -0.21238800         -2.96370127
     6         -0.97665460          0.93304663         -0.66959572
     8         -2.17952362          2.84898696         -0.59876951
     8         -0.34717347         -0.47934199          1.33147028
     6         -1.17507058          0.44508521          3.76432396
     6          0.55727239          2.51601873          4.71938883
     1         -1.11940847         -1.21748776          4.97405957
     1         -3.11976749          1.10288283          3.58713462
     1         -0.02745210          3.08192236          6.61501407
     1          2.50384258          1.84312954          4.81065772
     1          0.46564514          4.16792645          3.49204621

 Electric dipole moment (dipole orientation):
 (Debye = 10**-18 statcoulomb cm , SI units = C m)
                  (au)            (Debye)         (10**-30 SI)
   Tot        0.857881D+00      0.218052D+01      0.727342D+01
   x          0.000000D+00      0.000000D+00      0.000000D+00
   y          0.000000D+00      0.000000D+00      0.000000D+00
   z          0.857881D+00      0.218052D+01      0.727342D+01

 Dipole polarizability, Alpha (dipole orientation).
 (esu units = cm**3 , SI units = C**2 m**2 J**-1)
 Alpha(0;0):
               (au)            (10**-24 esu)      (10**-40 SI)
   iso        0.754172D+02      0.111757D+02      0.124346D+02
   aniso      0.436866D+02      0.647369D+01      0.720295D+01
   xx         0.621717D+02      0.921290D+01      0.102507D+02
   yx        -0.196868D+02     -0.291729D+01     -0.324592D+01
   yy         0.813532D+02      0.120553D+02      0.134133D+02
   zx        -0.598041D+01     -0.886206D+00     -0.986037D+00
   zy         0.898789D+01      0.133187D+01      0.148190D+01
   zz         0.827268D+02      0.122588D+02      0.136398D+02

 ----------------------------------------------------------------------
 1\1\GINC-AJ\Freq\UM062X\6-311++G(d,p)\C5H7O3(2)\AAYUSH\23-Jun-2025\0\\
 # freq 6-311++g(d,p) m062x\\Title Card Required\\0,2\O,2.782904,-1.418
 44,0.024748\H,1.86516,-1.67345,-0.167375\C,2.542551,0.599457,0.254046\
 H,3.589043,0.708751,0.428782\C,1.35594,0.790101,0.097321\C,-0.081888,0
 .784501,-0.119575\O,-0.780739,1.756712,-0.08915\O,-0.498381,-0.46401,-
 0.361722\C,-1.917216,-0.630442,-0.580519\C,-2.670878,-0.651198,0.73414
 3\H,-1.993178,-1.580709,-1.10582\H,-2.264066,0.173726,-1.230129\H,-3.7
 27246,-0.851067,0.5449\H,-2.282121,-1.436,1.384638\H,-2.588925,0.31015
 3,1.241496\\Version=ES64L-G16RevA.03\State=2-A\HF=-420.2047669\S2=0.76
 9902\S2-1=0.\S2A=0.750162\RMSD=9.263e-09\RMSF=1.076e-03\ZeroPoint=0.11
 1958\Thermal=0.1208065\Dipole=-0.7097236,-0.4744497,-0.0845597\DipoleD
 eriv=-0.2222314,-0.1859355,0.0106275,-0.1197441,0.2008173,0.0681388,0.
 0228285,0.0512953,-0.4140002,0.1342331,0.0501524,-0.027773,-0.1140728,
 0.3524773,-0.0085792,-0.0514721,0.0166717,0.3110184,-0.3333119,0.59545
 11,0.0475704,0.33916,-0.8019904,-0.0558154,0.0026906,-0.0074844,-0.049
 5598,0.2886518,0.002223,0.0123998,-0.0555523,0.2722509,0.0026102,0.006
 4958,0.0102357,0.1994868,-0.5120223,-0.4644899,-0.1105507,-0.0572755,-
 0.1061585,-0.0040124,-0.072354,-0.0727314,-0.1192124,2.1479491,-0.3071
 95,0.1692753,0.487367,1.8000404,0.1522227,0.3075956,0.132114,0.435693,
 -0.9731683,0.4873562,-0.0209953,0.0873001,-1.0228305,-0.0296207,-0.066
 6149,-0.0025899,-0.3480475,-1.4197553,-0.3287458,-0.0669121,-0.7070745
 ,-1.0467573,-0.1231332,-0.2055479,-0.1541609,-0.3640076,0.9629484,0.23
 85457,-0.0051973,0.1693631,0.3179928,0.0044652,0.0180652,0.0603365,0.3
 456194,-0.0769359,-0.0463495,0.0246774,-0.0224101,0.016764,-0.0176679,
 0.0589651,-0.0367983,-0.0712841,-0.0110401,0.0042094,0.0278149,-0.0442
 185,-0.0410679,-0.0888897,0.0007293,-0.0630929,0.0153375,-0.0287146,-0
 .043337,0.0048573,0.0405584,0.0051564,0.0940958,-0.0062931,0.0343094,-
 0.0104215,-0.1079309,-0.0453301,-0.0163125,-0.0434974,0.0888267,-0.002
 4058,-0.0241878,0.0036652,0.055749,0.0492014,0.0714653,-0.0392539,0.04
 11932,-0.0081388,0.0779287,0.008195,0.054948,-0.0074876,0.102127,-0.02
 80203,-0.0102278,-0.0010965,-0.0273823,-0.0693371,0.0009045,-0.0267179
 ,0.0211167\Polar=95.9230695,-9.3355191,80.1097542,2.5097152,1.9976546,
 50.2189042\Quadrupole=3.2013375,-3.3864313,0.1850938,6.9102419,1.25544
 18,0.7780356\PG=C01 [X(C5H7O3)]\NImag=2\\0.47637991,0.12366478,0.01800
 607,0.09835163,0.02369302,0.02086759,-0.46403458,-0.12728502,-0.096678
 31,0.46096448,-0.11374128,-0.04820283,-0.02585936,0.12125083,0.0549836
 1,-0.09482713,-0.02828376,-0.02177123,0.09529001,0.02808486,0.02202329
 ,-0.00332413,-0.05544898,-0.00739784,-0.00096273,-0.00719189,-0.001126
 21,1.39124337,-0.01557561,0.07833478,0.00819611,0.00542231,-0.00088339
 ,0.00090254,-0.00452549,-0.05156522,-0.00225393,0.00239373,-0.00329636
 ,0.00065306,-0.00138091,-0.00005599,0.20267446,-0.01645062,0.09519017,
 0.00065533,0.00088115,-0.00000177,0.00015667,-0.00047660,-0.00011256,-
 0.40340378,-0.03218860,-0.06129312,0.39572682,-0.00422556,-0.01944877,
 -0.00345261,0.00017889,-0.00154431,-0.00020724,-0.05383841,-0.01052069
 ,-0.00538106,0.03575634,0.02745922,-0.00068394,-0.00263862,0.00098446,
 -0.00002139,-0.00032037,0.00035220,-0.06414516,-0.00209759,-0.04135328
 ,0.06267200,0.00672438,0.02815736,-0.00851055,0.05944285,0.00600027,0.
 00226065,0.00048705,0.00059155,-0.98292450,0.04759709,-0.13922295,0.00
 709011,0.02212658,0.00284919,1.32691811,0.00991452,-0.03035207,-0.0028
 5415,0.00079389,-0.00329722,-0.00029149,0.10764869,-0.01523082,0.01909
 364,-0.00367230,-0.00059109,-0.00170886,-0.10993769,0.12182639,-0.0004
 6018,0.00476433,0.00354608,0.00056426,-0.00032798,-0.00041927,-0.13116
 787,0.00992356,-0.05340956,-0.00057117,0.00222170,0.00789565,0.1795850
 4,-0.00792443,0.08351155,-0.00201135,-0.00108342,-0.00030851,0.0041882
 7,0.00315849,0.00092611,0.00795190,-0.00526970,0.00024269,-0.00123394,
 0.00083787,-0.00098480,-0.26027292,-0.00103006,-0.02864568,0.77096308,
 -0.00332043,0.00431028,0.00023512,0.00494815,-0.00138095,0.00037832,0.
 01868157,-0.00518415,0.00204074,-0.00065196,0.00547495,-0.00015984,-0.
 03179844,-0.05148485,-0.00244051,-0.22630599,0.83300458,-0.00061169,0.
 00055382,-0.00090536,0.00115997,0.00010899,0.00112899,0.00316652,-0.00
 170437,0.00221593,-0.00117864,0.00008006,0.00574079,-0.03280748,0.0026
 1278,-0.07587785,0.05387745,0.05313868,0.22419653,0.00037685,-0.000530
 64,-0.00001597,-0.00091683,-0.00148427,-0.00034827,-0.00706477,0.00242
 826,-0.00085268,0.00064776,-0.00161330,0.00006002,-0.04581071,0.042408
 49,-0.00431250,-0.34871374,0.32655636,0.00463126,0.37111002,0.00100607
 ,-0.00116603,-0.00001214,-0.00149908,0.00071807,-0.00011636,-0.0031463
 3,0.00251424,-0.00021647,0.00000014,-0.00052158,0.00009803,0.03985693,
 -0.00598861,0.00215260,0.31359978,-0.52553302,-0.01504999,-0.37837664,
 0.63818984,0.00019450,-0.00026509,0.00003159,-0.00033978,-0.00010002,-
 0.00011571,-0.00154884,0.00061678,0.00045649,0.00027565,-0.00014602,-0
 .00115399,-0.00473027,0.00249010,0.02114156,0.00251084,-0.01135069,-0.
 08120910,-0.00159013,0.02740991,0.03798891,0.00011881,0.00010078,-0.00
 009747,-0.00094724,-0.00258164,-0.00029064,-0.00288318,0.00340365,0.00
 001343,0.00060440,0.00062464,0.00027896,-0.04040504,-0.04571740,-0.014
 84105,-0.14034017,-0.06562886,-0.01856214,0.03196591,0.01803526,0.0013
 5240,0.42462680,0.00196480,-0.00142873,0.00000873,-0.00316851,-0.00121
 637,-0.00048751,-0.00217583,0.00263720,-0.00010652,0.00044835,-0.00053
 144,0.00008507,-0.02582920,-0.01068862,-0.00698380,-0.03617732,-0.2524
 4034,-0.02995814,0.01522822,-0.10783228,-0.01867655,0.08429843,0.45489
 527,0.00024695,-0.00030156,0.00057454,-0.00050060,-0.00036758,-0.00117
 514,-0.00067576,0.00079410,0.00041919,0.00022910,0.00005818,-0.0004369
 3,-0.01131844,-0.00967136,0.00861012,-0.01576020,-0.03629684,-0.073559
 35,0.00191302,-0.01710995,0.02772176,0.06008442,0.06376573,0.10069704,
 0.00036640,0.00027984,0.00013969,-0.00090209,0.00128006,-0.00000360,0.
 00217096,-0.00188202,0.00004189,-0.00037716,0.00013881,-0.00006426,0.0
 0351775,0.00164862,0.00095628,-0.02396549,-0.04481506,-0.01178266,-0.0
 0672823,0.01846797,0.00215235,-0.18060408,-0.00447526,-0.02240160,0.42
 773946,0.00026584,-0.00000881,0.00001861,-0.00057043,0.00095989,0.0000
 9375,0.00026843,-0.00022864,0.00004990,-0.00014113,0.00022750,0.000022
 83,-0.00202687,-0.00402126,-0.00152138,-0.04600705,-0.00893674,-0.0098
 3463,-0.00082466,0.00169735,0.00050580,0.01720312,-0.08995378,0.000400
 18,-0.02150274,0.65831292,-0.00000396,0.00010076,-0.00005772,-0.000058
 01,0.00028438,0.00009453,0.00035801,-0.00020238,-0.00022621,-0.0000420
 6,0.00011091,-0.00019830,-0.00112342,-0.00186912,0.00546467,-0.0106650
 6,-0.01209153,-0.00323417,-0.00263232,0.00321558,-0.00541072,-0.019701
 24,-0.00192513,-0.06909535,0.02157953,0.00548568,0.55509177,-0.0000147
 6,-0.00003186,0.00001056,0.00007921,-0.00029750,-0.00001002,-0.0003725
 6,0.00029820,0.00006544,0.00006948,-0.00002306,0.00006798,-0.00041119,
 -0.00034923,-0.00176079,-0.00014593,0.00676462,0.00297045,0.00080735,-
 0.00264337,0.00127045,-0.04208378,-0.00826662,0.03090465,-0.09491194,0
 .00122770,0.04542940,0.56054591,-0.00004271,0.00001177,0.00006566,0.00
 003161,-0.00002771,-0.00010603,0.00001356,-0.00002626,-0.00003320,0.00
 000946,0.00001611,0.00001061,0.00000806,-0.00007468,-0.00009701,-0.001
 93321,0.00244352,0.00187254,0.00114927,0.00002489,-0.00079347,-0.00617
 960,0.00072001,0.00529696,0.00156651,-0.08602524,-0.00154911,-0.001174
 44,0.58989658,0.00004560,-0.00002237,-0.00004169,-0.00000447,-0.000149
 46,0.00005181,-0.00027341,0.00008402,0.00005867,0.00003166,-0.00001552
 ,0.00001626,0.00023070,0.00002907,-0.00066090,-0.00125428,0.00486064,0
 .00179609,0.00216279,-0.00132342,-0.00092087,-0.00363021,-0.00286010,0
 .01003269,0.05742239,0.00094985,-0.19528695,0.04400382,0.00343712,0.51
 951915,0.00008853,-0.00006640,0.00004056,-0.00013847,-0.00015814,-0.00
 011378,-0.00044391,0.00033905,-0.00003767,0.00003704,0.00002096,-0.000
 01512,-0.00095200,-0.00144005,0.00016519,-0.00576099,0.00491403,-0.002
 08269,0.00236438,-0.00107656,0.00039296,-0.02011897,-0.04058855,-0.019
 13497,-0.04489478,-0.00228462,-0.00374479,0.00238725,0.01578142,0.0078
 0107,0.06523424,0.00000089,-0.00003494,0.00003799,-0.00000129,-0.00006
 751,-0.00007201,-0.00015727,0.00012569,0.00003309,0.00002860,-0.000024
 40,0.00000258,-0.00010661,-0.00008238,-0.00025740,0.00115447,0.0003265
 5,-0.00014895,-0.00152506,0.00027696,-0.00043295,-0.00320395,-0.002365
 61,-0.00024483,-0.01468518,-0.26726278,-0.11428810,0.00110277,0.003735
 39,0.00209465,0.01824600,0.28120136,0.00005229,-0.00000245,-0.00003732
 ,-0.00009832,-0.00009114,0.00004924,-0.00007731,0.00007114,0.00000478,
 0.00000734,-0.00000311,-0.00000824,-0.00024297,-0.00021763,0.00008063,
 -0.00065573,0.00300777,0.00007704,0.00129888,-0.00002153,0.00060219,-0
 .00425383,-0.00643377,-0.00174097,-0.00863901,-0.11260672,-0.11381929,
 -0.00035677,-0.02610763,-0.01414083,0.00821387,0.12468776,0.12006503,-
 0.00011002,0.00005613,0.00001912,0.00024632,-0.00026207,-0.00005581,-0
 .00004121,0.00002005,-0.00004188,0.00004492,0.00000820,-0.00001212,-0.
 00043930,-0.00020266,0.00056437,0.00037955,0.00861449,0.00019908,0.001
 89025,-0.00292625,0.00006308,-0.03203708,0.01990478,-0.02476171,-0.071
 74449,0.05456143,-0.04480731,0.00772589,-0.01359662,0.01114952,0.00245
 370,-0.00116563,0.00232199,0.09254825,0.00003084,0.00001491,-0.0000199
 3,-0.00004482,-0.00001356,0.00002448,0.00004962,-0.00005404,-0.0000727
 2,0.00000192,0.00002498,-0.00003431,0.00015642,-0.00014127,0.00085849,
 -0.00216833,0.00108429,-0.00111963,-0.00117404,-0.00172188,-0.00126348
 ,-0.00139868,0.00646844,-0.00587328,0.06459275,-0.20586307,0.12283666,
 -0.00088968,0.00161184,-0.00133012,0.00767920,-0.01775382,0.01639064,-
 0.06596632,0.21470809,-0.00001630,0.00002694,0.00002450,0.00001659,-0.
 00000622,-0.00003459,0.00015197,-0.00007120,0.00003143,-0.00000927,0.0
 0002508,-0.00000125,0.00003623,-0.00020491,-0.00006152,-0.00151601,0.0
 0402268,0.00101095,0.00205484,-0.00105153,0.00003794,-0.00641192,0.000
 31937,-0.00223183,-0.04843669,0.11681076,-0.14573836,-0.00770804,0.022
 03868,-0.01712740,0.00605933,-0.01149222,0.01129359,0.05312962,-0.1299
 1254,0.15512870,-0.00001872,-0.00001358,0.00000584,0.00004324,-0.00008
 453,-0.00002040,-0.00011238,0.00007787,0.00000078,0.00003593,-0.000010
 38,0.00001018,-0.00016889,-0.00002979,-0.00023380,0.00069119,0.0025391
 8,0.00049958,0.00036690,-0.00073457,0.00003711,-0.00226880,-0.00173823
 ,0.00364901,-0.01451804,-0.00264965,-0.00646021,-0.30143356,-0.0485947
 4,-0.04570193,0.00031913,0.00047824,0.00007017,0.00036895,-0.00032309,
 0.00022100,0.32699573,0.00001750,-0.00001520,-0.00001492,-0.00001329,-
 0.00001790,0.00002354,-0.00007603,0.00003465,0.00002168,0.00000956,-0.
 00000764,0.00000582,0.00000482,0.00007181,-0.00018542,0.00079746,-0.00
 073549,-0.00042439,-0.00062746,0.00004537,0.00063017,0.00065133,0.0014
 6322,0.00010111,-0.00018933,-0.00229053,-0.00019778,-0.04908160,-0.054
 85550,-0.00888465,-0.00007447,0.00001198,0.00021776,0.00010331,-0.0000
 3298,0.00004566,0.05337430,0.05503525,-0.00000770,0.00000147,0.0000430
 5,-0.00002161,0.00008966,-0.00004759,0.00013694,-0.00007174,-0.0000214
 7,-0.00001596,0.00000307,-0.00001781,0.00012256,0.00020235,0.00043693,
 0.00043735,-0.00308252,-0.00116356,-0.00082698,0.00101971,0.00020069,0
 .00764897,0.00232458,-0.00503874,0.02546530,0.00529346,0.00901453,-0.0
 4790848,-0.00901128,-0.05675536,-0.00062761,-0.00072904,0.00097178,-0.
 00095080,0.00061214,0.00076441,0.04932493,0.00971882,0.05813735,0.0000
 4932,-0.00000360,-0.00005209,-0.00005326,0.00002139,0.00007119,0.00000
 011,-0.00001150,0.00000532,-0.00001754,-0.00000185,-0.00000287,0.00007
 147,0.00001500,0.00003774,-0.00011423,-0.00131936,-0.00025294,-0.00038
 470,0.00039427,0.00003566,0.00281044,0.00069821,-0.00080303,0.00462974
 ,-0.01423286,0.01239489,-0.08280390,0.07231220,-0.05988125,0.00042476,
 0.00015819,-0.00099928,-0.00149314,-0.00012471,0.00337860,-0.00952321,
 0.02350481,-0.01816997,0.08615950,0.00003011,-0.00000990,-0.00006526,-
 0.00002724,0.00000813,0.00008220,-0.00007192,0.00002834,-0.00000376,-0
 .00000441,-0.00001266,0.00001190,-0.00005711,0.00004537,-0.00010933,0.
 00044245,-0.00117321,0.00022871,-0.00082214,0.00033751,0.00031950,-0.0
 0039678,0.00016765,-0.00041426,-0.00090171,0.00076745,-0.00075478,0.07
 195336,-0.19199797,0.11577752,-0.00062613,0.00063896,0.00010307,0.0004
 8441,0.00113944,-0.00036871,-0.00228034,0.00501314,-0.00538309,-0.0785
 3972,0.20301820,-0.00004586,0.00001463,0.00002877,0.00006410,0.0000664
 0,-0.00004635,0.00009450,-0.00007398,-0.00000537,-0.00000644,0.0000107
 8,0.00000598,-0.00000107,0.00004964,-0.00004332,0.00000057,0.00028673,
 -0.00000012,-0.00004986,-0.00020601,0.00020486,-0.00112794,-0.00128150
 ,0.00274614,-0.01223522,0.02312609,-0.02045468,-0.05709053,0.11428274,
 -0.14136180,-0.00044854,-0.00030782,0.00092736,0.00375390,-0.00099967,
 -0.00411965,-0.00119842,0.00261034,-0.00337520,0.06140752,-0.12700488,
 0.15528445,-0.00001104,0.00003797,-0.00001570,0.00001637,0.00008010,0.
 00002956,0.00016684,-0.00013355,0.00000517,-0.00003605,0.00002026,-0.0
 0000868,0.00003702,-0.00005002,0.00012016,-0.00161521,0.00082169,0.000
 77392,0.00008958,-0.00095763,-0.00007597,0.00156198,-0.00012327,-0.001
 67084,0.00022198,0.01671350,0.00947655,-0.04943748,-0.01935077,-0.0121
 0202,-0.00099990,-0.00032417,0.00335868,0.00020740,-0.00042107,-0.0009
 4994,-0.00077747,-0.02840091,-0.01460695,0.00024464,0.01081718,0.00688
 328,0.05033134,0.00001025,-0.00001054,0.00002313,-0.00001601,-0.000017
 97,-0.00002530,-0.00002973,0.00001832,0.00001248,-0.00000052,-0.000000
 19,-0.00000164,0.00007611,0.00000930,-0.00007343,-0.00001544,0.0002245
 8,-0.00035548,-0.00079238,-0.00104084,0.00105600,0.00078970,0.00010537
 ,-0.00013660,0.00047674,0.00262576,0.00084395,-0.01858928,-0.26545275,
 -0.11264723,-0.00066574,0.00127454,0.00100583,0.00036675,0.00052864,-0
 .00018185,-0.00001066,-0.00372017,-0.00098758,-0.00287048,-0.01797045,
 -0.01057351,0.02127070,0.28342639,0.00001973,-0.00003484,0.00000908,-0
 .00002550,-0.00003129,-0.00003420,-0.00017001,0.00008363,-0.00000843,0
 .00001523,-0.00002860,0.00001710,0.00003107,0.00026436,-0.00021479,0.0
 0179526,-0.00254875,-0.00021682,-0.00149210,0.00121156,0.00042440,-0.0
 0046175,0.00220952,0.00247682,-0.00419439,-0.02879418,-0.01614377,-0.0
 0988810,-0.10930659,-0.10517888,0.00353217,0.00111726,-0.00432500,-0.0
 0057104,-0.00009673,0.00102308,-0.00020387,-0.00366775,-0.00314901,0.0
 0283052,0.01758116,0.01020893,0.00878278,0.12204123,0.11511148\\-0.000
 36991,0.00484020,0.00058353,-0.00000778,0.00010069,0.00001638,-0.00036
 445,-0.00521830,-0.00075088,0.00017130,0.00008098,0.00003581,0.0004400
 1,0.00013395,0.00008406,-0.00004654,-0.00000108,-0.00000726,0.00006928
 ,0.00003161,0.00001171,0.00008917,0.00004355,0.00002320,-0.00000245,-0
 .00000450,0.00000106,0.00001051,-0.00000030,-0.00000002,0.00000802,-0.
 00000467,0.00000458,0.00000117,-0.00000512,-0.00000280,0.00000231,-0.0
 0000081,-0.00000031,0.00000119,0.00000214,0.00000236,-0.00000182,0.000
 00165,-0.00000142\\\@


 IT IS WELL TO REMEMBER THAT MAN IS A PART OF NATURE AND THAT HIS WORKS,
 WHATEVER THEY MAY BE, ARE NO MORE "UNNATURAL" THAN 
 THE FLIGHT OF AN EAGLE OR THE PASSAGE OF A TORNADO.

                                    -- CHARLES MCCARRY IN "THE GREAT SOUTHWEST"
 Job cpu time:       0 days  0 hours 57 minutes 59.4 seconds.
 Elapsed time:       0 days  0 hours  2 minutes 25.0 seconds.
 File lengths (MBytes):  RWF=    153 Int=      0 D2E=      0 Chk=      9 Scr=      1
 Normal termination of Gaussian 16 at Mon Jun 23 06:31:39 2025.
