 Entering Gaussian System, Link 0=g16
 Initial command:
 /opt/g16/l1.exe "/home/aayush/scratches/g16/Gau-80492.inp" -scrdir="/home/aayush/scratches/g16/"
 Entering Link 1 = /opt/g16/l1.exe PID=     80495.
  
 Copyright (c) 1988,1990,1992,1993,1995,1998,2003,2009,2016,
            Gaussian, Inc.  All Rights Reserved.
  
 This is part of the Gaussian(R) 16 program.  It is based on
 the Gaussian(R) 09 system (copyright 2009, Gaussian, Inc.),
 the Gaussian(R) 03 system (copyright 2003, Gaussian, Inc.),
 the Gaussian(R) 98 system (copyright 1998, Gaussian, Inc.),
 the Gaussian(R) 94 system (copyright 1995, Gaussian, Inc.),
 the Gaussian 92(TM) system (copyright 1992, Gaussian, Inc.),
 the Gaussian 90(TM) system (copyright 1990, Gaussian, Inc.),
 the Gaussian 88(TM) system (copyright 1988, Gaussian, Inc.),
 the Gaussian 86(TM) system (copyright 1986, Carnegie Mellon
 University), and the Gaussian 82(TM) system (copyright 1983,
 Carnegie Mellon University). Gaussian is a federally registered
 trademark of Gaussian, Inc.
  
 This software contains proprietary and confidential information,
 including trade secrets, belonging to Gaussian, Inc.
  
 This software is provided under written license and may be
 used, copied, transmitted, or stored only in accord with that
 written license.
  
 The following legend is applicable only to US Government
 contracts under FAR:
  
                    RESTRICTED RIGHTS LEGEND
  
 Use, reproduction and disclosure by the US Government is
 subject to restrictions as set forth in subparagraphs (a)
 and (c) of the Commercial Computer Software - Restricted
 Rights clause in FAR 52.227-19.
  
 Gaussian, Inc.
 340 Quinnipiac St., Bldg. 40, Wallingford CT 06492
  
  
 ---------------------------------------------------------------
 Warning -- This program may not be used in any manner that
 competes with the business of Gaussian, Inc. or will provide
 assistance to any competitor of Gaussian, Inc.  The licensee
 of this program is prohibited from giving any competitor of
 Gaussian, Inc. access to this program.  By using this program,
 the user acknowledges that Gaussian, Inc. is engaged in the
 business of creating and licensing software in the field of
 computational chemistry and represents and warrants to the
 licensee that it is not a competitor of Gaussian, Inc. and that
 it will not use this program in any manner prohibited above.
 ---------------------------------------------------------------
  

 Cite this work as:
 Gaussian 16, Revision A.03,
 M. J. Frisch, G. W. Trucks, H. B. Schlegel, G. E. Scuseria, 
 M. A. Robb, J. R. Cheeseman, G. Scalmani, V. Barone, 
 G. A. Petersson, H. Nakatsuji, X. Li, M. Caricato, A. V. Marenich, 
 J. Bloino, B. G. Janesko, R. Gomperts, B. Mennucci, H. P. Hratchian, 
 J. V. Ortiz, A. F. Izmaylov, J. L. Sonnenberg, D. Williams-Young, 
 F. Ding, F. Lipparini, F. Egidi, J. Goings, B. Peng, A. Petrone, 
 T. Henderson, D. Ranasinghe, V. G. Zakrzewski, J. Gao, N. Rega, 
 G. Zheng, W. Liang, M. Hada, M. Ehara, K. Toyota, R. Fukuda, 
 J. Hasegawa, M. Ishida, T. Nakajima, Y. Honda, O. Kitao, H. Nakai, 
 T. Vreven, K. Throssell, J. A. Montgomery, Jr., J. E. Peralta, 
 F. Ogliaro, M. J. Bearpark, J. J. Heyd, E. N. Brothers, K. N. Kudin, 
 V. N. Staroverov, T. A. Keith, R. Kobayashi, J. Normand, 
 K. Raghavachari, A. P. Rendell, J. C. Burant, S. S. Iyengar, 
 J. Tomasi, M. Cossi, J. M. Millam, M. Klene, C. Adamo, R. Cammi, 
 J. W. Ochterski, R. L. Martin, K. Morokuma, O. Farkas, 
 J. B. Foresman, and D. J. Fox, Gaussian, Inc., Wallingford CT, 2016.
 
 ******************************************
 Gaussian 16:  ES64L-G16RevA.03 25-Dec-2016
                20-Jun-2025 
 ******************************************
 %nprocshared=24
 Will use up to   24 processors via shared memory.
 %mem=12GB
 %chk=ethyl_propiolate_ts1.chk
 -------------------
 # freq 6-31+g m062x
 -------------------
 1/10=4,30=1,38=1/1,3;
 2/12=2,17=6,18=5,40=1/2;
 3/5=1,6=6,7=10,11=2,25=1,30=1,71=2,74=-55,140=1/1,2,3;
 4//1;
 5/5=2,38=5,98=1/2;
 8/6=4,10=90,11=11/1;
 11/6=1,8=1,9=11,15=111,16=1/1,2,10;
 10/6=1/2;
 6/7=2,8=2,9=2,10=2,28=1/1;
 7/8=1,10=1,25=1/1,2,3,16;
 1/10=4,30=1/3;
 99//99;
 -------------------
 Title Card Required
 -------------------
 Symbolic Z-matrix:
 Charge =  0 Multiplicity = 2
 O                     2.71385  -1.39173   0.04054 
 H                     1.80687  -1.67532  -0.1534 
 C                     2.48449   0.45823   0.25119 
 H                     3.50923   0.7088    0.44187 
 C                     1.29242   0.76243   0.1089 
 C                    -0.1455    0.74618  -0.10947 
 O                    -0.84345   1.71978  -0.07777 
 O                    -0.56156  -0.50071  -0.35262 
 C                    -1.98132  -0.66699  -0.57182 
 C                    -2.73469  -0.68876   0.74287 
 H                    -2.05656  -1.61675  -1.09793 
 H                    -2.32747   0.13793  -1.22079 
 H                    -3.79105  -0.88819   0.55316 
 H                    -2.34624  -1.47443   1.39244 
 H                    -2.65281   0.27205   1.25127 
 

 GradGradGradGradGradGradGradGradGradGradGradGradGradGradGradGradGradGrad
 Berny optimization.
 Initialization pass.
 Trust Radius=3.00D-01 FncErr=1.00D-07 GrdErr=1.00D-07 EigMax=2.50D+02 EigMin=1.00D-04
 Number of steps in this run=      2 maximum allowed number of steps=      2.
 GradGradGradGradGradGradGradGradGradGradGradGradGradGradGradGradGradGrad

                          Input orientation:                          
 ---------------------------------------------------------------------
 Center     Atomic      Atomic             Coordinates (Angstroms)
 Number     Number       Type             X           Y           Z
 ---------------------------------------------------------------------
      1          8           0        2.713851   -1.391731    0.040538
      2          1           0        1.806868   -1.675317   -0.153400
      3          6           0        2.484486    0.458229    0.251186
      4          1           0        3.509227    0.708802    0.441869
      5          6           0        1.292419    0.762432    0.108899
      6          6           0       -0.145497    0.746182   -0.109469
      7          8           0       -0.843454    1.719779   -0.077774
      8          8           0       -0.561561   -0.500709   -0.352622
      9          6           0       -1.981316   -0.666986   -0.571815
     10          6           0       -2.734693   -0.688759    0.742868
     11          1           0       -2.056560   -1.616745   -1.097927
     12          1           0       -2.327474    0.137929   -1.220791
     13          1           0       -3.791053   -0.888188    0.553157
     14          1           0       -2.346244   -1.474429    1.392438
     15          1           0       -2.652806    0.272052    1.251270
 ---------------------------------------------------------------------
                    Distance matrix (angstroms):
                    1          2          3          4          5
     1  O    0.000000
     2  H    0.969872   0.000000
     3  C    1.875989   2.274835   0.000000
     4  H    2.281650   2.989380   1.072027   0.000000
     5  C    2.581775   2.505210   1.238470   2.242316   0.000000
     6  C    3.573380   3.110839   2.670168   3.696265   1.454493
     7  O    4.727569   4.307738   3.574200   4.498659   2.348045
     8  O    3.417136   2.651198   3.250007   4.320353   2.290364
     9  C    4.790076   3.942352   4.678336   5.750340   3.636475
    10  C    5.538418   4.733114   5.366299   6.405491   4.327297
    11  H    4.909537   3.977642   5.171723   6.225522   4.281655
    12  H    5.417173   4.638962   5.042248   6.095688   3.906623
    13  H    6.544472   5.696974   6.425451   7.473744   5.363171
    14  H    5.238228   4.436024   5.326685   6.321125   4.459920
    15  H    5.747613   5.064981   5.237041   6.230291   4.136458
                    6          7          8          9         10
     6  C    0.000000
     7  O    1.198349   0.000000
     8  O    1.336776   2.255121   0.000000
     9  C    2.362422   2.689880   1.446167   0.000000
    10  C    3.080498   3.170378   2.440894   1.515402   0.000000
    11  H    3.195721   3.693877   2.008989   1.088346   2.170149
    12  H    2.523100   2.451745   2.068822   1.090359   2.169147
    13  H    4.049730   3.985964   3.376417   2.142345   1.091631
    14  H    3.468447   3.823986   2.679265   2.154861   1.090922
    15  H    2.891887   2.671334   2.746440   2.157853   1.090108
                   11         12         13         14         15
    11  H    0.000000
    12  H    1.779711   0.000000
    13  H    2.503066   2.518307   0.000000
    14  H    2.511193   3.070670   1.770747   0.000000
    15  H    3.072750   2.496981   1.768933   1.778793   0.000000
 Stoichiometry    C5H7O3(2)
 Framework group  C1[X(C5H7O3)]
 Deg. of freedom    39
 Full point group                 C1      NOp   1
 Largest Abelian subgroup         C1      NOp   1
 Largest concise Abelian subgroup C1      NOp   1
                         Standard orientation:                         
 ---------------------------------------------------------------------
 Center     Atomic      Atomic             Coordinates (Angstroms)
 Number     Number       Type             X           Y           Z
 ---------------------------------------------------------------------
      1          8           0        2.776302   -1.357817    0.025610
      2          1           0        1.869020   -1.639699   -0.169408
      3          6           0        2.548857    0.491533    0.243562
      4          1           0        3.573863    0.740294    0.435190
      5          6           0        1.357100    0.797527    0.102524
      6          6           0       -0.080840    0.783624   -0.115848
      7          8           0       -0.777790    1.757809   -0.080285
      8          8           0       -0.498201   -0.461868   -0.363900
      9          6           0       -1.918136   -0.625812   -0.583689
     10          6           0       -2.671487   -0.651991    0.730928
     11          1           0       -1.994380   -1.573410   -1.113540
     12          1           0       -2.263485    0.182014   -1.229471
     13          1           0       -3.728059   -0.849579    0.540475
     14          1           0       -2.283826   -1.440618    1.377379
     15          1           0       -2.588588    0.306722    1.243113
 ---------------------------------------------------------------------
 Rotational constants (GHZ):           3.6406347           1.1520546           0.9418823
 Standard basis: 6-31+G (6D, 7F)
 There are   118 symmetry adapted cartesian basis functions of A   symmetry.
 There are   118 symmetry adapted basis functions of A   symmetry.
   118 basis functions,   236 primitive gaussians,   118 cartesian basis functions
    31 alpha electrons       30 beta electrons
       nuclear repulsion energy       352.8371351896 Hartrees.
 NAtoms=   15 NActive=   15 NUniq=   15 SFac= 1.00D+00 NAtFMM=   60 NAOKFM=F Big=F
 Integral buffers will be    131072 words long.
 Raffenetti 2 integral format.
 Two-electron integral symmetry is turned on.
 One-electron integrals computed using PRISM.
 NBasis=   118 RedAO= T EigKep=  3.39D-06  NBF=   118
 NBsUse=   118 1.00D-06 EigRej= -1.00D+00 NBFU=   118
 ExpMin= 4.38D-02 ExpMax= 5.48D+03 ExpMxC= 8.25D+02 IAcc=3 IRadAn=         5 AccDes= 0.00D+00
 Harris functional with IExCor= 1009 and IRadAn=       5 diagonalized for initial guess.
 HarFok:  IExCor= 1009 AccDes= 0.00D+00 IRadAn=         5 IDoV= 1 UseB2=F ITyADJ=14
 ICtDFT=  3500011 ScaDFX=  1.000000  1.000000  1.000000  1.000000
 FoFCou: FMM=F IPFlag=           0 FMFlag=      100000 FMFlg1=           0
         NFxFlg=           0 DoJE=T BraDBF=F KetDBF=T FulRan=T
         wScrn=  0.000000 ICntrl=       500 IOpCl=  0 I1Cent=   200000004 NGrid=           0
         NMat0=    1 NMatS0=      1 NMatT0=    0 NMatD0=    1 NMtDS0=    0 NMtDT0=    0
 Petite list used in FoFCou.
 Initial guess <Sx>= 0.0000 <Sy>= 0.0000 <Sz>= 0.5000 <S**2>= 0.7500 S= 0.5000
 Requested convergence on RMS density matrix=1.00D-08 within 128 cycles.
 Requested convergence on MAX density matrix=1.00D-06.
 Requested convergence on             energy=1.00D-06.
 No special actions if energy rises.
 SCF Done:  E(UM062X) =  -419.961547310     A.U. after   20 cycles
            NFock= 20  Conv=0.92D-08     -V/T= 2.0053
 <Sx>= 0.0000 <Sy>= 0.0000 <Sz>= 0.5000 <S**2>= 0.7865 S= 0.5181
 <L.S>=  0.00000000000    
 Annihilation of the first spin contaminant:
 S**2 before annihilation     0.7865,   after     0.7505
 DoSCS=F DFT=T ScalE2(SS,OS)=  1.000000  1.000000
 Range of M.O.s used for correlation:     1   118
 NBasis=   118 NAE=    31 NBE=    30 NFC=     0 NFV=     0
 NROrb=    118 NOA=    31 NOB=    30 NVA=    87 NVB=    88

 **** Warning!!: The largest alpha MO coefficient is  0.14831284D+03


 **** Warning!!: The largest beta MO coefficient is  0.17527749D+03

 Symmetrizing basis deriv contribution to polar:
 IMax=3 JMax=2 DiffMx= 0.00D+00
 G2DrvN: will do    16 centers at a time, making    1 passes.
 Calling FoFCou, ICntrl=  3107 FMM=F I1Cent=   0 AccDes= 0.00D+00.
 End of G2Drv F.D. properties file   721 does not exist.
 End of G2Drv F.D. properties file   722 does not exist.
 End of G2Drv F.D. properties file   788 does not exist.
          IDoAtm=111111111111111
          Differentiating once with respect to electric field.
                with respect to dipole field.
          Differentiating once with respect to nuclear coordinates.
 Keep R1 and R2 ints in memory in canonical form, NReq=71861342.
          There are    48 degrees of freedom in the 1st order CPHF.  IDoFFX=6 NUNeed=     3.
     45 vectors produced by pass  0 Test12= 1.11D-14 2.08D-09 XBig12= 1.02D+02 3.65D+00.
 AX will form    45 AO Fock derivatives at one time.
     45 vectors produced by pass  1 Test12= 1.11D-14 2.08D-09 XBig12= 2.10D+01 5.95D-01.
     45 vectors produced by pass  2 Test12= 1.11D-14 2.08D-09 XBig12= 7.29D-01 9.23D-02.
     45 vectors produced by pass  3 Test12= 1.11D-14 2.08D-09 XBig12= 5.90D-03 1.04D-02.
     45 vectors produced by pass  4 Test12= 1.11D-14 2.08D-09 XBig12= 5.05D-05 7.62D-04.
     45 vectors produced by pass  5 Test12= 1.11D-14 2.08D-09 XBig12= 4.18D-07 9.42D-05.
     33 vectors produced by pass  6 Test12= 1.11D-14 2.08D-09 XBig12= 2.37D-09 6.33D-06.
     12 vectors produced by pass  7 Test12= 1.11D-14 2.08D-09 XBig12= 1.39D-11 3.00D-07.
      3 vectors produced by pass  8 Test12= 1.11D-14 2.08D-09 XBig12= 9.03D-14 3.00D-08.
      2 vectors produced by pass  9 Test12= 1.11D-14 2.08D-09 XBig12= 1.03D-15 3.77D-09.
 InvSVY:  IOpt=1 It=  1 EMax= 7.11D-15
 Solved reduced A of dimension   320 with    48 vectors.
 Isotropic polarizability for W=    0.000000       72.35 Bohr**3.
 End of Minotr F.D. properties file   721 does not exist.
 End of Minotr F.D. properties file   722 does not exist.
 End of Minotr F.D. properties file   788 does not exist.

 **********************************************************************

            Population analysis using the SCF density.

 **********************************************************************

 Orbital symmetries:
 Alpha Orbitals:
       Occupied  (A) (A) (A) (A) (A) (A) (A) (A) (A) (A) (A) (A)
                 (A) (A) (A) (A) (A) (A) (A) (A) (A) (A) (A) (A)
                 (A) (A) (A) (A) (A) (A) (A)
       Virtual   (A) (A) (A) (A) (A) (A) (A) (A) (A) (A) (A) (A)
                 (A) (A) (A) (A) (A) (A) (A) (A) (A) (A) (A) (A)
                 (A) (A) (A) (A) (A) (A) (A) (A) (A) (A) (A) (A)
                 (A) (A) (A) (A) (A) (A) (A) (A) (A) (A) (A) (A)
                 (A) (A) (A) (A) (A) (A) (A) (A) (A) (A) (A) (A)
                 (A) (A) (A) (A) (A) (A) (A) (A) (A) (A) (A) (A)
                 (A) (A) (A) (A) (A) (A) (A) (A) (A) (A) (A) (A)
                 (A) (A) (A)
 Beta  Orbitals:
       Occupied  (A) (A) (A) (A) (A) (A) (A) (A) (A) (A) (A) (A)
                 (A) (A) (A) (A) (A) (A) (A) (A) (A) (A) (A) (A)
                 (A) (A) (A) (A) (A) (A)
       Virtual   (A) (A) (A) (A) (A) (A) (A) (A) (A) (A) (A) (A)
                 (A) (A) (A) (A) (A) (A) (A) (A) (A) (A) (A) (A)
                 (A) (A) (A) (A) (A) (A) (A) (A) (A) (A) (A) (A)
                 (A) (A) (A) (A) (A) (A) (A) (A) (A) (A) (A) (A)
                 (A) (A) (A) (A) (A) (A) (A) (A) (A) (A) (A) (A)
                 (A) (A) (A) (A) (A) (A) (A) (A) (A) (A) (A) (A)
                 (A) (A) (A) (A) (A) (A) (A) (A) (A) (A) (A) (A)
                 (A) (A) (A) (A)
 The electronic state is 2-A.
 Alpha  occ. eigenvalues --  -19.72284 -19.67805 -19.66925 -10.74440 -10.63817
 Alpha  occ. eigenvalues --  -10.62789 -10.61362 -10.55577  -1.29450  -1.20203
 Alpha  occ. eigenvalues --   -1.11532  -0.93531  -0.89287  -0.80076  -0.73027
 Alpha  occ. eigenvalues --   -0.66089  -0.63243  -0.59967  -0.58290  -0.55398
 Alpha  occ. eigenvalues --   -0.52478  -0.50833  -0.48953  -0.48211  -0.46381
 Alpha  occ. eigenvalues --   -0.43396  -0.41965  -0.40285  -0.39670  -0.36760
 Alpha  occ. eigenvalues --   -0.32639
 Alpha virt. eigenvalues --   -0.03229   0.01328   0.02837   0.03008   0.03586
 Alpha virt. eigenvalues --    0.04325   0.05550   0.06186   0.07159   0.07654
 Alpha virt. eigenvalues --    0.08052   0.08376   0.08886   0.10849   0.11718
 Alpha virt. eigenvalues --    0.12528   0.13654   0.15105   0.15620   0.16488
 Alpha virt. eigenvalues --    0.17394   0.17969   0.18967   0.19992   0.20931
 Alpha virt. eigenvalues --    0.21305   0.23585   0.24644   0.25162   0.25571
 Alpha virt. eigenvalues --    0.27415   0.27842   0.28394   0.29556   0.30689
 Alpha virt. eigenvalues --    0.31313   0.32052   0.32950   0.33404   0.34883
 Alpha virt. eigenvalues --    0.36668   0.38611   0.39045   0.40800   0.42729
 Alpha virt. eigenvalues --    0.48549   0.54779   0.57706   0.68003   0.69205
 Alpha virt. eigenvalues --    0.69759   0.72372   0.74257   0.75073   0.75888
 Alpha virt. eigenvalues --    0.78214   0.80016   0.84149   0.87319   0.93662
 Alpha virt. eigenvalues --    0.94423   0.98005   1.03400   1.08080   1.09553
 Alpha virt. eigenvalues --    1.10438   1.13549   1.16132   1.18701   1.19722
 Alpha virt. eigenvalues --    1.21085   1.23622   1.24470   1.26190   1.29987
 Alpha virt. eigenvalues --    1.34723   1.37957   1.38833   1.42071   1.45165
 Alpha virt. eigenvalues --    1.45876   1.50857   1.64230   1.70642   1.77780
 Alpha virt. eigenvalues --    1.99894   2.06135
  Beta  occ. eigenvalues --  -19.72251 -19.67735 -19.65842 -10.74485 -10.63977
  Beta  occ. eigenvalues --  -10.62782 -10.60880 -10.55577  -1.29330  -1.20036
  Beta  occ. eigenvalues --   -1.07714  -0.92324  -0.88712  -0.79898  -0.72533
  Beta  occ. eigenvalues --   -0.65961  -0.62786  -0.59755  -0.58022  -0.55203
  Beta  occ. eigenvalues --   -0.50898  -0.50116  -0.48110  -0.46580  -0.43297
  Beta  occ. eigenvalues --   -0.41282  -0.40874  -0.39870  -0.39037  -0.34732
  Beta virt. eigenvalues --   -0.10085  -0.03222   0.01348   0.02760   0.02967
  Beta virt. eigenvalues --    0.03901   0.04421   0.06155   0.06562   0.07051
  Beta virt. eigenvalues --    0.07697   0.08122   0.08551   0.09211   0.11084
  Beta virt. eigenvalues --    0.11524   0.13312   0.13794   0.15297   0.15896
  Beta virt. eigenvalues --    0.16717   0.17503   0.18088   0.18708   0.20153
  Beta virt. eigenvalues --    0.21145   0.21564   0.23624   0.24526   0.25179
  Beta virt. eigenvalues --    0.25669   0.27328   0.27880   0.28493   0.29568
  Beta virt. eigenvalues --    0.30667   0.31363   0.32095   0.32908   0.33440
  Beta virt. eigenvalues --    0.35083   0.36756   0.38657   0.39179   0.40873
  Beta virt. eigenvalues --    0.42795   0.48919   0.55023   0.57901   0.68064
  Beta virt. eigenvalues --    0.69134   0.69733   0.72486   0.74443   0.75063
  Beta virt. eigenvalues --    0.76571   0.78791   0.80131   0.84651   0.88647
  Beta virt. eigenvalues --    0.93109   0.94942   0.97972   1.03351   1.08252
  Beta virt. eigenvalues --    1.09636   1.10551   1.13562   1.16335   1.19067
  Beta virt. eigenvalues --    1.20259   1.21380   1.24267   1.25675   1.27066
  Beta virt. eigenvalues --    1.30493   1.34823   1.38325   1.40534   1.42463
  Beta virt. eigenvalues --    1.45585   1.46039   1.50781   1.64395   1.70831
  Beta virt. eigenvalues --    1.79949   1.99904   2.06134
          Condensed to atoms (all electrons):
               1          2          3          4          5          6
     1  O    8.397486   0.155668   0.093170  -0.032556  -0.118133   0.008227
     2  H    0.155668   0.408023   0.058572   0.002693  -0.007551  -0.047751
     3  C    0.093170   0.058572  11.611275   0.663654  -0.787543  -4.551280
     4  H   -0.032556   0.002693   0.663654   0.405893  -0.219741  -0.100279
     5  C   -0.118133  -0.007551  -0.787543  -0.219741  11.031732  -2.460799
     6  C    0.008227  -0.047751  -4.551280  -0.100279  -2.460799  11.458993
     7  O   -0.001540   0.000568  -0.278676   0.000366  -0.345827   0.776159
     8  O    0.024929   0.007249  -0.391306  -0.000652  -1.126752   0.774203
     9  C   -0.000059   0.005339  -0.130176  -0.000296  -0.302826   0.179976
    10  C    0.000061  -0.002504  -0.052870  -0.000261  -0.185266   0.050849
    11  H    0.000020  -0.000055   0.006061  -0.000000   0.008978   0.001667
    12  H   -0.000007   0.000006  -0.005340   0.000000  -0.010081   0.011375
    13  H    0.000000  -0.000000   0.000835   0.000000   0.007291   0.001831
    14  H   -0.000011   0.000001  -0.001384   0.000000   0.002406   0.004367
    15  H    0.000004  -0.000001   0.000332  -0.000000  -0.011012   0.005514
               7          8          9         10         11         12
     1  O   -0.001540   0.024929  -0.000059   0.000061   0.000020  -0.000007
     2  H    0.000568   0.007249   0.005339  -0.002504  -0.000055   0.000006
     3  C   -0.278676  -0.391306  -0.130176  -0.052870   0.006061  -0.005340
     4  H    0.000366  -0.000652  -0.000296  -0.000261  -0.000000   0.000000
     5  C   -0.345827  -1.126752  -0.302826  -0.185266   0.008978  -0.010081
     6  C    0.776159   0.774203   0.179976   0.050849   0.001667   0.011375
     7  O    8.523726  -0.289444   0.030389  -0.046491  -0.000332   0.000001
     8  O   -0.289444   9.334746   0.017359   0.043190  -0.067713  -0.037068
     9  C    0.030389   0.017359   5.855508  -0.073547   0.421548   0.425577
    10  C   -0.046491   0.043190  -0.073547   5.771252  -0.057833  -0.073086
    11  H   -0.000332  -0.067713   0.421548  -0.057833   0.496160  -0.031594
    12  H    0.000001  -0.037068   0.425577  -0.073086  -0.031594   0.485028
    13  H   -0.000179   0.006950  -0.075498   0.400924  -0.000726  -0.000871
    14  H   -0.000515  -0.002120  -0.051166   0.391249  -0.004451   0.003744
    15  H    0.001727  -0.008443  -0.046355   0.405818   0.003569  -0.004662
              13         14         15
     1  O    0.000000  -0.000011   0.000004
     2  H   -0.000000   0.000001  -0.000001
     3  C    0.000835  -0.001384   0.000332
     4  H    0.000000   0.000000  -0.000000
     5  C    0.007291   0.002406  -0.011012
     6  C    0.001831   0.004367   0.005514
     7  O   -0.000179  -0.000515   0.001727
     8  O    0.006950  -0.002120  -0.008443
     9  C   -0.075498  -0.051166  -0.046355
    10  C    0.400924   0.391249   0.405818
    11  H   -0.000726  -0.004451   0.003569
    12  H   -0.000871   0.003744  -0.004662
    13  H    0.494870  -0.024963  -0.022560
    14  H   -0.024963   0.487960  -0.026855
    15  H   -0.022560  -0.026855   0.466537
          Atomic-Atomic Spin Densities.
               1          2          3          4          5          6
     1  O    0.692984   0.001493  -0.101071  -0.010758  -0.014449  -0.006861
     2  H    0.001493  -0.023770   0.008139   0.000035   0.003905  -0.004157
     3  C   -0.101071   0.008139   0.190538   0.053945   0.039257  -0.417803
     4  H   -0.010758   0.000035   0.053945   0.029942  -0.035369  -0.006406
     5  C   -0.014449   0.003905   0.039257  -0.035369   1.278098  -0.470139
     6  C   -0.006861  -0.004157  -0.417803  -0.006406  -0.470139   0.778732
     7  O   -0.000877   0.000088   0.000909   0.000121  -0.033403   0.017512
     8  O    0.008915  -0.002793  -0.034504  -0.000503  -0.074572   0.084843
     9  C    0.000106  -0.000956  -0.008230  -0.000056  -0.031996   0.027627
    10  C    0.000771  -0.000115  -0.006771  -0.000050  -0.007276   0.015333
    11  H    0.000015  -0.000012   0.000169  -0.000000   0.001721  -0.002059
    12  H    0.000006  -0.000002   0.000113  -0.000000   0.000800  -0.000737
    13  H   -0.000000   0.000000  -0.000013   0.000000  -0.000112   0.000123
    14  H    0.000002  -0.000001   0.000101  -0.000000   0.000476  -0.000532
    15  H    0.000002  -0.000000  -0.000027  -0.000000   0.000087  -0.000171
               7          8          9         10         11         12
     1  O   -0.000877   0.008915   0.000106   0.000771   0.000015   0.000006
     2  H    0.000088  -0.002793  -0.000956  -0.000115  -0.000012  -0.000002
     3  C    0.000909  -0.034504  -0.008230  -0.006771   0.000169   0.000113
     4  H    0.000121  -0.000503  -0.000056  -0.000050  -0.000000  -0.000000
     5  C   -0.033403  -0.074572  -0.031996  -0.007276   0.001721   0.000800
     6  C    0.017512   0.084843   0.027627   0.015333  -0.002059  -0.000737
     7  O    0.042157  -0.007754  -0.001459   0.000584   0.000023   0.000019
     8  O   -0.007754   0.018007   0.008053  -0.001438   0.000726   0.000306
     9  C   -0.001459   0.008053   0.009620   0.000236  -0.002211  -0.001071
    10  C    0.000584  -0.001438   0.000236  -0.000409   0.001038   0.000436
    11  H    0.000023   0.000726  -0.002211   0.001038   0.000854   0.000154
    12  H    0.000019   0.000306  -0.001071   0.000436   0.000154  -0.000139
    13  H   -0.000016   0.000000   0.000269  -0.000212  -0.000043  -0.000016
    14  H   -0.000003   0.000092  -0.000397   0.000242   0.000020   0.000002
    15  H    0.000021   0.000115  -0.000283   0.000234   0.000014   0.000023
              13         14         15
     1  O   -0.000000   0.000002   0.000002
     2  H    0.000000  -0.000001  -0.000000
     3  C   -0.000013   0.000101  -0.000027
     4  H    0.000000  -0.000000  -0.000000
     5  C   -0.000112   0.000476   0.000087
     6  C    0.000123  -0.000532  -0.000171
     7  O   -0.000016  -0.000003   0.000021
     8  O    0.000000   0.000092   0.000115
     9  C    0.000269  -0.000397  -0.000283
    10  C   -0.000212   0.000242   0.000234
    11  H   -0.000043   0.000020   0.000014
    12  H   -0.000016   0.000002   0.000023
    13  H    0.000283  -0.000014  -0.000045
    14  H   -0.000014   0.000032   0.000020
    15  H   -0.000045   0.000020   0.000081
 Mulliken charges and spin densities:
               1          2
     1  O   -0.527260   0.570276
     2  H    0.419743  -0.018146
     3  C   -0.235324  -0.275249
     4  H    0.281180   0.030902
     5  C    0.525124   0.657028
     6  C   -0.113051   0.015306
     7  O   -0.369929   0.017921
     8  O   -0.285126  -0.000506
     9  C   -0.255773  -0.000747
    10  C   -0.571482   0.002603
    11  H    0.224699   0.000409
    12  H    0.236977  -0.000105
    13  H    0.212096   0.000204
    14  H    0.221738   0.000038
    15  H    0.236389   0.000068
 Sum of Mulliken charges =  -0.00000   1.00000
 Mulliken charges and spin densities with hydrogens summed into heavy atoms:
               1          2
     1  O   -0.107517   0.552130
     3  C    0.045856  -0.244347
     5  C    0.525124   0.657028
     6  C   -0.113051   0.015306
     7  O   -0.369929   0.017921
     8  O   -0.285126  -0.000506
     9  C    0.205903  -0.000444
    10  C    0.098740   0.002913
 APT charges:
               1
     1  O   -0.291338
     2  H    0.247632
     3  C   -0.214329
     4  H    0.231690
     5  C   -0.243077
     6  C    1.412634
     7  O   -0.746299
     8  O   -0.922057
     9  C    0.505570
    10  C   -0.061956
    11  H    0.000119
    12  H   -0.002560
    13  H    0.020336
    14  H    0.021857
    15  H    0.041779
 Sum of APT charges =   0.00000
 APT charges with hydrogens summed into heavy atoms:
               1
     1  O   -0.043706
     3  C    0.017361
     5  C   -0.243077
     6  C    1.412634
     7  O   -0.746299
     8  O   -0.922057
     9  C    0.503128
    10  C    0.022016
 Electronic spatial extent (au):  <R**2>=           1222.9213
 Charge=             -0.0000 electrons
 Dipole moment (field-independent basis, Debye):
    X=             -2.2721    Y=             -0.6833    Z=             -0.2230  Tot=              2.3831
 Quadrupole moment (field-independent basis, Debye-Ang):
   XX=            -45.7563   YY=            -53.5276   ZZ=            -47.6212
   XY=             11.5505   XZ=              1.7799   YZ=              1.1124
 Traceless Quadrupole moment (field-independent basis, Debye-Ang):
   XX=              3.2121   YY=             -4.5593   ZZ=              1.3472
   XY=             11.5505   XZ=              1.7799   YZ=              1.1124
 Octapole moment (field-independent basis, Debye-Ang**2):
  XXX=            -18.0914  YYY=            -18.9494  ZZZ=             -3.2817  XYY=             -2.2423
  XXY=             21.8812  XXZ=              2.3872  XZZ=             -4.8633  YZZ=             -0.1510
  YYZ=             -2.2297  XYZ=              1.5712
 Hexadecapole moment (field-independent basis, Debye-Ang**3):
 XXXX=          -1098.0416 YYYY=           -349.9919 ZZZZ=           -113.1040 XXXY=            104.1127
 XXXZ=             29.0440 YYYX=              2.6930 YYYZ=              5.3444 ZZZX=              3.1001
 ZZZY=              0.3265 XXYY=           -272.5669 XXZZ=           -214.9474 YYZZ=            -72.8258
 XXYZ=             10.0508 YYXZ=             -0.8930 ZZXY=             -2.0028
 N-N= 3.528371351896D+02 E-N=-1.687762294284D+03  KE= 4.177402894984D+02
  Exact polarizability:  91.693 -11.141  79.196   2.925   2.240  46.146
 Approx polarizability:  98.506 -20.794  93.444   4.882   2.895  48.424
                          Isotropic Fermi Contact Couplings
        Atom                 a.u.       MegaHertz       Gauss      10(-4) cm-1
     1  O(17)              0.06851     -41.52782     -14.81816     -13.85219
     2  H(1)              -0.01019     -45.52695     -16.24515     -15.18616
     3  C(13)             -0.01387     -15.58698      -5.56182      -5.19926
     4  H(1)               0.01394      62.30954      22.23359      20.78423
     5  C(13)              0.08739      98.24369      35.05579      32.77057
     6  C(13)             -0.02147     -24.13514      -8.61202      -8.05061
     7  O(17)              0.01276      -7.73301      -2.75933      -2.57945
     8  O(17)              0.03236     -19.61868      -7.00043      -6.54409
     9  C(13)              0.00384       4.31958       1.54133       1.44086
    10  C(13)             -0.00009      -0.10542      -0.03762      -0.03516
    11  H(1)               0.00011       0.50808       0.18130       0.16948
    12  H(1)              -0.00008      -0.36727      -0.13105      -0.12251
    13  H(1)               0.00012       0.52215       0.18632       0.17417
    14  H(1)               0.00002       0.09963       0.03555       0.03323
    15  H(1)              -0.00000      -0.00587      -0.00210      -0.00196
 --------------------------------------------------------
       Center         ----  Spin Dipole Couplings  ----
                      3XX-RR        3YY-RR        3ZZ-RR
 --------------------------------------------------------
     1   Atom       -0.691551      1.734931     -1.043380
     2   Atom        0.086387     -0.014807     -0.071580
     3   Atom        0.139120     -0.094060     -0.045059
     4   Atom       -0.010784      0.012083     -0.001299
     5   Atom       -0.387722      0.625803     -0.238080
     6   Atom        0.013919      0.003105     -0.017023
     7   Atom        0.061247     -0.055647     -0.005599
     8   Atom        0.028006     -0.016928     -0.011078
     9   Atom        0.009289     -0.003777     -0.005513
    10   Atom        0.002383     -0.001049     -0.001334
    11   Atom        0.001685     -0.000222     -0.001463
    12   Atom        0.002523     -0.001195     -0.001328
    13   Atom        0.001378     -0.000615     -0.000763
    14   Atom        0.001573     -0.000645     -0.000929
    15   Atom        0.002322     -0.001211     -0.001111
 --------------------------------------------------------
                        XY            XZ            YZ
 --------------------------------------------------------
     1   Atom       -1.024612     -0.082193      0.220812
     2   Atom        0.038783      0.033866      0.015920
     3   Atom        0.009992      0.030386     -0.003888
     4   Atom        0.001209     -0.001237      0.002057
     5   Atom        0.038446     -0.015174      0.126910
     6   Atom       -0.003830      0.004412      0.002379
     7   Atom        0.010648      0.010603     -0.005692
     8   Atom        0.020435      0.009622      0.002331
     9   Atom        0.004911      0.002472      0.000797
    10   Atom        0.000749     -0.000867     -0.000199
    11   Atom        0.001359      0.001060      0.000943
    12   Atom        0.000052      0.001942     -0.000129
    13   Atom        0.000462     -0.000250     -0.000034
    14   Atom        0.001077     -0.001030     -0.000479
    15   Atom        0.000288     -0.001244     -0.000106
 --------------------------------------------------------


 ---------------------------------------------------------------------------------
              Anisotropic Spin Dipole Couplings in Principal Axis System
 ---------------------------------------------------------------------------------

       Atom             a.u.   MegaHertz   Gauss  10(-4) cm-1        Axes

              Baa    -1.0666    77.181    27.540    25.745  0.9205  0.3188  0.2259
     1 O(17)  Bbb    -1.0606    76.743    27.384    25.599 -0.1880 -0.1456  0.9713
              Bcc     2.1272  -153.923   -54.924   -51.343 -0.3426  0.9366  0.0741
 
              Baa    -0.0796   -42.491   -15.162   -14.174 -0.1664 -0.1402  0.9761
     2 H(1)   Bbb    -0.0276   -14.747    -5.262    -4.919 -0.3413  0.9368  0.0764
              Bcc     0.1073    57.238    20.424    19.093  0.9251  0.3204  0.2037
 
              Baa    -0.0951   -12.757    -4.552    -4.255 -0.0568  0.9921  0.1117
     3 C(13)  Bbb    -0.0493    -6.615    -2.360    -2.206 -0.1519 -0.1191  0.9812
              Bcc     0.1444    19.372     6.912     6.462  0.9868  0.0388  0.1575
 
              Baa    -0.0110    -5.889    -2.101    -1.964  0.9882 -0.0641  0.1390
     4 H(1)   Bbb    -0.0014    -0.747    -0.266    -0.249 -0.1467 -0.1363  0.9797
              Bcc     0.0124     6.635     2.368     2.213  0.0438  0.9886  0.1441
 
              Baa    -0.3921   -52.611   -18.773   -17.549  0.9882 -0.0551  0.1428
     5 C(13)  Bbb    -0.2532   -33.983   -12.126   -11.336 -0.1491 -0.1349  0.9796
              Bcc     0.6453    86.594    30.899    28.885  0.0347  0.9893  0.1415
 
              Baa    -0.0180    -2.421    -0.864    -0.808 -0.1516 -0.1376  0.9788
     6 C(13)  Bbb     0.0025     0.338     0.121     0.113  0.2529  0.9519  0.1730
              Bcc     0.0155     2.083     0.743     0.695  0.9555 -0.2738  0.1095
 
              Baa    -0.0575     4.158     1.484     1.387 -0.1000  0.9866  0.1287
     7 O(17)  Bbb    -0.0062     0.449     0.160     0.150 -0.1319 -0.1414  0.9811
              Bcc     0.0637    -4.607    -1.644    -1.537  0.9862  0.0811  0.1443
 
              Baa    -0.0250     1.807     0.645     0.603 -0.3744  0.9213  0.1048
     8 O(17)  Bbb    -0.0129     0.934     0.333     0.312 -0.1445 -0.1696  0.9749
              Bcc     0.0379    -2.741    -0.978    -0.914  0.9159  0.3499  0.1967
 
              Baa    -0.0059    -0.794    -0.283    -0.265 -0.1612  0.0024  0.9869
     9 C(13)  Bbb    -0.0054    -0.727    -0.259    -0.242 -0.3084  0.9498 -0.0527
              Bcc     0.0113     1.520     0.543     0.507  0.9375  0.3128  0.1524
 
              Baa    -0.0015    -0.205    -0.073    -0.068  0.1980  0.0952  0.9756
    10 C(13)  Bbb    -0.0012    -0.162    -0.058    -0.054 -0.2160  0.9750 -0.0514
              Bcc     0.0027     0.367     0.131     0.122  0.9561  0.2005 -0.2136
 
              Baa    -0.0020    -1.070    -0.382    -0.357 -0.1172 -0.3930  0.9120
    11 H(1)   Bbb    -0.0008    -0.443    -0.158    -0.148 -0.5437  0.7939  0.2722
              Bcc     0.0028     1.512     0.540     0.504  0.8310  0.4640  0.3067
 
              Baa    -0.0022    -1.151    -0.411    -0.384 -0.3807  0.1426  0.9136
    12 H(1)   Bbb    -0.0012    -0.627    -0.224    -0.209  0.0552  0.9898 -0.1315
              Bcc     0.0033     1.778     0.634     0.593  0.9231 -0.0004  0.3847
 
              Baa    -0.0008    -0.425    -0.152    -0.142  0.1568 -0.2180  0.9633
    13 H(1)   Bbb    -0.0007    -0.380    -0.135    -0.127 -0.1812  0.9524  0.2450
              Bcc     0.0015     0.804     0.287     0.268  0.9709  0.2129 -0.1099
 
              Baa    -0.0013    -0.708    -0.253    -0.236  0.2116  0.3150  0.9252
    14 H(1)   Bbb    -0.0011    -0.571    -0.204    -0.190 -0.4354  0.8779 -0.1993
              Bcc     0.0024     1.279     0.456     0.427  0.8750  0.3607 -0.3229
 
              Baa    -0.0015    -0.808    -0.288    -0.270  0.3052  0.0426  0.9513
    15 H(1)   Bbb    -0.0012    -0.659    -0.235    -0.220 -0.0865  0.9961 -0.0169
              Bcc     0.0027     1.467     0.523     0.489  0.9484  0.0771 -0.3077
 

 ---------------------------------------------------------------------------------

 Calling FoFJK, ICntrl=    100127 FMM=F ISym2X=0 I1Cent= 0 IOpClX= 1 NMat=1 NMatS=1 NMatT=0.
 Full mass-weighted force constant matrix:
 Low frequencies --- -812.4477 -396.1699 -139.4889  -87.3800  -51.9619   -0.0006
 Low frequencies ---   -0.0004    0.0003   24.5340
 ******    4 imaginary frequencies (negative Signs) ****** 
 Diagonal vibrational polarizability:
       29.8572582      18.9098358      85.9177492
 Harmonic frequencies (cm**-1), IR intensities (KM/Mole), Raman scattering
 activities (A**4/AMU), depolarization ratios for plane and unpolarized
 incident light, reduced masses (AMU), force constants (mDyne/A),
 and normal coordinates:
                      1                      2                      3
                      A                      A                      A
 Frequencies --   -812.4435              -394.5060               -92.2268
 Red. masses --     10.8989                 1.0640                 7.3615
 Frc consts  --      4.2386                 0.0976                 0.0369
 IR Inten    --     26.8583               135.9690                 0.1951
  Atom  AN      X      Y      Z        X      Y      Z        X      Y      Z
     1   8     0.03  -0.44  -0.06     0.01   0.01  -0.05    -0.09  -0.01  -0.28
     2   1    -0.09  -0.12  -0.04    -0.17  -0.14   0.97    -0.11   0.12  -0.37
     3   6    -0.04   0.77   0.10     0.00   0.00  -0.01     0.01  -0.02   0.03
     4   1     0.20  -0.33  -0.01     0.01   0.01  -0.05     0.04  -0.09  -0.02
     5   6    -0.00  -0.17  -0.02    -0.00  -0.00   0.02     0.01   0.07   0.25
     6   6    -0.00   0.01   0.00     0.00   0.00   0.01     0.02   0.04   0.13
     7   8     0.00   0.00   0.00     0.00   0.00   0.00     0.04   0.07  -0.31
     8   8    -0.01   0.00  -0.00     0.00   0.00   0.01     0.05  -0.02   0.37
     9   6    -0.00   0.00   0.00     0.00   0.00  -0.01     0.11  -0.06   0.05
    10   6    -0.00   0.00   0.00    -0.01  -0.00  -0.01    -0.14  -0.07  -0.10
    11   1    -0.00   0.00  -0.00     0.01   0.01  -0.02     0.24  -0.06   0.04
    12   1    -0.00   0.00   0.00     0.01   0.01  -0.01     0.23  -0.07  -0.03
    13   1    -0.00   0.00   0.00    -0.01  -0.00  -0.02    -0.11  -0.05  -0.30
    14   1     0.00   0.00  -0.00    -0.01  -0.01  -0.02    -0.27  -0.07  -0.04
    15   1    -0.00   0.00   0.00    -0.01  -0.01  -0.01    -0.23  -0.07  -0.08
                      4                      5                      6
                      A                      A                      A
 Frequencies --    -55.7465                38.0847               126.2533
 Red. masses --      4.4742                 2.9613                 4.4064
 Frc consts  --      0.0082                 0.0025                 0.0414
 IR Inten    --      1.6315                 1.7122                15.1591
  Atom  AN      X      Y      Z        X      Y      Z        X      Y      Z
     1   8     0.30   0.09   0.00     0.11   0.05  -0.05     0.05   0.04  -0.17
     2   1     0.38  -0.12  -0.03     0.14  -0.01  -0.09     0.03  -0.01  -0.04
     3   6     0.03   0.02   0.02     0.02   0.04  -0.06    -0.07  -0.03   0.26
     4   1    -0.01   0.17   0.03     0.02   0.10  -0.12    -0.11  -0.03   0.46
     5   6    -0.02  -0.18   0.02    -0.00  -0.04   0.01    -0.07  -0.06   0.20
     6   6    -0.02  -0.07  -0.00    -0.01  -0.07   0.07    -0.03  -0.04  -0.04
     7   8     0.12   0.04  -0.10    -0.04  -0.09   0.13    -0.03  -0.03  -0.14
     8   8    -0.16  -0.02   0.04     0.01  -0.07   0.04    -0.00  -0.02  -0.17
     9   6    -0.17   0.13   0.01     0.02  -0.07  -0.02    -0.03  -0.04   0.01
    10   6    -0.14  -0.06   0.02    -0.12   0.24  -0.09     0.16   0.15   0.13
    11   1    -0.25   0.23  -0.17     0.04  -0.19   0.18    -0.10  -0.11   0.15
    12   1    -0.11   0.28   0.17     0.10  -0.21  -0.24    -0.10  -0.12  -0.06
    13   1    -0.17   0.14   0.01    -0.09   0.14  -0.16     0.14   0.09   0.32
    14   1    -0.23  -0.26  -0.17    -0.16   0.43   0.16     0.28   0.27   0.19
    15   1     0.02  -0.18   0.23    -0.22   0.38  -0.34     0.21   0.24  -0.04
                      7                      8                      9
                      A                      A                      A
 Frequencies --    175.2002               250.3077               264.1433
 Red. masses --      1.2210                 3.6319                 4.0133
 Frc consts  --      0.0221                 0.1341                 0.1650
 IR Inten    --      3.0985                 8.5054                 6.8160
  Atom  AN      X      Y      Z        X      Y      Z        X      Y      Z
     1   8    -0.04   0.03  -0.00    -0.02  -0.01   0.10     0.22  -0.17   0.02
     2   1    -0.05   0.05  -0.01     0.01  -0.01  -0.04     0.29  -0.37  -0.01
     3   6     0.00   0.03  -0.00     0.02   0.03  -0.25    -0.10  -0.14  -0.05
     4   1     0.01   0.03  -0.02     0.09   0.11  -0.76    -0.09  -0.16  -0.07
     5   6     0.00   0.02   0.01    -0.07  -0.06   0.30    -0.07   0.06   0.01
     6   6     0.01  -0.03   0.00    -0.04  -0.03   0.15    -0.09   0.16   0.02
     7   8    -0.03  -0.06  -0.00    -0.02  -0.01  -0.06    -0.14   0.13   0.00
     8   8     0.03  -0.05   0.00    -0.01  -0.00  -0.07     0.02   0.13   0.01
     9   6     0.02   0.01  -0.00    -0.01   0.05  -0.08     0.06  -0.11   0.00
    10   6     0.02   0.05  -0.00     0.12   0.02  -0.01     0.03  -0.00  -0.01
    11   1    -0.04   0.03  -0.02    -0.06   0.08  -0.12     0.21  -0.21   0.15
    12   1     0.06   0.05   0.02    -0.01   0.10  -0.02    -0.04  -0.27  -0.14
    13   1    -0.08   0.63  -0.04     0.11  -0.09   0.14    -0.03   0.35  -0.05
    14   1    -0.36  -0.30  -0.19     0.28   0.06  -0.04    -0.23  -0.16  -0.06
    15   1     0.50  -0.12   0.22     0.10   0.03  -0.03     0.31  -0.06   0.05
                     10                     11                     12
                      A                      A                      A
 Frequencies --    316.3919               414.8009               560.7322
 Red. masses --      3.4183                 3.8434                 6.3033
 Frc consts  --      0.2016                 0.3896                 1.1677
 IR Inten    --      7.8125                 3.2144                 6.8568
  Atom  AN      X      Y      Z        X      Y      Z        X      Y      Z
     1   8     0.09  -0.08  -0.00    -0.03   0.05  -0.00     0.06  -0.11  -0.01
     2   1     0.12  -0.16  -0.01    -0.01  -0.01  -0.01     0.05  -0.09  -0.01
     3   6    -0.04  -0.05   0.02    -0.08  -0.00   0.02     0.03   0.02   0.01
     4   1    -0.04  -0.10   0.10    -0.12   0.05   0.14     0.06  -0.10   0.02
     5   6     0.01   0.12  -0.06    -0.08  -0.14  -0.15     0.10   0.52   0.06
     6   6    -0.00  -0.01  -0.01    -0.07  -0.01   0.04     0.03  -0.11   0.02
     7   8    -0.21  -0.16  -0.05     0.05   0.07   0.04     0.15  -0.02   0.02
     8   8     0.06  -0.06   0.09    -0.09  -0.03   0.23    -0.16  -0.08   0.04
     9   6     0.03   0.24  -0.01     0.01  -0.02  -0.17    -0.24  -0.10  -0.14
    10   6     0.05   0.04  -0.01     0.23   0.04  -0.09     0.00  -0.01  -0.01
    11   1    -0.14   0.39  -0.26     0.06  -0.02  -0.18    -0.17  -0.15  -0.07
    12   1     0.19   0.48   0.21     0.12   0.01  -0.18    -0.21  -0.13  -0.20
    13   1     0.10  -0.24   0.02     0.16   0.05   0.32    -0.08   0.03   0.44
    14   1     0.28   0.12  -0.05     0.48   0.09  -0.17     0.24   0.05  -0.09
    15   1    -0.18   0.05   0.02     0.46   0.07  -0.18     0.28   0.03  -0.12
                     13                     14                     15
                      A                      A                      A
 Frequencies --    592.5943               759.5141               805.4802
 Red. masses --      5.2697                 9.6474                 1.3609
 Frc consts  --      1.0903                 3.2789                 0.5202
 IR Inten    --      9.2970                37.0665                57.1921
  Atom  AN      X      Y      Z        X      Y      Z        X      Y      Z
     1   8    -0.01   0.01   0.00    -0.00   0.00   0.00    -0.02   0.03   0.01
     2   1    -0.14   0.39   0.03     0.00  -0.05   0.07     0.10  -0.33   0.00
     3   6     0.33  -0.02   0.05    -0.02  -0.00   0.03     0.01   0.03  -0.15
     4   1     0.35  -0.06   0.06    -0.07  -0.06   0.38    -0.10  -0.29   0.81
     5   6     0.25  -0.13   0.00     0.05   0.05  -0.34    -0.01  -0.01   0.06
     6   6     0.03   0.10   0.04    -0.10  -0.12   0.74     0.03  -0.01  -0.01
     7   8    -0.24  -0.09  -0.05     0.04   0.01  -0.18     0.01  -0.03   0.00
     8   8    -0.13   0.16   0.05     0.03   0.03  -0.19    -0.01   0.03   0.01
     9   6    -0.13  -0.04  -0.09     0.02   0.02   0.01     0.00   0.03   0.00
    10   6     0.00  -0.01  -0.01    -0.00   0.01   0.01     0.00   0.01  -0.00
    11   1     0.11  -0.16   0.09     0.02  -0.04   0.13     0.05  -0.07   0.16
    12   1    -0.24  -0.21  -0.24    -0.07  -0.08  -0.07    -0.02  -0.10  -0.14
    13   1    -0.05   0.02   0.27     0.02  -0.02  -0.11     0.01  -0.05  -0.01
    14   1     0.16  -0.02  -0.10    -0.07  -0.04  -0.01     0.05  -0.06  -0.11
    15   1     0.19  -0.02  -0.03    -0.11  -0.03   0.10    -0.04  -0.05   0.11
                     16                     17                     18
                      A                      A                      A
 Frequencies --    806.8473               824.9531               892.4230
 Red. masses --      1.3140                 1.1748                 2.8014
 Frc consts  --      0.5040                 0.4711                 1.3145
 IR Inten    --    102.3255                61.8490                10.0761
  Atom  AN      X      Y      Z        X      Y      Z        X      Y      Z
     1   8     0.03  -0.05   0.01     0.03  -0.06  -0.00     0.00  -0.02  -0.00
     2   1    -0.16   0.51   0.06    -0.17   0.55   0.05    -0.02   0.03   0.00
     3   6     0.04  -0.01  -0.08    -0.02  -0.02  -0.02    -0.05   0.00  -0.01
     4   1    -0.11   0.20   0.50    -0.14   0.41   0.08    -0.14   0.32   0.02
     5   6     0.00  -0.00   0.02    -0.03   0.01   0.00    -0.03   0.03   0.00
     6   6    -0.05   0.02   0.01     0.00  -0.02  -0.01     0.08  -0.08  -0.00
     7   8    -0.02   0.06   0.00     0.02  -0.02   0.00     0.05  -0.15  -0.01
     8   8     0.03  -0.05  -0.01    -0.01   0.01   0.01    -0.16   0.19   0.02
     9   6    -0.01  -0.05  -0.01     0.01   0.06   0.01     0.08  -0.01   0.08
    10   6    -0.01  -0.02   0.01     0.01   0.03  -0.01     0.10  -0.04  -0.05
    11   1    -0.10   0.13  -0.32     0.04  -0.12   0.33     0.24   0.10  -0.14
    12   1     0.02   0.19   0.28     0.03  -0.17  -0.28    -0.24   0.05   0.32
    13   1    -0.03   0.10   0.03     0.05  -0.12  -0.07     0.12   0.16  -0.37
    14   1    -0.11   0.11   0.22     0.11  -0.13  -0.25    -0.25   0.10   0.32
    15   1     0.08   0.11  -0.23    -0.12  -0.12   0.28     0.04   0.13  -0.35
                     19                     20                     21
                      A                      A                      A
 Frequencies --    941.3163               977.9049              1104.6264
 Red. masses --      2.2650                 1.1865                 4.1957
 Frc consts  --      1.1825                 0.6685                 3.0164
 IR Inten    --      2.3691                 1.6474                 6.8412
  Atom  AN      X      Y      Z        X      Y      Z        X      Y      Z
     1   8    -0.01  -0.01  -0.00    -0.04  -0.03  -0.01    -0.00  -0.01  -0.00
     2   1     0.01  -0.08  -0.01     0.13  -0.55  -0.05     0.01  -0.04  -0.01
     3   6    -0.08  -0.00  -0.01     0.07   0.01   0.01     0.08   0.00   0.01
     4   1    -0.19   0.41   0.03    -0.12   0.79   0.09     0.10  -0.04   0.01
     5   6    -0.05  -0.04  -0.01     0.04   0.00   0.01     0.03   0.04   0.01
     6   6     0.13   0.03   0.03    -0.03   0.01  -0.00    -0.15  -0.10  -0.04
     7   8     0.02  -0.08  -0.01    -0.02   0.03   0.00     0.01   0.02   0.01
     8   8     0.12   0.10   0.01    -0.00  -0.03  -0.00    -0.18  -0.00  -0.03
     9   6    -0.03  -0.01  -0.11    -0.00  -0.00   0.01     0.34   0.03  -0.18
    10   6    -0.15  -0.04   0.08     0.02   0.01  -0.01    -0.11   0.01   0.21
    11   1     0.26   0.01  -0.19    -0.08  -0.01   0.03     0.34   0.08  -0.28
    12   1     0.03   0.01  -0.12     0.01   0.00   0.01     0.46   0.05  -0.23
    13   1    -0.26   0.06   0.64     0.03  -0.02  -0.08    -0.10  -0.02   0.22
    14   1     0.12   0.09   0.08    -0.00  -0.02  -0.03    -0.11   0.00   0.23
    15   1     0.22   0.03  -0.08    -0.03  -0.01   0.03    -0.14  -0.03   0.32
                     22                     23                     24
                      A                      A                      A
 Frequencies --   1155.1520              1226.5152              1305.0208
 Red. masses --      2.0302                 1.7549                 3.6678
 Frc consts  --      1.5961                 1.5554                 3.6804
 IR Inten    --     18.1171                 9.7279               455.9971
  Atom  AN      X      Y      Z        X      Y      Z        X      Y      Z
     1   8    -0.00  -0.00  -0.00    -0.00  -0.00  -0.00     0.01   0.00   0.00
     2   1    -0.00  -0.00   0.00     0.00  -0.01   0.00    -0.01   0.04   0.00
     3   6     0.02  -0.00   0.00     0.03  -0.00   0.00    -0.08   0.00  -0.01
     4   1     0.03  -0.01   0.00     0.03  -0.01   0.00    -0.10   0.04  -0.01
     5   6     0.01   0.01   0.00     0.00   0.00   0.00     0.00  -0.01  -0.00
     6   6    -0.04  -0.03  -0.01    -0.07  -0.04  -0.02     0.28   0.23   0.08
     7   8     0.00   0.01  -0.00    -0.00   0.03   0.01    -0.04   0.01  -0.00
     8   8    -0.05   0.00  -0.05     0.03  -0.06  -0.00    -0.17  -0.15  -0.04
     9   6     0.10   0.00   0.20    -0.02   0.19   0.01     0.12   0.04  -0.02
    10   6    -0.09  -0.01  -0.16     0.01  -0.13  -0.00    -0.01  -0.08   0.01
    11   1     0.09   0.07   0.09     0.38  -0.03   0.35    -0.68  -0.07   0.26
    12   1     0.24   0.04   0.18    -0.22  -0.18  -0.33     0.20  -0.08  -0.23
    13   1    -0.19  -0.02   0.53    -0.07   0.26   0.05    -0.05   0.11   0.05
    14   1     0.43   0.10  -0.32    -0.11   0.14   0.38    -0.04   0.10   0.25
    15   1     0.40  -0.04  -0.16     0.15   0.10  -0.44     0.09   0.02  -0.18
                     25                     26                     27
                      A                      A                      A
 Frequencies --   1363.4396              1440.7816              1458.1164
 Red. masses --      1.3029                 1.3117                 1.2502
 Frc consts  --      1.4271                 1.6043                 1.5661
 IR Inten    --    107.2688                12.2476                19.1534
  Atom  AN      X      Y      Z        X      Y      Z        X      Y      Z
     1   8    -0.00  -0.00  -0.00     0.00   0.00   0.00     0.00   0.00   0.00
     2   1     0.00  -0.01   0.00    -0.00  -0.00  -0.00     0.00  -0.00  -0.00
     3   6     0.01   0.00   0.00    -0.01   0.00  -0.00    -0.00   0.00  -0.00
     4   1     0.02  -0.01   0.00    -0.02   0.01  -0.00    -0.00   0.00  -0.00
     5   6    -0.00   0.00   0.00     0.00  -0.00   0.00     0.00  -0.00   0.00
     6   6    -0.06  -0.05  -0.01     0.05   0.03   0.01     0.01   0.01   0.00
     7   8     0.01  -0.02  -0.00    -0.01   0.01  -0.00    -0.00  -0.00  -0.00
     8   8     0.03   0.10   0.01    -0.04  -0.04  -0.03    -0.01  -0.01  -0.01
     9   6    -0.04  -0.01   0.00    -0.10  -0.01   0.07    -0.03  -0.00   0.03
    10   6     0.02  -0.06   0.01     0.02   0.01   0.05     0.09   0.01  -0.11
    11   1    -0.57  -0.07   0.20     0.57   0.13  -0.29     0.14   0.05  -0.09
    12   1     0.69   0.11  -0.23     0.58   0.01  -0.28     0.16  -0.02  -0.09
    13   1    -0.00   0.06  -0.02     0.08  -0.02  -0.23    -0.05   0.01   0.55
    14   1    -0.07   0.01   0.14     0.04  -0.12  -0.13    -0.44   0.09   0.32
    15   1     0.03   0.04  -0.18     0.01   0.11  -0.15    -0.37  -0.19   0.35
                     28                     29                     30
                      A                      A                      A
 Frequencies --   1528.6380              1537.4803              1545.4384
 Red. masses --      1.0414                 1.0664                 1.0728
 Frc consts  --      1.4338                 1.4853                 1.5097
 IR Inten    --     16.5125                 3.2931                22.2800
  Atom  AN      X      Y      Z        X      Y      Z        X      Y      Z
     1   8    -0.00   0.00  -0.00     0.00   0.00   0.00     0.00   0.00  -0.00
     2   1     0.00  -0.00   0.00     0.00  -0.00   0.00    -0.00   0.00   0.00
     3   6    -0.00   0.00   0.00    -0.00   0.00  -0.00    -0.00   0.00  -0.00
     4   1    -0.00   0.00   0.00    -0.00   0.00  -0.00    -0.00   0.00  -0.00
     5   6     0.00   0.00  -0.00     0.00  -0.00   0.00     0.00  -0.00   0.00
     6   6    -0.00   0.00  -0.00     0.02   0.00   0.00     0.01   0.00   0.00
     7   8     0.00  -0.00   0.00    -0.01   0.01   0.00    -0.01   0.01   0.00
     8   8     0.00   0.00   0.00    -0.02  -0.01  -0.01    -0.01  -0.01  -0.01
     9   6    -0.01  -0.02   0.01    -0.01  -0.01  -0.06    -0.04  -0.01  -0.04
    10   6    -0.00  -0.05  -0.01     0.03  -0.01   0.02    -0.03   0.00  -0.03
    11   1    -0.01   0.04  -0.11     0.22  -0.28   0.42     0.24  -0.20   0.28
    12   1     0.01  -0.04  -0.03     0.13   0.38   0.39     0.18   0.29   0.22
    13   1    -0.10   0.65  -0.15    -0.06   0.19   0.18     0.05  -0.14  -0.26
    14   1     0.51   0.26   0.04    -0.03  -0.22  -0.23     0.09   0.34   0.34
    15   1    -0.37  -0.12   0.22    -0.35   0.15  -0.22     0.38  -0.23   0.35
                     31                     32                     33
                      A                      A                      A
 Frequencies --   1905.8451              2043.2268              3108.2473
 Red. masses --     12.0595                 6.8698                 1.0352
 Frc consts  --     25.8080                16.8978                 5.8923
 IR Inten    --    340.4673               106.1615                11.2962
  Atom  AN      X      Y      Z        X      Y      Z        X      Y      Z
     1   8    -0.00  -0.01  -0.00     0.00   0.04   0.01    -0.00   0.00  -0.00
     2   1     0.01  -0.05  -0.01    -0.01   0.05   0.01     0.00  -0.00   0.00
     3   6     0.12  -0.01   0.02    -0.39   0.02  -0.06     0.00   0.00   0.00
     4   1     0.18   0.02   0.03    -0.67   0.05  -0.10    -0.00  -0.00   0.00
     5   6    -0.12   0.02  -0.02     0.58  -0.07   0.08    -0.00  -0.00  -0.00
     6   6    -0.43   0.64   0.03    -0.16   0.04  -0.02     0.00   0.00   0.00
     7   8     0.31  -0.42  -0.01     0.03  -0.04  -0.00     0.00  -0.00  -0.00
     8   8    -0.01  -0.07  -0.01    -0.00  -0.01  -0.00    -0.00  -0.00  -0.00
     9   6    -0.02   0.01  -0.00     0.00   0.00   0.00     0.00   0.00  -0.00
    10   6     0.01  -0.00   0.01    -0.00  -0.00   0.00    -0.03  -0.01   0.04
    11   1     0.16  -0.04   0.07     0.01   0.00   0.01    -0.00   0.01   0.00
    12   1     0.09   0.11   0.03     0.00   0.01   0.01     0.01  -0.02   0.02
    13   1     0.02  -0.03  -0.04     0.00  -0.00  -0.00     0.59   0.11   0.11
    14   1    -0.03  -0.02  -0.00    -0.00  -0.00  -0.00    -0.22   0.43  -0.34
    15   1     0.03   0.03  -0.04     0.01   0.00  -0.01    -0.05  -0.46  -0.24
                     34                     35                     36
                      A                      A                      A
 Frequencies --   3140.4530              3188.6326              3192.6043
 Red. masses --      1.0600                 1.1005                 1.1025
 Frc consts  --      6.1595                 6.5928                 6.6212
 IR Inten    --     17.2936                12.4698                 5.1577
  Atom  AN      X      Y      Z        X      Y      Z        X      Y      Z
     1   8     0.00  -0.00  -0.00    -0.00   0.00   0.00     0.00  -0.00   0.00
     2   1    -0.00   0.00   0.00     0.00  -0.00  -0.00    -0.00  -0.00  -0.00
     3   6    -0.00  -0.00  -0.00     0.00   0.00   0.00     0.00  -0.00  -0.00
     4   1    -0.00  -0.00  -0.00    -0.00  -0.00  -0.00    -0.00  -0.00   0.00
     5   6     0.00   0.00   0.00    -0.00   0.00   0.00     0.00  -0.00  -0.00
     6   6    -0.00  -0.00  -0.00     0.00   0.00   0.00    -0.00   0.00  -0.00
     7   8    -0.00   0.00  -0.00    -0.00  -0.00  -0.00     0.00  -0.00   0.00
     8   8     0.00   0.00   0.00     0.00  -0.00   0.00     0.00   0.00  -0.00
     9   6     0.02  -0.01   0.06     0.00  -0.04  -0.01    -0.01   0.05  -0.00
    10   6    -0.01  -0.00  -0.01    -0.06   0.04  -0.03    -0.05  -0.05  -0.03
    11   1    -0.04  -0.50  -0.26     0.03   0.35   0.20    -0.03  -0.35  -0.19
    12   1    -0.25   0.61  -0.47    -0.05   0.10  -0.09     0.12  -0.28   0.23
    13   1     0.12   0.02   0.03     0.53   0.11   0.09     0.52   0.09   0.09
    14   1     0.02  -0.05   0.03     0.24  -0.51   0.41    -0.01  -0.02   0.00
    15   1    -0.00   0.02   0.01    -0.03  -0.12  -0.08     0.04   0.56   0.29
                     37                     38                     39
                      A                      A                      A
 Frequencies --   3213.3894              3425.8851              3824.7219
 Red. masses --      1.1057                 1.1330                 1.0679
 Frc consts  --      6.7269                 7.8350                 9.2037
 IR Inten    --     13.6555                40.0623                26.2634
  Atom  AN      X      Y      Z        X      Y      Z        X      Y      Z
     1   8    -0.00  -0.00  -0.00     0.00   0.00   0.00    -0.06  -0.02  -0.01
     2   1     0.00  -0.00   0.00    -0.01   0.00  -0.00     0.93   0.29   0.20
     3   6     0.00   0.00   0.00    -0.10  -0.02  -0.02    -0.00   0.00  -0.00
     4   1    -0.00  -0.00  -0.00     0.95   0.23   0.18     0.01   0.00   0.00
     5   6    -0.00   0.00  -0.00     0.02  -0.00   0.00     0.00  -0.00   0.00
     6   6     0.00  -0.00  -0.00    -0.00  -0.00  -0.00     0.00   0.00   0.00
     7   8    -0.00   0.00   0.00    -0.00   0.00   0.00    -0.00  -0.00  -0.00
     8   8     0.00  -0.00   0.00    -0.00  -0.00  -0.00    -0.00  -0.00  -0.00
     9   6     0.01  -0.07  -0.00    -0.00  -0.00  -0.00    -0.00   0.00   0.00
    10   6     0.00  -0.06  -0.00    -0.00  -0.00   0.00    -0.00   0.00  -0.00
    11   1     0.04   0.51   0.29     0.00   0.00   0.00    -0.00  -0.00  -0.00
    12   1    -0.12   0.30  -0.25    -0.00   0.00  -0.00     0.00  -0.00   0.00
    13   1     0.10   0.00   0.02     0.00   0.00   0.00    -0.00  -0.00   0.00
    14   1    -0.14   0.28  -0.24    -0.00   0.00  -0.00     0.00  -0.00   0.00
    15   1     0.04   0.49   0.27    -0.00   0.00   0.00     0.00  -0.00  -0.00

 -------------------
 - Thermochemistry -
 -------------------
 Temperature   298.150 Kelvin.  Pressure   1.00000 Atm.
 Atom     1 has atomic number  8 and mass  15.99491
 Atom     2 has atomic number  1 and mass   1.00783
 Atom     3 has atomic number  6 and mass  12.00000
 Atom     4 has atomic number  1 and mass   1.00783
 Atom     5 has atomic number  6 and mass  12.00000
 Atom     6 has atomic number  6 and mass  12.00000
 Atom     7 has atomic number  8 and mass  15.99491
 Atom     8 has atomic number  8 and mass  15.99491
 Atom     9 has atomic number  6 and mass  12.00000
 Atom    10 has atomic number  6 and mass  12.00000
 Atom    11 has atomic number  1 and mass   1.00783
 Atom    12 has atomic number  1 and mass   1.00783
 Atom    13 has atomic number  1 and mass   1.00783
 Atom    14 has atomic number  1 and mass   1.00783
 Atom    15 has atomic number  1 and mass   1.00783
 Molecular mass:   115.03952 amu.
 Principal axes and moments of inertia in atomic units:
                           1         2         3
     Eigenvalues --   495.721591566.541361916.10053
           X            0.99961   0.02720  -0.00550
           Y           -0.02720   0.99963  -0.00019
           Z            0.00550   0.00034   0.99998
 This molecule is an asymmetric top.
 Rotational symmetry number  1.
 Warning -- assumption of classical behavior for rotation
           may cause significant error
 Rotational temperatures (Kelvin)      0.17472     0.05529     0.04520
 Rotational constants (GHZ):           3.64063     1.15205     0.94188
    4 imaginary frequencies ignored.
 Zero-point vibrational energy     295807.6 (Joules/Mol)
                                   70.69970 (Kcal/Mol)
 Warning -- explicit consideration of   9 degrees of freedom as
           vibrations may cause significant error
 Vibrational temperatures:     54.80   181.65   252.07   360.14   380.04
          (Kelvin)            455.22   596.81   806.77   852.61  1092.77
                             1158.91  1160.87  1186.92  1284.00  1354.34
                             1406.99  1589.31  1662.01  1764.68  1877.63
                             1961.69  2072.96  2097.90  2199.37  2212.09
                             2223.54  2742.09  2939.75  4472.07  4518.41
                             4587.73  4593.45  4623.35  4929.08  5502.92
 
 Zero-point correction=                           0.112667 (Hartree/Particle)
 Thermal correction to Energy=                    0.120204
 Thermal correction to Enthalpy=                  0.121148
 Thermal correction to Gibbs Free Energy=         0.078822
 Sum of electronic and zero-point Energies=           -419.848880
 Sum of electronic and thermal Energies=              -419.841343
 Sum of electronic and thermal Enthalpies=            -419.840399
 Sum of electronic and thermal Free Energies=         -419.882725
 
                     E (Thermal)             CV                S
                      KCal/Mol        Cal/Mol-Kelvin    Cal/Mol-Kelvin
 Total                   75.429             25.828             89.083
 Electronic               0.000              0.000              1.377
 Translational            0.889              2.981             40.136
 Rotational               0.889              2.981             28.788
 Vibrational             73.652             19.866             18.782
 Vibration     1          0.594              1.982              5.356
 Vibration     2          0.611              1.927              3.002
 Vibration     3          0.627              1.873              2.379
 Vibration     4          0.663              1.762              1.728
 Vibration     5          0.671              1.739              1.634
 Vibration     6          0.703              1.642              1.329
 Vibration     7          0.778              1.438              0.910
 Vibration     8          0.916              1.116              0.522
 Vibration     9          0.950              1.048              0.463
                       Q            Log10(Q)             Ln(Q)
 Total Bot       0.555243D-36        -36.255517        -83.481413
 Total V=0       0.369596D+16         15.567728         35.846018
 Vib (Bot)       0.131094D-49        -49.882416       -114.858508
 Vib (Bot)    1  0.543350D+01          0.735080          1.692583
 Vib (Bot)    2  0.161623D+01          0.208502          0.480094
 Vib (Bot)    3  0.114828D+01          0.060048          0.138266
 Vib (Bot)    4  0.779612D+00         -0.108121         -0.248959
 Vib (Bot)    5  0.733818D+00         -0.134412         -0.309494
 Vib (Bot)    6  0.595420D+00         -0.225177         -0.518489
 Vib (Bot)    7  0.424985D+00         -0.371626         -0.855701
 Vib (Bot)    8  0.276979D+00         -0.557552         -1.283812
 Vib (Bot)    9  0.253893D+00         -0.595349         -1.370842
 Vib (V=0)       0.872627D+02          1.940829          4.468923
 Vib (V=0)    1  0.595645D+01          0.774988          1.784475
 Vib (V=0)    2  0.219180D+01          0.340801          0.784723
 Vib (V=0)    3  0.175242D+01          0.243638          0.560996
 Vib (V=0)    4  0.142617D+01          0.154172          0.354994
 Vib (V=0)    5  0.138797D+01          0.142380          0.327842
 Vib (V=0)    6  0.127751D+01          0.106365          0.244914
 Vib (V=0)    7  0.115621D+01          0.063037          0.145148
 Vib (V=0)    8  0.107159D+01          0.030030          0.069146
 Vib (V=0)    9  0.106077D+01          0.025621          0.058994
 Electronic      0.200000D+01          0.301030          0.693147
 Translational   0.484981D+08          7.685724         17.697035
 Rotational      0.436661D+06          5.640145         12.986913
 ***** Axes restored to original set *****
 -------------------------------------------------------------------
 Center     Atomic                   Forces (Hartrees/Bohr)
 Number     Number              X              Y              Z
 -------------------------------------------------------------------
      1        8           0.013096689    0.030807884    0.006331594
      2        1          -0.015478788   -0.006113079   -0.003441574
      3        6           0.018782818   -0.032413756   -0.001446217
      4        1          -0.001035509    0.000213321   -0.000116819
      5        6          -0.018932093    0.006990196   -0.001905446
      6        6           0.050831061   -0.015471021    0.005483223
      7        8          -0.032130966    0.038713785    0.000525542
      8        8           0.002410098   -0.015685174   -0.001865478
      9        6          -0.014846185   -0.007772731   -0.004719806
     10        6          -0.000303858   -0.000097432    0.000105763
     11        1          -0.000181971   -0.000698326   -0.000469383
     12        1          -0.000790863    0.001221157   -0.000828168
     13        1          -0.001497516   -0.000125983    0.000305405
     14        1           0.000386699   -0.000789613    0.000876064
     15        1          -0.000309615    0.001220772    0.001165302
 -------------------------------------------------------------------
 Cartesian Forces:  Max     0.050831061 RMS     0.014314473

 GradGradGradGradGradGradGradGradGradGradGradGradGradGradGradGradGradGrad
 Berny optimization.
 Search for a local minimum.
 Step number   1 out of a maximum of    2
 All quantities printed in internal units (Hartrees-Bohrs-Radians)
 Second derivative matrix not updated -- analytic derivatives used.
 ITU=  0
     Eigenvalues ---   -0.31362  -0.00901  -0.00455  -0.00061   0.00020
     Eigenvalues ---    0.00152   0.00372   0.01000   0.01298   0.01914
     Eigenvalues ---    0.03228   0.03495   0.04275   0.06261   0.06679
     Eigenvalues ---    0.07687   0.08539   0.09631   0.10512   0.11078
     Eigenvalues ---    0.12170   0.14576   0.15969   0.17834   0.20320
     Eigenvalues ---    0.27424   0.29660   0.42774   0.49257   0.63718
     Eigenvalues ---    0.72569   0.78326   0.80092   0.88571   0.92291
     Eigenvalues ---    0.95771   1.01386   1.85967   2.19037
 Eigenvalue     1 is  -3.14D-01 should be greater than     0.000000 Eigenvector:
                          Y3        Y1        Y5        Z3        X1
   1                    0.79399  -0.54548  -0.17858   0.09652   0.08964
                          X4        X2        X3        Z1        Y4
   1                    0.07374  -0.06194  -0.06184  -0.05960  -0.05086
 Eigenvalue     2 is  -9.01D-03 should be greater than     0.000000 Eigenvector:
                          Z2        Z1        Z8        Z5        Z7
   1                    0.80195  -0.40781   0.18441   0.16878  -0.16128
                          X2        Y2        X14       Z13       X12
   1                   -0.14159  -0.10384  -0.09973  -0.09275   0.08719
 Eigenvalue     3 is  -4.55D-03 should be greater than     0.000000 Eigenvector:
                          Z7        Z2        Z8        Z5        Y14
   1                    0.55200   0.42899  -0.37198  -0.24205   0.19096
                          Z1        Y15       Z12       Y7        Z15
   1                    0.18575   0.17391  -0.13949  -0.13549  -0.13307
 Eigenvalue     4 is  -6.08D-04 should be greater than     0.000000 Eigenvector:
                          X2        X1        X11       Y5        Y4
   1                    0.48319   0.39165  -0.29674  -0.22937   0.22885
                          Y12       X9        Y11       X8        Y2
   1                    0.21215  -0.19212   0.17307  -0.17010  -0.16955
 Quadratic step=1.078D+00 exceeds max=3.000D-01 adjusted using Lamda=-1.913D-03.
 Angle between NR and scaled steps=  38.38 degrees.
 Angle between quadratic step and forces=  63.45 degrees.
 Linear search not attempted -- first point.
 B after Tr=     0.005678    0.004529   -0.000773
         Rot=    1.000000    0.000164    0.000177   -0.000455 Ang=   0.06 deg.
 Variable       Old X    -DE/DX   Delta X   Delta X   Delta X     New X
                                 (Linear)    (Quad)   (Total)
    X1        5.12844   0.01310   0.00000   0.07613   0.08405   5.21248
    Y1       -2.62999   0.03081   0.00000   0.13323   0.14253  -2.48746
    Z1        0.07661   0.00633   0.00000   0.01277   0.01465   0.09126
    X2        3.41449  -0.01548   0.00000   0.09845   0.10717   3.52165
    Y2       -3.16589  -0.00611   0.00000  -0.06677  -0.05914  -3.22503
    Z2       -0.28988  -0.00344   0.00000   0.00085   0.00237  -0.28751
    X3        4.69500   0.01878   0.00000   0.06077   0.06557   4.76057
    Y3        0.86593  -0.03241   0.00000  -0.08978  -0.08077   0.78516
    Z3        0.47467  -0.00145   0.00000  -0.00370  -0.00305   0.47163
    X4        6.63148  -0.00104   0.00000   0.04929   0.05344   6.68492
    Y4        1.33944   0.00021   0.00000   0.01152   0.02240   1.36184
    Z4        0.83501  -0.00012   0.00000   0.00997   0.01111   0.84612
    X5        2.44232  -0.01893   0.00000   0.02022   0.02454   2.46686
    Y5        1.44079   0.00699   0.00000  -0.03111  -0.02427   1.41652
    Z5        0.20579  -0.00191   0.00000   0.00394   0.00357   0.20936
    X6       -0.27495   0.05083   0.00000   0.04863   0.05310  -0.22185
    Y6        1.41008  -0.01547   0.00000  -0.00781  -0.00355   1.40653
    Z6       -0.20687   0.00548   0.00000   0.00388   0.00256  -0.20430
    X7       -1.59390  -0.03213   0.00000   0.01680   0.01955  -1.57435
    Y7        3.24991   0.03871   0.00000   0.03550   0.03855   3.28846
    Z7       -0.14697   0.00053   0.00000  -0.00451  -0.00691  -0.15389
    X8       -1.06120   0.00241   0.00000  -0.03325  -0.02645  -1.08765
    Y8       -0.94620  -0.01569   0.00000  -0.02509  -0.02178  -0.96798
    Z8       -0.66636  -0.00187   0.00000  -0.00967  -0.01051  -0.67687
    X9       -3.74414  -0.01485   0.00000  -0.08473  -0.07751  -3.82165
    Y9       -1.26042  -0.00777   0.00000  -0.00962  -0.00893  -1.26935
    Z9       -1.08057  -0.00472   0.00000  -0.01634  -0.01805  -1.09862
   X10       -5.16782  -0.00030   0.00000  -0.05707  -0.05070  -5.21852
   Y10       -1.30157  -0.00010   0.00000  -0.00461  -0.00437  -1.30594
   Z10        1.40382   0.00011   0.00000   0.00422   0.00203   1.40585
   X11       -3.88634  -0.00018   0.00000  -0.07369  -0.06448  -3.95082
   Y11       -3.05521  -0.00070   0.00000  -0.00726  -0.00702  -3.06222
   Z11       -2.07478  -0.00047   0.00000  -0.02376  -0.02493  -2.09971
   X12       -4.39829  -0.00079   0.00000  -0.06513  -0.05888  -4.45717
   Y12        0.26065   0.00122   0.00000   0.01269   0.01240   0.27305
   Z12       -2.30696  -0.00083   0.00000  -0.00553  -0.00797  -2.31493
   X13       -7.16405  -0.00150   0.00000  -0.06733  -0.06050  -7.22455
   Y13       -1.67843  -0.00013   0.00000  -0.00523  -0.00692  -1.68535
   Z13        1.04532   0.00031   0.00000   0.03878   0.03601   1.08132
   X14       -4.43376   0.00039   0.00000  -0.03673  -0.02945  -4.46321
   Y14       -2.78627  -0.00079   0.00000  -0.00166  -0.00034  -2.78660
   Z14        2.63133   0.00088   0.00000   0.00099  -0.00045   2.63088
   X15       -5.01308  -0.00031   0.00000  -0.04383  -0.03945  -5.05253
   Y15        0.51410   0.00122   0.00000   0.00050   0.00120   0.51531
   Z15        2.36456   0.00117   0.00000   0.00227  -0.00045   2.36410
         Item               Value     Threshold  Converged?
 Maximum Force            0.050831     0.000450     NO 
 RMS     Force            0.014314     0.000300     NO 
 Maximum Displacement     0.142527     0.001800     NO 
 RMS     Displacement     0.044494     0.001200     NO 
 Predicted change in Energy=-1.245430D-02
 GradGradGradGradGradGradGradGradGradGradGradGradGradGradGradGradGradGrad


 ----------------------------------------------------------------------

 Electric dipole moment (input orientation):
 (Debye = 10**-18 statcoulomb cm , SI units = C m)
                  (au)            (Debye)         (10**-30 SI)
   Tot        0.937573D+00      0.238307D+01      0.794908D+01
   x         -0.893624D+00     -0.227137D+01     -0.757646D+01
   y         -0.270113D+00     -0.686557D+00     -0.229011D+01
   z         -0.867096D-01     -0.220394D+00     -0.735155D+00

 Dipole polarizability, Alpha (input orientation).
 (esu units = cm**3 , SI units = C**2 m**2 J**-1)
 Alpha(0;0):
               (au)            (10**-24 esu)      (10**-40 SI)
   iso        0.723450D+02      0.107204D+02      0.119281D+02
   aniso      0.455468D+02      0.674934D+01      0.750966D+01
   xx         0.917155D+02      0.135908D+02      0.151218D+02
   yx        -0.111161D+02     -0.164724D+01     -0.183280D+01
   yy         0.791901D+02      0.117348D+02      0.130567D+02
   zx         0.296791D+01      0.439799D+00      0.489343D+00
   zy         0.211259D+01      0.313054D+00      0.348319D+00
   zz         0.461294D+02      0.683568D+01      0.760572D+01

 ----------------------------------------------------------------------

 Dipole orientation:
     8          0.86353276         -3.91912693         -4.13742918
     1          0.67812878         -3.99299893         -2.31553609
     6          0.18560342         -0.49711099         -4.76828937
     1          0.38379307         -0.54902329         -6.78373967
     6         -0.24230713          0.62931583         -2.76195296
     6         -0.62354411          1.30471119         -0.12504767
     8         -1.12179453          3.39261202          0.59648361
     8         -0.34773772         -0.73054829          1.34567822
     6         -0.64471249         -0.32356681          4.03169562
     6          1.73712981          0.78556840          5.17072628
     1         -1.04911189         -2.19760812          4.77624126
     1         -2.27318096          0.90299653          4.33038006
     1          1.51150869          0.94389803          7.21511301
     1          3.35558227         -0.43181132          4.78528835
     1          2.10329870          2.66514467          4.41129378

 Electric dipole moment (dipole orientation):
 (Debye = 10**-18 statcoulomb cm , SI units = C m)
                  (au)            (Debye)         (10**-30 SI)
   Tot        0.937573D+00      0.238307D+01      0.794908D+01
   x          0.000000D+00      0.000000D+00      0.000000D+00
   y          0.000000D+00      0.000000D+00      0.000000D+00
   z          0.937573D+00      0.238307D+01      0.794908D+01

 Dipole polarizability, Alpha (dipole orientation).
 (esu units = cm**3 , SI units = C**2 m**2 J**-1)
 Alpha(0;0):
               (au)            (10**-24 esu)      (10**-40 SI)
   iso        0.723450D+02      0.107204D+02      0.119281D+02
   aniso      0.455468D+02      0.674934D+01      0.750966D+01
   xx         0.479251D+02      0.710176D+01      0.790178D+01
   yx        -0.929325D+01     -0.137712D+01     -0.153225D+01
   yy         0.842930D+02      0.124909D+02      0.138980D+02
   zx        -0.349953D+01     -0.518577D+00     -0.576995D+00
   zy         0.120654D+02      0.178791D+01      0.198932D+01
   zz         0.848170D+02      0.125686D+02      0.139844D+02

 ----------------------------------------------------------------------
 1\1\GINC-AJ\Freq\UM062X\6-31+G\C5H7O3(2)\AAYUSH\20-Jun-2025\0\\# freq 
 6-31+g m062x\\Title Card Required\\0,2\O,2.713851,-1.391731,0.040538\H
 ,1.806868,-1.675317,-0.1534\C,2.484486,0.458229,0.251186\H,3.509227,0.
 708802,0.441869\C,1.292419,0.762432,0.108899\C,-0.145497,0.746182,-0.1
 09469\O,-0.843454,1.719779,-0.077774\O,-0.561561,-0.500709,-0.352622\C
 ,-1.981316,-0.666986,-0.571815\C,-2.734693,-0.688759,0.742868\H,-2.056
 56,-1.616745,-1.097927\H,-2.327474,0.137929,-1.220791\H,-3.791053,-0.8
 88188,0.553157\H,-2.346244,-1.474429,1.392438\H,-2.652806,0.272052,1.2
 5127\\Version=ES64L-G16RevA.03\State=2-A\HF=-419.9615473\S2=0.786482\S
 2-1=0.\S2A=0.750533\RMSD=9.159e-09\RMSF=1.431e-02\ZeroPoint=0.1126671\
 Thermal=0.1202041\Dipole=-0.8936241,-0.2701125,-0.0867096\DipoleDeriv=
 -0.2402494,-0.1434464,0.0344567,0.0372336,-0.1064572,0.0607935,0.06031
 25,0.0339126,-0.5273077,0.0410983,0.0596354,-0.0503351,-0.1167474,0.33
 85823,-0.0187979,-0.0765973,0.0076551,0.3632156,-0.0918118,0.5067352,0
 .0619749,0.217042,-0.5339529,-0.036559,0.0191307,0.0102285,-0.017222,0
 .24577,-0.0122522,0.000902,-0.0342276,0.2325791,-0.0030979,-0.0000003,
 0.0004345,0.2167196,-0.6055465,-0.4076424,-0.1168224,-0.0943522,-0.019
 0458,-0.0005391,-0.0942047,-0.0565751,-0.1046389,2.0720561,-0.2775616,
 0.1593527,0.498939,1.7010295,0.1431797,0.2881094,0.1204089,0.4648163,-
 0.9045125,0.4432677,-0.0172696,0.0617796,-0.9774635,-0.0309955,-0.0573
 713,-0.0010041,-0.3569215,-1.3378017,-0.3148871,-0.0587159,-0.7098158,
 -1.0049709,-0.1133322,-0.1832343,-0.1380957,-0.4233984,0.8517325,0.233
 2593,0.0085402,0.1731548,0.3224004,-0.0021628,0.031993,0.0586386,0.342
 5777,-0.1048425,-0.0492757,0.0286979,-0.0294889,0.011008,-0.0152977,0.
 0639596,-0.0353089,-0.0920344,0.007324,0.0073319,0.0288074,-0.0455408,
 -0.0373859,-0.0970004,-0.0013717,-0.069585,0.0304176,-0.0148122,-0.044
 7465,0.0019666,0.0421505,0.0080779,0.1068204,-0.010502,0.0404409,-0.00
 09467,-0.1172599,-0.0501351,-0.0183864,-0.0464678,0.1052999,-0.0027886
 ,-0.0420306,-0.0001951,0.0729687,0.0722168,0.0838938,-0.0485533,0.0470
 977,-0.0053924,0.0919777,0.0036306,0.0620996,-0.0012519,0.1266389,-0.0
 341764,-0.0146158,-0.0007566,-0.0343085,-0.0822003,-0.0018236,-0.03305
 47,0.0330062\Polar=91.7155357,-11.1161388,79.1900854,2.967912,2.112592
 5,46.1294442\Quadrupole=2.3702573,-3.3653486,0.9950913,8.5985526,1.288
 5961,0.8460039\PG=C01 [X(C5H7O3)]\NImag=4\\0.49937434,0.14007102,-0.00
 230608,0.10365993,0.02349513,0.02429078,-0.46407176,-0.14873733,-0.100
 54561,0.45910723,-0.12194969,-0.05931409,-0.02975759,0.13832811,0.0699
 3867,-0.09692335,-0.03443405,-0.01573262,0.09831634,0.03399204,0.01589
 626,-0.02247513,-0.09069814,-0.01284438,-0.00104550,-0.01946608,-0.002
 81010,1.23200492,-0.02972885,0.15987000,0.01890340,0.01091566,-0.00120
 246,0.00181927,0.06712548,-0.17218967,-0.00485438,0.01004372,-0.018083
 54,0.00141449,-0.00344528,-0.00024042,0.18547784,-0.02376481,0.1093521
 4,0.00142329,0.00271639,0.00012159,0.00036312,0.00060801,-0.00004397,-
 0.37302906,-0.07956085,-0.06264060,0.37360566,-0.01030782,-0.03028230,
 -0.00612967,0.00125002,-0.00439921,-0.00050191,-0.10659003,-0.01210678
 ,-0.01339126,0.08088446,0.05035428,-0.00161262,-0.00402398,0.00226304,
 0.00002400,-0.00062540,0.00105551,-0.06618045,-0.00933520,-0.04538446,
 0.06528520,0.01671351,0.03057938,-0.01389814,0.10040516,0.01001248,0.0
 0429084,0.00293932,0.00129852,-0.83531218,0.03118687,-0.11854274,-0.00
 170355,0.03469954,0.00323338,1.19804704,0.02331969,-0.07629005,-0.0075
 1104,-0.00160162,-0.00365302,-0.00071021,0.12356693,0.04158412,0.02951
 243,-0.00341858,-0.00798245,-0.00258178,-0.14027400,0.10690283,-0.0001
 4957,0.00422826,0.00794919,0.00056194,0.00004623,-0.00055284,-0.106104
 32,0.01532704,-0.05178419,-0.00182774,0.00327120,0.00748467,0.15478507
 ,-0.01567876,0.08608589,0.00069562,-0.00965675,-0.00089792,0.00338869,
 0.00302777,0.00076187,0.00152246,0.00188717,-0.00040810,-0.00100936,-0
 .00027120,-0.00115697,-0.25769806,0.00159455,-0.02601690,0.78176040,-0
 .00290771,0.00673974,0.00074506,0.00429370,-0.00177478,0.00018047,0.02
 746750,-0.01481626,0.00137859,-0.00152391,0.00474079,-0.00043342,-0.03
 826245,-0.03808791,0.00045655,-0.23938587,0.89672189,-0.00004961,-0.00
 030380,-0.00169559,0.00093649,0.00004163,0.00114099,0.00263992,-0.0025
 2112,0.00682605,-0.00128537,-0.00024386,0.00588881,-0.03121178,0.00687
 122,-0.08852827,0.05680777,0.06338402,0.20769131,-0.00031438,0.0012987
 7,0.00013300,-0.00084011,-0.00140633,-0.00033539,-0.00604566,0.0024162
 9,-0.00060456,0.00049222,-0.00082859,0.00014650,-0.05023048,0.04159368
 ,-0.00550240,-0.35339891,0.36689936,0.00704170,0.38161367,0.00062357,-
 0.00089705,-0.00003602,-0.00115265,0.00075756,-0.00005385,-0.00370537,
 0.00277092,-0.00019304,0.00014159,-0.00062492,0.00010443,0.03659121,-0
 .00707655,0.00106425,0.34898185,-0.55883983,-0.01758306,-0.41482244,0.
 66955830,0.00006839,0.00002735,-0.00005302,-0.00029057,-0.00009543,-0.
 00003187,-0.00142738,0.00076399,-0.00005752,0.00026985,-0.00005513,-0.
 00111224,-0.00625364,0.00182908,0.02347917,0.00399779,-0.01332285,-0.0
 6159858,-0.00223391,0.03004970,0.01658666,-0.00094541,0.00446754,0.000
 24069,-0.00089933,-0.00239014,-0.00016505,0.00331069,-0.00298977,0.000
 14943,0.00000870,0.00105999,0.00027883,-0.04634506,-0.04476778,-0.0158
 3540,-0.13815462,-0.09998656,-0.02492614,0.02912518,0.02414322,0.00222
 488,0.44712214,0.00078421,0.00195610,0.00020452,-0.00290124,-0.0012337
 4,-0.00033334,0.00150992,-0.00224349,-0.00007634,0.00026420,0.00004912
 ,0.00015548,-0.02539491,-0.01273474,-0.00745139,-0.05194678,-0.2819701
 6,-0.03751478,0.00954085,-0.10597882,-0.01934767,0.11799570,0.48055456
 ,-0.00012009,0.00079553,0.00107380,-0.00033557,-0.00026777,-0.00172215
 ,0.00086283,-0.00079366,-0.00028432,0.00012653,0.00023537,-0.00052300,
 -0.01247393,-0.01020730,0.01017861,-0.01911570,-0.04647376,-0.06879027
 ,0.00081401,-0.01606569,0.02709506,0.07025123,0.07355287,0.09403744,0.
 00035588,-0.00043412,0.00004532,-0.00038044,0.00096283,-0.00000717,0.0
 0105718,-0.00106467,-0.00001008,-0.00022093,0.00002927,-0.00006260,0.0
 0471491,0.00171496,0.00122565,-0.02975445,-0.03656997,-0.01139914,-0.0
 0548399,0.01611864,0.00183807,-0.19689724,-0.02132052,-0.02829435,0.45
 298794,0.00009245,0.00044802,0.00005152,-0.00033934,0.00098276,0.00011
 889,0.00092191,-0.00159510,-0.00000709,-0.00015203,0.00023362,0.000040
 51,-0.00177857,-0.00264736,-0.00139563,-0.05300508,-0.01527372,-0.0122
 4297,-0.00126221,0.00212046,0.00057576,0.01223632,-0.08438782,0.000410
 85,-0.01044001,0.66837212,-0.00003972,0.00011905,-0.00004990,-0.000023
 70,0.00024412,0.00024727,0.00049778,-0.00036546,-0.00041112,-0.0000269
 7,0.00010143,-0.00028047,-0.00095507,-0.00158268,0.00638861,-0.0129144
 8,-0.01324037,-0.00259652,-0.00267681,0.00315664,-0.00486469,-0.022881
 09,-0.00290235,-0.06665830,0.02573262,0.00802340,0.56199237,-0.0000514
 7,0.00021248,0.00000998,0.00004172,-0.00031580,0.00000734,-0.00009698,
 0.00006377,0.00011547,0.00005015,0.00001063,0.00007939,-0.00055169,-0.
 00033035,-0.00192730,0.00027927,0.00672394,0.00291842,0.00071216,-0.00
 270619,0.00113885,-0.04303070,-0.00810024,0.03243504,-0.09781119,0.001
 11753,0.04382135,0.57320359,-0.00004705,-0.00000775,0.00008049,0.00003
 156,-0.00001190,-0.00013792,0.00003484,-0.00002283,-0.00003002,0.00001
 135,0.00000910,0.00001125,0.00004393,-0.00000784,-0.00005313,-0.001736
 55,0.00226056,0.00165064,0.00105849,0.00002515,-0.00068082,-0.00630647
 ,0.00189591,0.00562792,0.00132898,-0.09013131,-0.00166092,-0.00141494,
 0.60366770,0.00001671,0.00010133,-0.00001598,-0.00001040,-0.00015119,0
 .00004475,-0.00015034,-0.00003644,0.00006222,0.00002636,-0.00000806,0.
 00002224,0.00015565,0.00006044,-0.00071519,-0.00146780,0.00497220,0.00
 173646,0.00214653,-0.00104088,-0.00090230,-0.00461973,-0.00367906,0.00
 914711,0.05648749,0.00137470,-0.19618295,0.04496394,0.00354564,0.53154
 218,-0.00003470,0.00028974,0.00007543,-0.00013854,-0.00012274,-0.00010
 787,0.00001062,-0.00023819,-0.00005232,0.00000823,0.00006080,-0.000015
 21,-0.00107291,-0.00112682,0.00014837,-0.00634890,0.00376812,-0.002424
 22,0.00228343,-0.00060108,0.00048996,-0.02190935,-0.04091236,-0.019441
 53,-0.04444390,-0.00284349,-0.00440208,0.00235743,0.01598112,0.0091946
 4,0.06656813,-0.00002093,0.00006806,0.00005959,-0.00000555,-0.00005784
 ,-0.00008214,-0.00007854,0.00002391,0.00002856,0.00001756,0.00000095,0
 .00000095,-0.00032858,-0.00009820,-0.00032685,0.00157241,0.00079556,-0
 .00016266,-0.00144209,0.00021025,-0.00035719,-0.00165073,-0.00305951,-
 0.00021968,-0.01602139,-0.27168769,-0.11650625,0.00060129,0.00364824,0
 .00303633,0.01865658,0.28759093,0.00003547,0.00005817,-0.00004103,-0.0
 0009448,-0.00008790,0.00006243,-0.00004487,0.00001193,-0.00000086,-0.0
 0000077,0.00001118,-0.00000272,-0.00037331,-0.00028740,0.00005395,-0.0
 0046121,0.00310155,0.00014311,0.00120800,0.00002453,0.00057655,-0.0036
 0468,-0.00704657,-0.00161440,-0.00961465,-0.11463902,-0.11597736,0.000
 50458,-0.02730687,-0.01582034,0.00829922,0.12702325,0.12390468,-0.0000
 8737,0.00008584,0.00005568,0.00019075,-0.00026372,-0.00008514,0.000044
 70,0.00006290,-0.00003083,0.00003738,-0.00000156,-0.00002167,-0.000269
 83,-0.00019702,0.00054286,0.00016330,0.00822429,0.00016376,0.00188339,
 -0.00268344,0.00012297,-0.03403418,0.02094977,-0.02569998,-0.07267555,
 0.05574174,-0.04623145,0.00761560,-0.01364752,0.01284965,0.00293965,-0
 .00144691,0.00196588,0.09517011,0.00003155,0.00000937,-0.00004145,-0.0
 0003137,-0.00001436,0.00005226,0.00006154,-0.00009669,-0.00008063,0.00
 000706,0.00001594,-0.00004559,0.00021620,-0.00002899,0.00093596,-0.002
 42092,0.00102680,-0.00088416,-0.00103833,-0.00152060,-0.00129322,-0.00
 294313,0.00586099,-0.00598360,0.06639016,-0.20876922,0.12431238,-0.000
 17858,0.00145451,-0.00203684,0.00836429,-0.01924526,0.01795853,-0.0677
 0455,0.21980219,-0.00001211,-0.00001561,0.00001545,0.00001420,0.000001
 84,-0.00002607,0.00015298,-0.00006411,0.00003379,-0.00001090,0.0000158
 8,-0.00000190,0.00019323,-0.00016311,-0.00007805,-0.00182425,0.0037818
 2,0.00106952,0.00237865,-0.00090241,0.00006036,-0.00597574,0.00184728,
 -0.00216223,-0.05015950,0.11775289,-0.14788116,-0.00728212,0.02324386,
 -0.01864999,0.00596259,-0.01277666,0.01090636,0.05423192,-0.13233095,0
 .15883344,-0.00002557,0.00005270,0.00002194,0.00002485,-0.00008407,-0.
 00003394,-0.00005100,0.00002245,-0.00000292,0.00002857,-0.00000016,0.0
 0001187,-0.00025946,-0.00006492,-0.00024469,0.00090891,0.00243079,0.00
 037788,0.00028846,-0.00069977,0.00007272,-0.00189044,-0.00155477,0.003
 84786,-0.01600645,-0.00308180,-0.00708631,-0.30595823,-0.04899053,-0.0
 4607292,0.00029337,0.00056922,0.00001264,0.00036866,-0.00038484,0.0001
 6269,0.33496936,0.00000960,0.00000750,-0.00001312,-0.00001082,-0.00001
 371,0.00002363,-0.00004961,0.00001059,0.00001054,0.00000835,-0.0000012
 5,0.00000787,-0.00003843,0.00004382,-0.00022213,0.00080904,-0.00051586
 ,-0.00033721,-0.00053817,-0.00003013,0.00061069,0.00063898,0.00111023,
 0.00008365,-0.00034619,-0.00114423,-0.00051805,-0.04949058,-0.05677286
 ,-0.00898715,-0.00000350,-0.00007654,0.00010530,0.00004314,-0.00012364
 ,0.00018442,0.05424402,0.05732627,0.00000159,-0.00007417,0.00004519,-0
 .00000721,0.00007525,-0.00005465,0.00002828,0.00003174,-0.00003374,-0.
 00000223,-0.00000586,-0.00001951,0.00015125,0.00015856,0.00045117,0.00
 058680,-0.00265691,-0.00117756,-0.00083857,0.00085003,0.00017727,0.007
 04919,0.00195742,-0.00516299,0.02885024,0.00565591,0.00685671,-0.04902
 762,-0.00915122,-0.05831769,-0.00062217,-0.00068810,0.00110506,-0.0009
 4397,0.00062261,0.00084947,0.05026981,0.00990728,0.06111833,0.00004427
 ,-0.00001639,-0.00005318,-0.00004929,0.00004181,0.00008587,0.00000176,
 -0.00003726,-0.00000701,-0.00001844,-0.00000152,-0.00000258,0.00011152
 ,0.00002726,0.00009772,-0.00033229,-0.00157522,-0.00017467,-0.00033829
 ,0.00050008,0.00004029,0.00297462,0.00089733,-0.00111180,0.00422857,-0
 .01448213,0.01515943,-0.08525447,0.07312525,-0.06105795,0.00046654,-0.
 00000673,-0.00110468,-0.00151643,-0.00006094,0.00330123,-0.01081570,0.
 02500086,-0.01970663,0.08962500,0.00002104,0.00002219,-0.00008061,-0.0
 0002340,0.00001353,0.00009941,-0.00005701,-0.00001850,0.00000200,-0.00
 000537,-0.00000493,0.00001794,-0.00010267,0.00004415,-0.00013098,0.000
 44868,-0.00106007,0.00034038,-0.00081665,0.00023917,0.00032144,-0.0006
 7002,-0.00006314,-0.00067117,0.00061384,0.00108273,-0.00106957,0.07251
 278,-0.19607238,0.11730089,-0.00062594,0.00061494,-0.00000034,0.000447
 79,0.00109821,-0.00046427,-0.00341620,0.00468750,-0.00502895,-0.080163
 07,0.20901593,-0.00002884,-0.00002952,0.00002872,0.00006347,0.00006370
 ,-0.00005746,0.00005723,-0.00002517,0.00001444,-0.00000446,0.00000319,
 0.00000526,0.00004710,0.00007727,-0.00012040,-0.00011030,0.00033210,0.
 00004396,0.00003448,-0.00030821,0.00014786,-0.00153576,-0.00141468,0.0
 0296776,-0.01162141,0.02483891,-0.02257432,-0.05768288,0.11543457,-0.1
 4398912,-0.00045700,-0.00027501,0.00098226,0.00359548,-0.00107514,-0.0
 0401679,-0.00128530,0.00387114,-0.00318920,0.06246393,-0.12951672,0.15
 975592,0.00001053,-0.00005690,-0.00003494,0.00001776,0.00009072,0.0000
 4203,0.00010318,-0.00006100,-0.00000369,-0.00003600,0.00000617,-0.0000
 0708,0.00017705,-0.00003599,0.00024672,-0.00202204,0.00040399,0.000585
 00,0.00025331,-0.00072921,-0.00005827,0.00156501,0.00018882,-0.0017445
 6,0.00032966,0.01727471,0.01202650,-0.05150520,-0.01947248,-0.01246183
 ,-0.00097911,-0.00041561,0.00327285,0.00016980,-0.00030816,-0.00113286
 ,-0.00187534,-0.03027671,-0.01578875,0.00087262,0.01183621,0.00646428,
 0.05291877,0.00000892,-0.00002366,0.00002979,-0.00001575,-0.00001741,-
 0.00003257,-0.00004334,0.00003225,0.00001263,0.00000177,-0.00000198,-0
 .00000657,0.00009737,0.00003218,-0.00007062,0.00010167,0.00005324,-0.0
 0049426,-0.00065264,-0.00071391,0.00097431,0.00116285,0.00024451,-0.00
 002355,-0.00096182,0.00239673,0.00188863,-0.01870575,-0.26993430,-0.11
 445192,-0.00064652,0.00127221,0.00107367,0.00038924,0.00053073,-0.0001
 1087,0.00095790,-0.00450769,-0.00165358,-0.00324933,-0.01959933,-0.011
 97641,0.02155544,0.29023641,0.00000822,0.00001260,0.00000549,-0.000023
 41,-0.00003425,-0.00002913,-0.00015503,0.00004858,-0.00000849,0.000013
 48,-0.00001600,0.00002538,-0.00006620,0.00021327,-0.00029232,0.0022194
 0,-0.00220504,-0.00015342,-0.00171123,0.00093359,0.00049728,-0.0006506
 8,0.00204861,0.00241790,-0.00301048,-0.03055862,-0.01800816,-0.0100744
 3,-0.11057346,-0.10796138,0.00335220,0.00124585,-0.00427768,-0.0005151
 5,-0.00011016,0.00104780,-0.00005134,-0.00472685,-0.00264784,0.0020700
 5,0.01888055,0.01000111,0.00859461,0.12484134,0.11938346\\-0.01309669,
 -0.03080788,-0.00633159,0.01547879,0.00611308,0.00344157,-0.01878282,0
 .03241376,0.00144622,0.00103551,-0.00021332,0.00011682,0.01893209,-0.0
 0699020,0.00190545,-0.05083106,0.01547102,-0.00548322,0.03213097,-0.03
 871378,-0.00052554,-0.00241010,0.01568517,0.00186548,0.01484619,0.0077
 7273,0.00471981,0.00030386,0.00009743,-0.00010576,0.00018197,0.0006983
 3,0.00046938,0.00079086,-0.00122116,0.00082817,0.00149752,0.00012598,-
 0.00030541,-0.00038670,0.00078961,-0.00087606,0.00030961,-0.00122077,-
 0.00116530\\\@


 EDUCATION IS NOT TRAINING BUT RATHER THE PROCESS THAT EQUIPS YOU TO
 ENTERTAIN YOURSELF, A FRIEND, OR AN IDEA.  -- WALLACE STERLING
 Job cpu time:       0 days  0 hours 18 minutes 47.1 seconds.
 Elapsed time:       0 days  0 hours  0 minutes 47.0 seconds.
 File lengths (MBytes):  RWF=     59 Int=      0 D2E=      0 Chk=      8 Scr=      1
 Normal termination of Gaussian 16 at Fri Jun 20 14:17:41 2025.
