 Entering Gaussian System, Link 0=g16
 Initial command:
 /opt/g16/l1.exe "/home/aayush/scratches/g16/Gau-5693.inp" -scrdir="/home/aayush/scratches/g16/"
 Entering Link 1 = /opt/g16/l1.exe PID=      5696.
  
 Copyright (c) 1988,1990,1992,1993,1995,1998,2003,2009,2016,
            Gaussian, Inc.  All Rights Reserved.
  
 This is part of the Gaussian(R) 16 program.  It is based on
 the Gaussian(R) 09 system (copyright 2009, Gaussian, Inc.),
 the Gaussian(R) 03 system (copyright 2003, Gaussian, Inc.),
 the Gaussian(R) 98 system (copyright 1998, Gaussian, Inc.),
 the Gaussian(R) 94 system (copyright 1995, Gaussian, Inc.),
 the Gaussian 92(TM) system (copyright 1992, Gaussian, Inc.),
 the Gaussian 90(TM) system (copyright 1990, Gaussian, Inc.),
 the Gaussian 88(TM) system (copyright 1988, Gaussian, Inc.),
 the Gaussian 86(TM) system (copyright 1986, Carnegie Mellon
 University), and the Gaussian 82(TM) system (copyright 1983,
 Carnegie Mellon University). Gaussian is a federally registered
 trademark of Gaussian, Inc.
  
 This software contains proprietary and confidential information,
 including trade secrets, belonging to Gaussian, Inc.
  
 This software is provided under written license and may be
 used, copied, transmitted, or stored only in accord with that
 written license.
  
 The following legend is applicable only to US Government
 contracts under FAR:
  
                    RESTRICTED RIGHTS LEGEND
  
 Use, reproduction and disclosure by the US Government is
 subject to restrictions as set forth in subparagraphs (a)
 and (c) of the Commercial Computer Software - Restricted
 Rights clause in FAR 52.227-19.
  
 Gaussian, Inc.
 340 Quinnipiac St., Bldg. 40, Wallingford CT 06492
  
  
 ---------------------------------------------------------------
 Warning -- This program may not be used in any manner that
 competes with the business of Gaussian, Inc. or will provide
 assistance to any competitor of Gaussian, Inc.  The licensee
 of this program is prohibited from giving any competitor of
 Gaussian, Inc. access to this program.  By using this program,
 the user acknowledges that Gaussian, Inc. is engaged in the
 business of creating and licensing software in the field of
 computational chemistry and represents and warrants to the
 licensee that it is not a competitor of Gaussian, Inc. and that
 it will not use this program in any manner prohibited above.
 ---------------------------------------------------------------
  

 Cite this work as:
 Gaussian 16, Revision A.03,
 M. J. Frisch, G. W. Trucks, H. B. Schlegel, G. E. Scuseria, 
 M. A. Robb, J. R. Cheeseman, G. Scalmani, V. Barone, 
 G. A. Petersson, H. Nakatsuji, X. Li, M. Caricato, A. V. Marenich, 
 J. Bloino, B. G. Janesko, R. Gomperts, B. Mennucci, H. P. Hratchian, 
 J. V. Ortiz, A. F. Izmaylov, J. L. Sonnenberg, D. Williams-Young, 
 F. Ding, F. Lipparini, F. Egidi, J. Goings, B. Peng, A. Petrone, 
 T. Henderson, D. Ranasinghe, V. G. Zakrzewski, J. Gao, N. Rega, 
 G. Zheng, W. Liang, M. Hada, M. Ehara, K. Toyota, R. Fukuda, 
 J. Hasegawa, M. Ishida, T. Nakajima, Y. Honda, O. Kitao, H. Nakai, 
 T. Vreven, K. Throssell, J. A. Montgomery, Jr., J. E. Peralta, 
 F. Ogliaro, M. J. Bearpark, J. J. Heyd, E. N. Brothers, K. N. Kudin, 
 V. N. Staroverov, T. A. Keith, R. Kobayashi, J. Normand, 
 K. Raghavachari, A. P. Rendell, J. C. Burant, S. S. Iyengar, 
 J. Tomasi, M. Cossi, J. M. Millam, M. Klene, C. Adamo, R. Cammi, 
 J. W. Ochterski, R. L. Martin, K. Morokuma, O. Farkas, 
 J. B. Foresman, and D. J. Fox, Gaussian, Inc., Wallingford CT, 2016.
 
 ******************************************
 Gaussian 16:  ES64L-G16RevA.03 25-Dec-2016
                27-Aug-2025 
 ******************************************
 %chk=ethyl_propiolate.chk
 %nprocshared=24
 Will use up to   24 processors via shared memory.
 %mem=12GB
 --------------------------
 # ccsd(t)/6-311++g(d,p) sp
 --------------------------
 1/38=1,172=1/1;
 2/12=2,17=6,18=5,40=1/2;
 3/5=4,6=6,7=1111,11=9,25=1,30=1/1,2,3;
 4//1;
 5/5=2,38=5/2;
 8/6=4,9=120000,10=2/1,4;
 9/5=7,14=2/13;
 6/7=2,8=2,9=2,10=2/1;
 99/5=1,9=1/99;
 -------------------
 Title Card Required
 -------------------
 Symbolic Z-matrix:
 Charge =  0 Multiplicity = 2
 O                     2.72514  -1.52885   0.02407 
 H                     1.7931   -1.73351  -0.16488 
 C                     2.47745   0.65863   0.27688 
 H                     3.52963   0.67768   0.4402 
 C                     1.29058   0.75371   0.10751 
 C                    -0.146     0.74741  -0.10943 
 O                    -0.84596   1.71862  -0.07832 
 O                    -0.56309  -0.50168  -0.35311 
 C                    -1.98144  -0.66683  -0.57183 
 C                    -2.73512  -0.6888    0.7429 
 H                    -2.05893  -1.61625  -1.09858 
 H                    -2.3281    0.13855  -1.22007 
 H                    -3.79169  -0.88773   0.55376 
 H                    -2.34672  -1.47463   1.39242 
 H                    -2.65221   0.27186   1.25138 
 
                          Input orientation:                          
 ---------------------------------------------------------------------
 Center     Atomic      Atomic             Coordinates (Angstroms)
 Number     Number       Type             X           Y           Z
 ---------------------------------------------------------------------
      1          8           0        2.725143   -1.528850    0.024073
      2          1           0        1.793099   -1.733514   -0.164878
      3          6           0        2.477447    0.658628    0.276878
      4          1           0        3.529627    0.677684    0.440204
      5          6           0        1.290575    0.753711    0.107511
      6          6           0       -0.146000    0.747407   -0.109431
      7          8           0       -0.845959    1.718620   -0.078320
      8          8           0       -0.563088   -0.501680   -0.353106
      9          6           0       -1.981444   -0.666833   -0.571833
     10          6           0       -2.735117   -0.688802    0.742901
     11          1           0       -2.058932   -1.616248   -1.098579
     12          1           0       -2.328102    0.138550   -1.220068
     13          1           0       -3.791687   -0.887732    0.553764
     14          1           0       -2.346722   -1.474629    1.392424
     15          1           0       -2.652205    0.271861    1.251379
 ---------------------------------------------------------------------
                    Distance matrix (angstroms):
                    1          2          3          4          5
     1  O    0.000000
     2  H    0.972777   0.000000
     3  C    2.215925   2.527019   0.000000
     4  H    2.385194   3.032413   1.064951   0.000000
     5  C    2.697227   2.552061   1.202660   2.264910   0.000000
     6  C    3.666419   3.149309   2.653223   3.717149   1.452877
     7  O    4.827972   4.346188   3.506391   4.527490   2.351672
     8  O    3.465517   2.665420   3.314822   4.332500   2.285660
     9  C    4.821840   3.943424   4.728516   5.762278   3.631193
    10  C    5.571071   4.735000   5.404033   6.419184   4.323281
    11  H    4.914810   3.965311   5.257916   6.233937   4.276746
    12  H    5.464741   4.647833   5.060102   6.112296   3.903295
    13  H    6.569679   5.693999   6.462967   7.487661   5.359372
    14  H    5.253488   4.430613   5.391459   6.330138   4.454933
    15  H    5.802130   5.078193   5.235702   6.248019   4.133537
                    6          7          8          9         10
     6  C    0.000000
     7  O    1.197566   0.000000
     8  O    1.339238   2.255051   0.000000
     9  C    2.362783   2.687614   1.444594   0.000000
    10  C    3.081021   3.168439   2.440073   1.515596   0.000000
    11  H    3.197591   3.692367   2.008866   1.088510   2.169892
    12  H    2.523052   2.448869   2.068041   1.090423   2.168737
    13  H    4.050252   3.983706   3.375693   2.143069   1.091644
    14  H    3.469321   3.822593   2.678592   2.155056   1.090988
    15  H    2.891195   2.669033   2.745387   2.157584   1.090091
                   11         12         13         14         15
    11  H    0.000000
    12  H    1.779474   0.000000
    13  H    2.502681   2.518296   0.000000
    14  H    2.511568   3.070474   1.770797   0.000000
    15  H    3.072333   2.496170   1.769108   1.778606   0.000000
 Stoichiometry    C5H7O3(2)
 Framework group  C1[X(C5H7O3)]
 Deg. of freedom    39
 Full point group                 C1      NOp   1
 Largest Abelian subgroup         C1      NOp   1
 Largest concise Abelian subgroup C1      NOp   1
                         Standard orientation:                         
 ---------------------------------------------------------------------
 Center     Atomic      Atomic             Coordinates (Angstroms)
 Number     Number       Type             X           Y           Z
 ---------------------------------------------------------------------
      1          8           0        2.791207   -1.486912    0.024439
      2          1           0        1.859466   -1.694219   -0.163120
      3          6           0        2.540232    0.701813    0.262805
      4          1           0        3.592387    0.723527    0.425960
      5          6           0        1.353214    0.793992    0.092860
      6          6           0       -0.083357    0.784098   -0.123979
      7          8           0       -0.784773    1.754443   -0.099253
      8          8           0       -0.498575   -0.467196   -0.359384
      9          6           0       -1.916688   -0.635919   -0.576960
     10          6           0       -2.670288   -0.650339    0.737920
     11          1           0       -1.992765   -1.588907   -1.097423
     12          1           0       -2.264574    0.164644   -1.230485
     13          1           0       -3.726564   -0.852100    0.550142
     14          1           0       -2.280694   -1.431276    1.392602
     15          1           0       -2.588804    0.313784    1.240040
 ---------------------------------------------------------------------
 Rotational constants (GHZ):           3.4150780           1.1495903           0.9249684
 Standard basis: 6-311++G(d,p) (5D, 7F)
 There are   233 symmetry adapted cartesian basis functions of A   symmetry.
 There are   225 symmetry adapted basis functions of A   symmetry.
   225 basis functions,   351 primitive gaussians,   233 cartesian basis functions
    31 alpha electrons       30 beta electrons
       nuclear repulsion energy       349.9406721982 Hartrees.
 NAtoms=   15 NActive=   15 NUniq=   15 SFac= 1.00D+00 NAtFMM=   60 NAOKFM=F Big=F
 Integral buffers will be    131072 words long.
 Raffenetti 2 integral format.
 Two-electron integral symmetry is turned on.
 One-electron integrals computed using PRISM.
 NBasis=   225 RedAO= T EigKep=  7.81D-06  NBF=   225
 NBsUse=   224 1.00D-06 EigRej=  9.86D-07 NBFU=   224
 ExpMin= 3.60D-02 ExpMax= 8.59D+03 ExpMxC= 1.30D+03 IAcc=3 IRadAn=         5 AccDes= 0.00D+00
 Harris functional with IExCor=  205 and IRadAn=       5 diagonalized for initial guess.
 HarFok:  IExCor=  205 AccDes= 0.00D+00 IRadAn=         5 IDoV= 1 UseB2=F ITyADJ=14
 ICtDFT=  3500011 ScaDFX=  1.000000  1.000000  1.000000  1.000000
 FoFCou: FMM=F IPFlag=           0 FMFlag=      100000 FMFlg1=           0
         NFxFlg=           0 DoJE=T BraDBF=F KetDBF=T FulRan=T
         wScrn=  0.000000 ICntrl=       500 IOpCl=  0 I1Cent=   200000004 NGrid=           0
         NMat0=    1 NMatS0=      1 NMatT0=    0 NMatD0=    1 NMtDS0=    0 NMtDT0=    0
 Petite list used in FoFCou.
 Initial guess <Sx>= 0.0000 <Sy>= 0.0000 <Sz>= 0.5000 <S**2>= 0.7500 S= 0.5000
 Requested convergence on RMS density matrix=1.00D-08 within 128 cycles.
 Requested convergence on MAX density matrix=1.00D-06.
 Requested convergence on             energy=1.00D-06.
 No special actions if energy rises.
 Initial convergence to 1.0D-05 achieved.  Increase integral accuracy.
 SCF Done:  E(UHF) =  -417.990800514     A.U. after   32 cycles
            NFock= 32  Conv=0.71D-08     -V/T= 2.0006
 <Sx>= 0.0000 <Sy>= 0.0000 <Sz>= 0.5000 <S**2>= 0.8637 S= 0.5553
 <L.S>=  0.00000000000    
 Annihilation of the first spin contaminant:
 S**2 before annihilation     0.8637,   after     0.7585
 ExpMin= 3.60D-02 ExpMax= 8.59D+03 ExpMxC= 1.30D+03 IAcc=3 IRadAn=         5 AccDes= 0.00D+00
 HarFok:  IExCor=  205 AccDes= 0.00D+00 IRadAn=         5 IDoV=-2 UseB2=F ITyADJ=14
 ICtDFT= 12500011 ScaDFX=  1.000000  1.000000  1.000000  1.000000
 Range of M.O.s used for correlation:     9   224
 NBasis=   225 NAE=    31 NBE=    30 NFC=     8 NFV=     0
 NROrb=    216 NOA=    23 NOB=    22 NVA=   193 NVB=   194

 **** Warning!!: The largest alpha MO coefficient is  0.91708243D+02


 **** Warning!!: The largest beta MO coefficient is  0.84143612D+02

 Semi-Direct transformation.
 ModeAB=           4 MOrb=            23 LenV=    1609186841
 LASXX=    107793295 LTotXX=   107793295 LenRXX=   218294035
 LTotAB=   110500740 MaxLAS=   126256752 LenRXY=           0
 NonZer=   326087330 LenScr=   491049984 LnRSAI=   126256752
 LnScr1=   190140416 LExtra=           0 Total=   1025741187
 MaxDsk=          -1 SrtSym=           T ITran=            4
 JobTyp=1 Pass  1:  I=   1 to  23.
 (rs|ai) integrals will be sorted in core.
 ModeAB=           4 MOrb=            22 LenV=    1609186841
 LASXX=    103454307 LTotXX=   103454307 LenRXX=   188091948
 LTotAB=    84637641 MaxLAS=   120767328 LenRXY=           0
 NonZer=   291546255 LenScr=   439034880 LnRSAI=   120767328
 LnScr1=   181926400 LExtra=           0 Total=    929820556
 MaxDsk=          -1 SrtSym=           T ITran=            4
 JobTyp=2 Pass  1:  I=   1 to  22.
 (rs|ai) integrals will be sorted in core.
 SymMOI:  orbitals are not symmetric.
 Spin components of T(2) and E(2):
     alpha-alpha T2 =       0.5163101099D-01 E2=     -0.1686295078D+00
     alpha-beta  T2 =       0.2851789864D+00 E2=     -0.9336557737D+00
     beta-beta   T2 =       0.5033117211D-01 E2=     -0.1564807462D+00
 ANorm=    0.1177769574D+01
 E2 =    -0.1258766028D+01 EUMP2 =    -0.41924956654144D+03
 (S**2,0)=  0.86369D+00           (S**2,1)=  0.83047D+00
 E(PUHF)=      -0.41800097958D+03        E(PMP2)=      -0.41925832078D+03
 Keep R2 and R3 ints in memory in canonical form, NReq=652883968.
 CIDS: In Core Option IDoMem=           1.
 Iterations=  50 Convergence= 0.100D-06
 Produce multiple copies of IABC intergrals
 Iteration Nr.   1
 **********************
 DD1Dir will call FoFMem   1 times, MxPair=      1496
 NAB=   506 NAA=   253 NBB=   231.
 E(PMP3)=      -0.41928386719D+03
 MP4(R+Q)=  0.24979825D-01
 E3=       -0.27982043D-01        EUMP3=      -0.41927754858D+03
 E4(DQ)=   -0.56443299D-02        UMP4(DQ)=   -0.41928319291D+03
 E4(SDQ)=  -0.24917715D-01        UMP4(SDQ)=  -0.41930246630D+03
 DE(Corr)=  -1.2612652     E(Corr)=     -419.25206568    
 NORM(A)=   0.11849190D+01
 Iteration Nr.   2
 **********************
 DD1Dir will call FoFMem   1 times, MxPair=      1496
 NAB=   506 NAA=   253 NBB=   231.
 DE(Corr)=  -1.3035640     E(CORR)=     -419.29436451     Delta=-4.23D-02
 NORM(A)=   0.12039687D+01
 Iteration Nr.   3
 **********************
 DD1Dir will call FoFMem   1 times, MxPair=      1496
 NAB=   506 NAA=   253 NBB=   231.
 DE(Corr)=  -1.3056677     E(CORR)=     -419.29646826     Delta=-2.10D-03
 NORM(A)=   0.12123640D+01
 Iteration Nr.   4
 **********************
 DD1Dir will call FoFMem   1 times, MxPair=      1496
 NAB=   506 NAA=   253 NBB=   231.
 DE(Corr)=  -1.3114342     E(CORR)=     -419.30223475     Delta=-5.77D-03
 NORM(A)=   0.12170311D+01
 Iteration Nr.   5
 **********************
 DD1Dir will call FoFMem   1 times, MxPair=      1496
 NAB=   506 NAA=   253 NBB=   231.
 DE(Corr)=  -1.3127598     E(CORR)=     -419.30356034     Delta=-1.33D-03
 NORM(A)=   0.12195984D+01
 Iteration Nr.   6
 **********************
 DD1Dir will call FoFMem   1 times, MxPair=      1496
 NAB=   506 NAA=   253 NBB=   231.
 DE(Corr)=  -1.3131731     E(CORR)=     -419.30397356     Delta=-4.13D-04
 NORM(A)=   0.12200701D+01
 Iteration Nr.   7
 **********************
 DD1Dir will call FoFMem   1 times, MxPair=      1496
 NAB=   506 NAA=   253 NBB=   231.
 DE(Corr)=  -1.3132421     E(CORR)=     -419.30404260     Delta=-6.90D-05
 NORM(A)=   0.12201723D+01
 Iteration Nr.   8
 **********************
 DD1Dir will call FoFMem   1 times, MxPair=      1496
 NAB=   506 NAA=   253 NBB=   231.
 DE(Corr)=  -1.3132291     E(CORR)=     -419.30402963     Delta= 1.30D-05
 NORM(A)=   0.12202007D+01
 Iteration Nr.   9
 **********************
 DD1Dir will call FoFMem   1 times, MxPair=      1496
 NAB=   506 NAA=   253 NBB=   231.
 DE(Corr)=  -1.3132372     E(CORR)=     -419.30403769     Delta=-8.06D-06
 NORM(A)=   0.12202026D+01
 Iteration Nr.  10
 **********************
 DD1Dir will call FoFMem   1 times, MxPair=      1496
 NAB=   506 NAA=   253 NBB=   231.
 DE(Corr)=  -1.3132386     E(CORR)=     -419.30403907     Delta=-1.38D-06
 NORM(A)=   0.12202066D+01
 Iteration Nr.  11
 **********************
 DD1Dir will call FoFMem   1 times, MxPair=      1496
 NAB=   506 NAA=   253 NBB=   231.
 DE(Corr)=  -1.3132446     E(CORR)=     -419.30404516     Delta=-6.08D-06
 NORM(A)=   0.12202158D+01
 Iteration Nr.  12
 **********************
 DD1Dir will call FoFMem   1 times, MxPair=      1496
 NAB=   506 NAA=   253 NBB=   231.
 DE(Corr)=  -1.3132477     E(CORR)=     -419.30404818     Delta=-3.02D-06
 NORM(A)=   0.12202255D+01
 Iteration Nr.  13
 **********************
 DD1Dir will call FoFMem   1 times, MxPair=      1496
 NAB=   506 NAA=   253 NBB=   231.
 DE(Corr)=  -1.3132503     E(CORR)=     -419.30405080     Delta=-2.62D-06
 NORM(A)=   0.12202339D+01
 Iteration Nr.  14
 **********************
 DD1Dir will call FoFMem   1 times, MxPair=      1496
 NAB=   506 NAA=   253 NBB=   231.
 DE(Corr)=  -1.3132523     E(CORR)=     -419.30405279     Delta=-1.99D-06
 NORM(A)=   0.12202395D+01
 Iteration Nr.  15
 **********************
 DD1Dir will call FoFMem   1 times, MxPair=      1496
 NAB=   506 NAA=   253 NBB=   231.
 DE(Corr)=  -1.3132531     E(CORR)=     -419.30405365     Delta=-8.66D-07
 NORM(A)=   0.12202427D+01
 Iteration Nr.  16
 **********************
 DD1Dir will call FoFMem   1 times, MxPair=      1496
 NAB=   506 NAA=   253 NBB=   231.
 DE(Corr)=  -1.3132538     E(CORR)=     -419.30405432     Delta=-6.65D-07
 NORM(A)=   0.12202442D+01
 Iteration Nr.  17
 **********************
 DD1Dir will call FoFMem   1 times, MxPair=      1496
 NAB=   506 NAA=   253 NBB=   231.
 DE(Corr)=  -1.3132541     E(CORR)=     -419.30405458     Delta=-2.57D-07
 NORM(A)=   0.12202446D+01
 Iteration Nr.  18
 **********************
 DD1Dir will call FoFMem   1 times, MxPair=      1496
 NAB=   506 NAA=   253 NBB=   231.
 DE(Corr)=  -1.3132541     E(CORR)=     -419.30405465     Delta=-7.24D-08
 NORM(A)=   0.12202448D+01
 Wavefunction amplitudes converged. E(Corr)=     -419.30405465    
 Largest amplitude= 6.39D-02
 Time for triples=    37032.76 seconds.
 T4(CCSD)= -0.56251969D-01
 T5(CCSD)=  0.35705312D-02
 CCSD(T)= -0.41935673609D+03

 S**2, projected HF & approx projected MPn energies after annihilation of
 unwanted spin states (see manual for definitions):

 spins       (S**2,0) (S**2,1)    PUHF        PMP2        PMP3        PMP4
 annihilated
 s+1         0.74500  0.74828 -418.000980 -419.258321 -419.283867
 s+1,s+2     0.75005  0.74999 -418.000577 -419.257943 -419.283520
 s+1 to s+3  0.75000  0.75000 -418.000582 -419.257946 -419.283521
 s+1 to s+4  0.75000  0.75000 -418.000582 -419.257946 -419.283521
 s+1 to s+5  0.75000  0.75000 -418.000582
 s+1 to s+6  0.75000  0.75000 -418.000582

 Discarding MO integrals.

 **********************************************************************

            Population analysis using the SCF density.

 **********************************************************************

 Orbital symmetries:
 Alpha Orbitals:
       Occupied  (A) (A) (A) (A) (A) (A) (A) (A) (A) (A) (A) (A)
                 (A) (A) (A) (A) (A) (A) (A) (A) (A) (A) (A) (A)
                 (A) (A) (A) (A) (A) (A) (A)
       Virtual   (A) (A) (A) (A) (A) (A) (A) (A) (A) (A) (A) (A)
                 (A) (A) (A) (A) (A) (A) (A) (A) (A) (A) (A) (A)
                 (A) (A) (A) (A) (A) (A) (A) (A) (A) (A) (A) (A)
                 (A) (A) (A) (A) (A) (A) (A) (A) (A) (A) (A) (A)
                 (A) (A) (A) (A) (A) (A) (A) (A) (A) (A) (A) (A)
                 (A) (A) (A) (A) (A) (A) (A) (A) (A) (A) (A) (A)
                 (A) (A) (A) (A) (A) (A) (A) (A) (A) (A) (A) (A)
                 (A) (A) (A) (A) (A) (A) (A) (A) (A) (A) (A) (A)
                 (A) (A) (A) (A) (A) (A) (A) (A) (A) (A) (A) (A)
                 (A) (A) (A) (A) (A) (A) (A) (A) (A) (A) (A) (A)
                 (A) (A) (A) (A) (A) (A) (A) (A) (A) (A) (A) (A)
                 (A) (A) (A) (A) (A) (A) (A) (A) (A) (A) (A) (A)
                 (A) (A) (A) (A) (A) (A) (A) (A) (A) (A) (A) (A)
                 (A) (A) (A) (A) (A) (A) (A) (A) (A) (A) (A) (A)
                 (A) (A) (A) (A) (A) (A) (A) (A) (A) (A) (A) (A)
                 (A) (A) (A) (A) (A) (A) (A) (A) (A) (A) (A) (A)
                 (A)
 Beta  Orbitals:
       Occupied  (A) (A) (A) (A) (A) (A) (A) (A) (A) (A) (A) (A)
                 (A) (A) (A) (A) (A) (A) (A) (A) (A) (A) (A) (A)
                 (A) (A) (A) (A) (A) (A)
       Virtual   (A) (A) (A) (A) (A) (A) (A) (A) (A) (A) (A) (A)
                 (A) (A) (A) (A) (A) (A) (A) (A) (A) (A) (A) (A)
                 (A) (A) (A) (A) (A) (A) (A) (A) (A) (A) (A) (A)
                 (A) (A) (A) (A) (A) (A) (A) (A) (A) (A) (A) (A)
                 (A) (A) (A) (A) (A) (A) (A) (A) (A) (A) (A) (A)
                 (A) (A) (A) (A) (A) (A) (A) (A) (A) (A) (A) (A)
                 (A) (A) (A) (A) (A) (A) (A) (A) (A) (A) (A) (A)
                 (A) (A) (A) (A) (A) (A) (A) (A) (A) (A) (A) (A)
                 (A) (A) (A) (A) (A) (A) (A) (A) (A) (A) (A) (A)
                 (A) (A) (A) (A) (A) (A) (A) (A) (A) (A) (A) (A)
                 (A) (A) (A) (A) (A) (A) (A) (A) (A) (A) (A) (A)
                 (A) (A) (A) (A) (A) (A) (A) (A) (A) (A) (A) (A)
                 (A) (A) (A) (A) (A) (A) (A) (A) (A) (A) (A) (A)
                 (A) (A) (A) (A) (A) (A) (A) (A) (A) (A) (A) (A)
                 (A) (A) (A) (A) (A) (A) (A) (A) (A) (A) (A) (A)
                 (A) (A) (A) (A) (A) (A) (A) (A) (A) (A) (A) (A)
                 (A) (A)
 The electronic state is 2-A.
 Alpha  occ. eigenvalues --  -20.62434 -20.62297 -20.57093 -11.42145 -11.30592
 Alpha  occ. eigenvalues --  -11.26798 -11.26255 -11.23293  -1.49131  -1.39298
 Alpha  occ. eigenvalues --   -1.37896  -1.09150  -1.04554  -0.92950  -0.84509
 Alpha  occ. eigenvalues --   -0.77377  -0.73660  -0.70677  -0.67462  -0.66830
 Alpha  occ. eigenvalues --   -0.64938  -0.64192  -0.59462  -0.56232  -0.55101
 Alpha  occ. eigenvalues --   -0.54975  -0.51520  -0.49296  -0.47994  -0.43042
 Alpha  occ. eigenvalues --   -0.42169
 Alpha virt. eigenvalues --    0.03688   0.04757   0.05484   0.05991   0.07477
 Alpha virt. eigenvalues --    0.08734   0.08969   0.09214   0.11527   0.12381
 Alpha virt. eigenvalues --    0.12742   0.13547   0.14671   0.15212   0.16898
 Alpha virt. eigenvalues --    0.17510   0.17836   0.18097   0.18677   0.19086
 Alpha virt. eigenvalues --    0.19782   0.20977   0.22376   0.22736   0.23346
 Alpha virt. eigenvalues --    0.24883   0.25782   0.26503   0.27205   0.28893
 Alpha virt. eigenvalues --    0.29494   0.30872   0.31781   0.33455   0.33990
 Alpha virt. eigenvalues --    0.34762   0.35929   0.37040   0.37433   0.38266
 Alpha virt. eigenvalues --    0.39309   0.39474   0.41397   0.42801   0.43741
 Alpha virt. eigenvalues --    0.44450   0.45514   0.46640   0.47834   0.50734
 Alpha virt. eigenvalues --    0.56456   0.57480   0.57962   0.60439   0.62262
 Alpha virt. eigenvalues --    0.63436   0.68809   0.70412   0.71600   0.75386
 Alpha virt. eigenvalues --    0.77681   0.78882   0.80878   0.82630   0.83455
 Alpha virt. eigenvalues --    0.85366   0.86108   0.87510   0.88778   0.89349
 Alpha virt. eigenvalues --    0.90513   0.92408   0.93603   0.97277   1.00573
 Alpha virt. eigenvalues --    1.07342   1.09338   1.13331   1.18329   1.20714
 Alpha virt. eigenvalues --    1.23812   1.24847   1.27259   1.30345   1.31974
 Alpha virt. eigenvalues --    1.34009   1.35142   1.38030   1.39236   1.40472
 Alpha virt. eigenvalues --    1.42164   1.43881   1.48614   1.52338   1.53983
 Alpha virt. eigenvalues --    1.55675   1.57293   1.60210   1.62024   1.65820
 Alpha virt. eigenvalues --    1.69389   1.71040   1.72410   1.73598   1.79776
 Alpha virt. eigenvalues --    1.81011   1.82679   1.83616   1.87294   1.89421
 Alpha virt. eigenvalues --    1.90778   1.93625   1.96108   1.98534   2.03589
 Alpha virt. eigenvalues --    2.05643   2.08107   2.09633   2.11694   2.15457
 Alpha virt. eigenvalues --    2.20564   2.24947   2.30030   2.34314   2.35761
 Alpha virt. eigenvalues --    2.38065   2.40571   2.47988   2.59510   2.63501
 Alpha virt. eigenvalues --    2.70810   2.76985   2.81996   2.83765   2.85091
 Alpha virt. eigenvalues --    2.88536   2.91556   2.92143   2.94547   2.95279
 Alpha virt. eigenvalues --    2.95621   3.01983   3.03583   3.05699   3.09151
 Alpha virt. eigenvalues --    3.11150   3.15254   3.19340   3.22487   3.23441
 Alpha virt. eigenvalues --    3.27331   3.29552   3.32546   3.36491   3.39382
 Alpha virt. eigenvalues --    3.44861   3.47415   3.48142   3.49329   3.55437
 Alpha virt. eigenvalues --    3.57901   3.64118   3.67245   3.76013   3.78277
 Alpha virt. eigenvalues --    3.91528   4.00340   4.09132   4.20635   4.21927
 Alpha virt. eigenvalues --    4.23759   4.26708   4.39774   4.48441   4.55802
 Alpha virt. eigenvalues --    4.66191   5.47954   5.53862   5.57409   5.61722
 Alpha virt. eigenvalues --    5.75626   5.90642   6.01430   6.19623   6.42019
 Alpha virt. eigenvalues --   24.69955  25.00549  25.01217  25.14061  26.26511
 Alpha virt. eigenvalues --   51.50173  51.59005  51.70587
  Beta  occ. eigenvalues --  -20.62414 -20.58254 -20.56792 -11.42384 -11.30585
  Beta  occ. eigenvalues --  -11.27879 -11.24970 -11.23293  -1.48951  -1.38793
  Beta  occ. eigenvalues --   -1.22793  -1.07917  -1.04576  -0.93366  -0.84402
  Beta  occ. eigenvalues --   -0.77265  -0.73475  -0.70284  -0.67202  -0.64145
  Beta  occ. eigenvalues --   -0.62492  -0.59178  -0.55617  -0.54911  -0.51433
  Beta  occ. eigenvalues --   -0.50435  -0.48674  -0.47295  -0.43463  -0.42718
  Beta virt. eigenvalues --    0.03662   0.04704   0.05445   0.05764   0.07411
  Beta virt. eigenvalues --    0.07718   0.08545   0.08994   0.10650   0.12029
  Beta virt. eigenvalues --    0.12816   0.12984   0.13799   0.14484   0.15128
  Beta virt. eigenvalues --    0.17185   0.17581   0.17838   0.18225   0.18669
  Beta virt. eigenvalues --    0.19127   0.19794   0.20958   0.22391   0.22966
  Beta virt. eigenvalues --    0.23672   0.25116   0.25678   0.26865   0.27683
  Beta virt. eigenvalues --    0.29165   0.29695   0.31348   0.32825   0.33713
  Beta virt. eigenvalues --    0.34710   0.34929   0.36096   0.37431   0.37580
  Beta virt. eigenvalues --    0.38918   0.39512   0.40873   0.41847   0.43130
  Beta virt. eigenvalues --    0.44176   0.44576   0.45736   0.47080   0.48136
  Beta virt. eigenvalues --    0.50911   0.56786   0.57506   0.58296   0.60529
  Beta virt. eigenvalues --    0.62453   0.63559   0.69034   0.70111   0.71430
  Beta virt. eigenvalues --    0.75423   0.77861   0.78221   0.80394   0.82657
  Beta virt. eigenvalues --    0.83960   0.85480   0.86329   0.87547   0.89050
  Beta virt. eigenvalues --    0.89420   0.91480   0.93207   0.94071   0.97331
  Beta virt. eigenvalues --    1.01060   1.07737   1.09431   1.13504   1.18403
  Beta virt. eigenvalues --    1.22371   1.26199   1.27072   1.27646   1.30546
  Beta virt. eigenvalues --    1.32962   1.34660   1.35767   1.38701   1.39971
  Beta virt. eigenvalues --    1.42415   1.42829   1.44369   1.48920   1.54115
  Beta virt. eigenvalues --    1.55054   1.55611   1.57701   1.60115   1.62484
  Beta virt. eigenvalues --    1.65644   1.69871   1.72543   1.73082   1.75566
  Beta virt. eigenvalues --    1.79909   1.81105   1.82679   1.83689   1.87529
  Beta virt. eigenvalues --    1.89827   1.91193   1.93797   1.96204   1.98652
  Beta virt. eigenvalues --    2.04148   2.05818   2.08149   2.09724   2.11775
  Beta virt. eigenvalues --    2.15559   2.20666   2.24997   2.30121   2.34455
  Beta virt. eigenvalues --    2.36470   2.38895   2.40592   2.48003   2.59521
  Beta virt. eigenvalues --    2.63513   2.70789   2.77217   2.81996   2.83778
  Beta virt. eigenvalues --    2.85035   2.88347   2.91598   2.92235   2.94690
  Beta virt. eigenvalues --    2.95283   2.95815   3.02159   3.03463   3.05698
  Beta virt. eigenvalues --    3.09630   3.13811   3.20915   3.23420   3.24212
  Beta virt. eigenvalues --    3.27524   3.30280   3.31468   3.33214   3.36683
  Beta virt. eigenvalues --    3.42492   3.45104   3.48132   3.50076   3.52828
  Beta virt. eigenvalues --    3.57886   3.59580   3.64417   3.67394   3.76234
  Beta virt. eigenvalues --    3.78679   3.91371   4.00499   4.09396   4.20643
  Beta virt. eigenvalues --    4.21929   4.26296   4.27630   4.39829   4.48607
  Beta virt. eigenvalues --    4.55914   4.66205   5.50439   5.57461   5.62461
  Beta virt. eigenvalues --    5.66669   5.75848   5.90701   6.03993   6.19730
  Beta virt. eigenvalues --    6.42098  24.70111  25.00385  25.01200  25.14061
  Beta virt. eigenvalues --   26.26523  51.52464  51.59064  51.70756
          Condensed to atoms (all electrons):
               1          2          3          4          5          6
     1  O    8.038927   0.290453   0.024690  -0.007541  -0.161958   0.058834
     2  H    0.290453   0.438694  -0.021466  -0.001250   0.057374  -0.028164
     3  C    0.024690  -0.021466   5.768145   0.442031  -0.503603   0.988695
     4  H   -0.007541  -0.001250   0.442031   0.394242  -0.062752   0.016197
     5  C   -0.161958   0.057374  -0.503603  -0.062752   8.582988  -2.730521
     6  C    0.058834  -0.028164   0.988695   0.016197  -2.730521   7.953173
     7  O   -0.001143   0.000912  -0.067092  -0.002002   0.123354   0.318829
     8  O    0.004516   0.005703  -0.078709  -0.005381  -0.179210   0.096009
     9  C    0.002616  -0.001362   0.045336   0.001403  -0.228871   0.040973
    10  C   -0.001768   0.000363  -0.021940  -0.001392   0.045764  -0.101114
    11  H   -0.000201  -0.000530   0.005288   0.000355  -0.015941   0.010272
    12  H    0.000184  -0.000249   0.000853  -0.000197  -0.020039   0.012428
    13  H   -0.000049   0.000026  -0.001350  -0.000038   0.005864  -0.005753
    14  H    0.000189  -0.000657   0.001015   0.000056  -0.003239   0.000452
    15  H    0.000137  -0.000017   0.006093   0.000116  -0.033659   0.018398
               7          8          9         10         11         12
     1  O   -0.001143   0.004516   0.002616  -0.001768  -0.000201   0.000184
     2  H    0.000912   0.005703  -0.001362   0.000363  -0.000530  -0.000249
     3  C   -0.067092  -0.078709   0.045336  -0.021940   0.005288   0.000853
     4  H   -0.002002  -0.005381   0.001403  -0.001392   0.000355  -0.000197
     5  C    0.123354  -0.179210  -0.228871   0.045764  -0.015941  -0.020039
     6  C    0.318829   0.096009   0.040973  -0.101114   0.010272   0.012428
     7  O    8.047876  -0.109573   0.041312  -0.057609   0.004223  -0.025846
     8  O   -0.109573   8.411766   0.149267  -0.071163  -0.080906  -0.024403
     9  C    0.041312   0.149267   5.405923  -0.071244   0.447320   0.450591
    10  C   -0.057609  -0.071163  -0.071244   5.508314  -0.059100  -0.040867
    11  H    0.004223  -0.080906   0.447320  -0.059100   0.560219  -0.035348
    12  H   -0.025846  -0.024403   0.450591  -0.040867  -0.035348   0.508108
    13  H   -0.001007   0.017131  -0.049277   0.412869  -0.000172  -0.004764
    14  H    0.002531  -0.007536  -0.016890   0.403068  -0.006179   0.000314
    15  H   -0.001574  -0.014285  -0.029603   0.405725   0.008353  -0.002174
              13         14         15
     1  O   -0.000049   0.000189   0.000137
     2  H    0.000026  -0.000657  -0.000017
     3  C   -0.001350   0.001015   0.006093
     4  H   -0.000038   0.000056   0.000116
     5  C    0.005864  -0.003239  -0.033659
     6  C   -0.005753   0.000452   0.018398
     7  O   -0.001007   0.002531  -0.001574
     8  O    0.017131  -0.007536  -0.014285
     9  C   -0.049277  -0.016890  -0.029603
    10  C    0.412869   0.403068   0.405725
    11  H   -0.000172  -0.006179   0.008353
    12  H   -0.004764   0.000314  -0.002174
    13  H    0.555380  -0.031838  -0.033724
    14  H   -0.031838   0.560874  -0.044896
    15  H   -0.033724  -0.044896   0.546676
          Atomic-Atomic Spin Densities.
               1          2          3          4          5          6
     1  O    1.003689  -0.001303   0.025301   0.006517  -0.094990   0.023609
     2  H   -0.001303  -0.037464  -0.005728  -0.001064   0.021362  -0.007130
     3  C    0.025301  -0.005728  -0.610074   0.010580  -0.069688   0.050866
     4  H    0.006517  -0.001064   0.010580   0.039378  -0.010846   0.003712
     5  C   -0.094990   0.021362  -0.069688  -0.010846   0.966752  -0.098726
     6  C    0.023609  -0.007130   0.050866   0.003712  -0.098726  -0.105142
     7  O   -0.000564   0.000265  -0.006670  -0.000255   0.009515  -0.019812
     8  O    0.005574  -0.001550   0.008702   0.000435  -0.063908   0.055879
     9  C    0.002263  -0.002513   0.008952   0.000381  -0.034522   0.013149
    10  C   -0.000531   0.001028  -0.002604  -0.000118   0.010968  -0.000819
    11  H    0.000144  -0.000223   0.000411   0.000015  -0.002314   0.000736
    12  H    0.000040  -0.000035   0.000687   0.000021  -0.004094   0.002645
    13  H   -0.000001   0.000006   0.000080   0.000002  -0.000386   0.000197
    14  H    0.000078  -0.000132   0.000325   0.000016  -0.001858   0.000952
    15  H   -0.000009  -0.000013   0.000139   0.000005  -0.000847   0.000211
               7          8          9         10         11         12
     1  O   -0.000564   0.005574   0.002263  -0.000531   0.000144   0.000040
     2  H    0.000265  -0.001550  -0.002513   0.001028  -0.000223  -0.000035
     3  C   -0.006670   0.008702   0.008952  -0.002604   0.000411   0.000687
     4  H   -0.000255   0.000435   0.000381  -0.000118   0.000015   0.000021
     5  C    0.009515  -0.063908  -0.034522   0.010968  -0.002314  -0.004094
     6  C   -0.019812   0.055879   0.013149  -0.000819   0.000736   0.002645
     7  O    0.082232  -0.001834  -0.004433   0.002037  -0.000252  -0.000141
     8  O   -0.001834  -0.005020   0.001204  -0.002049  -0.000483  -0.000305
     9  C   -0.004433   0.001204   0.014675  -0.005107   0.001838   0.002174
    10  C    0.002037  -0.002049  -0.005107   0.002197  -0.001143  -0.001429
    11  H   -0.000252  -0.000483   0.001838  -0.001143   0.000853   0.000333
    12  H   -0.000141  -0.000305   0.002174  -0.001429   0.000333  -0.000056
    13  H    0.000049   0.000028   0.000529  -0.000354   0.000010  -0.000115
    14  H    0.000019   0.000018   0.001028  -0.000922   0.000085   0.000093
    15  H   -0.000204   0.000124   0.000018   0.000005   0.000152   0.000192
              13         14         15
     1  O   -0.000001   0.000078  -0.000009
     2  H    0.000006  -0.000132  -0.000013
     3  C    0.000080   0.000325   0.000139
     4  H    0.000002   0.000016   0.000005
     5  C   -0.000386  -0.001858  -0.000847
     6  C    0.000197   0.000952   0.000211
     7  O    0.000049   0.000019  -0.000204
     8  O    0.000028   0.000018   0.000124
     9  C    0.000529   0.001028   0.000018
    10  C   -0.000354  -0.000922   0.000005
    11  H    0.000010   0.000085   0.000152
    12  H   -0.000115   0.000093   0.000192
    13  H    0.000214  -0.000109   0.000005
    14  H   -0.000109   0.000304   0.000051
    15  H    0.000005   0.000051   0.000211
 Mulliken charges and spin densities:
               1          2
     1  O   -0.247887   0.969815
     2  H    0.260170  -0.034492
     3  C   -0.587987  -0.588720
     4  H    0.226152   0.048779
     5  C    1.124449   0.626417
     6  C   -0.648707  -0.079674
     7  O   -0.273191   0.059951
     8  O   -0.113226  -0.003186
     9  C   -0.187493  -0.000365
    10  C   -0.349907   0.001159
    11  H    0.162347   0.000162
    12  H    0.181408   0.000010
    13  H    0.136701   0.000154
    14  H    0.142737  -0.000050
    15  H    0.174435   0.000041
 Sum of Mulliken charges =  -0.00000   1.00000
 Mulliken charges and spin densities with hydrogens summed into heavy atoms:
               1          2
     1  O    0.012283   0.935322
     3  C   -0.361835  -0.539941
     5  C    1.124449   0.626417
     6  C   -0.648707  -0.079674
     7  O   -0.273191   0.059951
     8  O   -0.113226  -0.003186
     9  C    0.156261  -0.000193
    10  C    0.103966   0.001304
 Electronic spatial extent (au):  <R**2>=           1237.7160
 Charge=             -0.0000 electrons
 Dipole moment (field-independent basis, Debye):
    X=             -1.2811    Y=             -2.0915    Z=             -0.2849  Tot=              2.4692
 Quadrupole moment (field-independent basis, Debye-Ang):
   XX=            -42.4318   YY=            -52.3683   ZZ=            -47.4567
   XY=              7.7294   XZ=              1.6406   YZ=              1.0648
 Traceless Quadrupole moment (field-independent basis, Debye-Ang):
   XX=              4.9871   YY=             -4.9493   ZZ=             -0.0378
   XY=              7.7294   XZ=              1.6406   YZ=              1.0648
 Octapole moment (field-independent basis, Debye-Ang**2):
  XXX=             -0.5763  YYY=            -25.5405  ZZZ=             -3.6972  XYY=              0.7683
  XXY=             11.7854  XXZ=              1.9404  XZZ=             -4.2433  YZZ=             -1.0058
  YYZ=             -2.4500  XYZ=              1.0406
 Hexadecapole moment (field-independent basis, Debye-Ang**3):
 XXXX=          -1034.8820 YYYY=           -359.5148 ZZZZ=           -112.2402 XXXY=             65.2917
 XXXZ=             30.7798 YYYX=            -17.1084 YYYZ=              5.2077 ZZZX=              2.8017
 ZZZY=             -0.1834 XXYY=           -263.6252 XXZZ=           -213.8475 YYZZ=            -75.8018
 XXYZ=              9.2812 YYXZ=             -1.4708 ZZXY=             -5.2848
 N-N= 3.499406721982D+02 E-N=-1.682691034476D+03  KE= 4.177208366879D+02
 1\1\GINC-AJ\SP\UCCSD(T)-FC\6-311++G(d,p)\C5H7O3(2)\AAYUSH\27-Aug-2025\
 0\\# ccsd(t)/6-311++g(d,p) sp\\Title Card Required\\0,2\O,0,2.725143,-
 1.52885,0.024073\H,0,1.793099,-1.733514,-0.164878\C,0,2.477447,0.65862
 8,0.276878\H,0,3.529627,0.677684,0.440204\C,0,1.290575,0.753711,0.1075
 11\C,0,-0.146,0.747407,-0.109431\O,0,-0.845959,1.71862,-0.07832\O,0,-0
 .563088,-0.50168,-0.353106\C,0,-1.981444,-0.666833,-0.571833\C,0,-2.73
 5117,-0.688802,0.742901\H,0,-2.058932,-1.616248,-1.098579\H,0,-2.32810
 2,0.13855,-1.220068\H,0,-3.791687,-0.887732,0.553764\H,0,-2.346722,-1.
 474629,1.392424\H,0,-2.652205,0.271861,1.251379\\Version=ES64L-G16RevA
 .03\State=2-A\HF=-417.9908005\MP2=-419.2495665\MP3=-419.2775486\MP4D=-
 419.3081727\MP4DQ=-419.2831929\PUHF=-418.0009796\PMP2-0=-419.2583208\P
 MP3-0=-419.2838672\MP4SDQ=-419.3024663\CCSD=-419.3040546\CCSD(T)=-419.
 3567361\S2=0.863695\S2-1=0.830465\S2A=0.758458\RMSD=7.085e-09\PG=C01 [
 X(C5H7O3)]\\@


 IT PROBABLY IS NOT POSSIBLE FOR A SCIENTIST TO INTERROGATE NATURE 
 FROM A WHOLLY DISINTERESTED VIEWPOINT.
 EVEN IF HE HAS NO PARTICULAR AXE TO GRIND, HE IS LIKELY TO HAVE 
 A DISTINCTIVE WAY OF VIEWING NATURE.

                                                   -- JOHN LOSEE
 Job cpu time:       0 days 17 hours 39 minutes 43.8 seconds.
 Elapsed time:       0 days  0 hours 44 minutes 22.8 seconds.
 File lengths (MBytes):  RWF=  44258 Int=      0 D2E=      0 Chk=      7 Scr=      1
 Normal termination of Gaussian 16 at Wed Aug 27 00:50:49 2025.
