 Entering Gaussian System, Link 0=g16
 Initial command:
 /opt/g16/l1.exe "/home/aayush/scratches/g16/Gau-79844.inp" -scrdir="/home/aayush/scratches/g16/"
 Entering Link 1 = /opt/g16/l1.exe PID=     79847.
  
 Copyright (c) 1988,1990,1992,1993,1995,1998,2003,2009,2016,
            Gaussian, Inc.  All Rights Reserved.
  
 This is part of the Gaussian(R) 16 program.  It is based on
 the Gaussian(R) 09 system (copyright 2009, Gaussian, Inc.),
 the Gaussian(R) 03 system (copyright 2003, Gaussian, Inc.),
 the Gaussian(R) 98 system (copyright 1998, Gaussian, Inc.),
 the Gaussian(R) 94 system (copyright 1995, Gaussian, Inc.),
 the Gaussian 92(TM) system (copyright 1992, Gaussian, Inc.),
 the Gaussian 90(TM) system (copyright 1990, Gaussian, Inc.),
 the Gaussian 88(TM) system (copyright 1988, Gaussian, Inc.),
 the Gaussian 86(TM) system (copyright 1986, Carnegie Mellon
 University), and the Gaussian 82(TM) system (copyright 1983,
 Carnegie Mellon University). Gaussian is a federally registered
 trademark of Gaussian, Inc.
  
 This software contains proprietary and confidential information,
 including trade secrets, belonging to Gaussian, Inc.
  
 This software is provided under written license and may be
 used, copied, transmitted, or stored only in accord with that
 written license.
  
 The following legend is applicable only to US Government
 contracts under FAR:
  
                    RESTRICTED RIGHTS LEGEND
  
 Use, reproduction and disclosure by the US Government is
 subject to restrictions as set forth in subparagraphs (a)
 and (c) of the Commercial Computer Software - Restricted
 Rights clause in FAR 52.227-19.
  
 Gaussian, Inc.
 340 Quinnipiac St., Bldg. 40, Wallingford CT 06492
  
  
 ---------------------------------------------------------------
 Warning -- This program may not be used in any manner that
 competes with the business of Gaussian, Inc. or will provide
 assistance to any competitor of Gaussian, Inc.  The licensee
 of this program is prohibited from giving any competitor of
 Gaussian, Inc. access to this program.  By using this program,
 the user acknowledges that Gaussian, Inc. is engaged in the
 business of creating and licensing software in the field of
 computational chemistry and represents and warrants to the
 licensee that it is not a competitor of Gaussian, Inc. and that
 it will not use this program in any manner prohibited above.
 ---------------------------------------------------------------
  

 Cite this work as:
 Gaussian 16, Revision A.03,
 M. J. Frisch, G. W. Trucks, H. B. Schlegel, G. E. Scuseria, 
 M. A. Robb, J. R. Cheeseman, G. Scalmani, V. Barone, 
 G. A. Petersson, H. Nakatsuji, X. Li, M. Caricato, A. V. Marenich, 
 J. Bloino, B. G. Janesko, R. Gomperts, B. Mennucci, H. P. Hratchian, 
 J. V. Ortiz, A. F. Izmaylov, J. L. Sonnenberg, D. Williams-Young, 
 F. Ding, F. Lipparini, F. Egidi, J. Goings, B. Peng, A. Petrone, 
 T. Henderson, D. Ranasinghe, V. G. Zakrzewski, J. Gao, N. Rega, 
 G. Zheng, W. Liang, M. Hada, M. Ehara, K. Toyota, R. Fukuda, 
 J. Hasegawa, M. Ishida, T. Nakajima, Y. Honda, O. Kitao, H. Nakai, 
 T. Vreven, K. Throssell, J. A. Montgomery, Jr., J. E. Peralta, 
 F. Ogliaro, M. J. Bearpark, J. J. Heyd, E. N. Brothers, K. N. Kudin, 
 V. N. Staroverov, T. A. Keith, R. Kobayashi, J. Normand, 
 K. Raghavachari, A. P. Rendell, J. C. Burant, S. S. Iyengar, 
 J. Tomasi, M. Cossi, J. M. Millam, M. Klene, C. Adamo, R. Cammi, 
 J. W. Ochterski, R. L. Martin, K. Morokuma, O. Farkas, 
 J. B. Foresman, and D. J. Fox, Gaussian, Inc., Wallingford CT, 2016.
 
 ******************************************
 Gaussian 16:  ES64L-G16RevA.03 25-Dec-2016
                16-Aug-2025 
 ******************************************
 %chk=ethyl_propiolate.chk
 %nprocshared=24
 Will use up to   24 processors via shared memory.
 %mem=12GB
 --------------------------
 # freq 6-311++g(d,p) m062x
 --------------------------
 1/10=4,30=1,38=1/1,3;
 2/12=2,17=6,18=5,40=1/2;
 3/5=4,6=6,7=1111,11=2,25=1,30=1,71=2,74=-55,140=1/1,2,3;
 4//1;
 5/5=2,38=5,98=1/2;
 8/6=4,10=90,11=11/1;
 11/6=1,8=1,9=11,15=111,16=1/1,2,10;
 10/6=1/2;
 6/7=2,8=2,9=2,10=2,28=1/1;
 7/8=1,10=1,25=1/1,2,3,16;
 1/10=4,30=1/3;
 99//99;
 -------------------
 Title Card Required
 -------------------
 Symbolic Z-matrix:
 Charge =  0 Multiplicity = 2
 O                     2.7093   -1.32848   0.04823 
 H                     1.81382  -1.63981  -0.14689 
 C                     2.48943   0.35494   0.23819 
 H                     3.47655   0.73991   0.44099 
 C                     1.29411   0.77922   0.11138 
 C                    -0.14376   0.74505  -0.10934 
 O                    -0.84343   1.71918  -0.07782 
 O                    -0.56164  -0.50148  -0.35275 
 C                    -1.98136  -0.66731  -0.57188 
 C                    -2.73469  -0.6888    0.74283 
 H                    -2.05724  -1.61711  -1.09795 
 H                    -2.32726   0.13776  -1.22077 
 H                    -3.79111  -0.88824   0.55329 
 H                    -2.34628  -1.47448   1.39248 
 H                    -2.65259   0.27209   1.25105 
 

 GradGradGradGradGradGradGradGradGradGradGradGradGradGradGradGradGradGrad
 Berny optimization.
 Initialization pass.
 Trust Radius=3.00D-01 FncErr=1.00D-07 GrdErr=1.00D-07 EigMax=2.50D+02 EigMin=1.00D-04
 Number of steps in this run=      2 maximum allowed number of steps=      2.
 GradGradGradGradGradGradGradGradGradGradGradGradGradGradGradGradGradGrad

                          Input orientation:                          
 ---------------------------------------------------------------------
 Center     Atomic      Atomic             Coordinates (Angstroms)
 Number     Number       Type             X           Y           Z
 ---------------------------------------------------------------------
      1          8           0        2.709295   -1.328481    0.048226
      2          1           0        1.813817   -1.639814   -0.146893
      3          6           0        2.489426    0.354937    0.238194
      4          1           0        3.476552    0.739913    0.440987
      5          6           0        1.294107    0.779216    0.111377
      6          6           0       -0.143757    0.745049   -0.109337
      7          8           0       -0.843433    1.719175   -0.077823
      8          8           0       -0.561635   -0.501475   -0.352747
      9          6           0       -1.981357   -0.667312   -0.571881
     10          6           0       -2.734691   -0.688795    0.742833
     11          1           0       -2.057239   -1.617105   -1.097952
     12          1           0       -2.327258    0.137764   -1.220772
     13          1           0       -3.791105   -0.888236    0.553292
     14          1           0       -2.346284   -1.474475    1.392479
     15          1           0       -2.652591    0.272089    1.251050
 ---------------------------------------------------------------------
                    Distance matrix (angstroms):
                    1          2          3          4          5
     1  O    0.000000
     2  H    0.967926   0.000000
     3  C    1.708311   2.140974   0.000000
     4  H    2.240803   2.961991   1.078772   0.000000
     5  C    2.539514   2.487671   1.274709   2.207545   0.000000
     6  C    3.530476   3.085624   2.684514   3.661901   1.455107
     7  O    4.682518   4.283521   3.615102   4.459864   2.342733
     8  O    3.397602   2.642151   3.223605   4.298606   2.302034
     9  C    4.777436   3.940777   4.657157   5.726688   3.645264
    10  C    5.525275   4.731276   5.351209   6.380584   4.334167
    11  H    4.910893   3.986239   5.132874   6.208600   4.293757
    12  H    5.396953   4.632656   5.037479   6.066979   3.911568
    13  H    6.534838   5.698270   6.410135   7.448646   5.369829
    14  H    5.233279   4.438856   5.297472   6.301926   4.469093
    15  H    5.723498   5.055533   5.241477   6.200117   4.139137
                    6          7          8          9         10
     6  C    0.000000
     7  O    1.199775   0.000000
     8  O    1.337046   2.255278   0.000000
     9  C    2.363363   2.689663   1.446075   0.000000
    10  C    3.081402   3.169961   2.440811   1.515403   0.000000
    11  H    3.196646   3.693880   2.009177   1.088400   2.170067
    12  H    2.524234   2.451312   2.068700   1.090346   2.169089
    13  H    4.050907   3.985683   3.376384   2.142431   1.091656
    14  H    3.468842   3.823578   2.679088   2.154854   1.090960
    15  H    2.892852   2.670770   2.746391   2.157801   1.090102
                   11         12         13         14         15
    11  H    0.000000
    12  H    1.779764   0.000000
    13  H    2.502828   2.518497   0.000000
    14  H    2.511202   3.070628   1.770711   0.000000
    15  H    3.072671   2.496756   1.769021   1.778851   0.000000
 Stoichiometry    C5H7O3(2)
 Framework group  C1[X(C5H7O3)]
 Deg. of freedom    39
 Full point group                 C1      NOp   1
 Largest Abelian subgroup         C1      NOp   1
 Largest concise Abelian subgroup C1      NOp   1
                         Standard orientation:                         
 ---------------------------------------------------------------------
 Center     Atomic      Atomic             Coordinates (Angstroms)
 Number     Number       Type             X           Y           Z
 ---------------------------------------------------------------------
      1          8           0        2.770578   -1.298367    0.027472
      2          1           0        1.874432   -1.606079   -0.170306
      3          6           0        2.554327    0.383815    0.231980
      4          1           0        3.542279    0.764904    0.438064
      5          6           0        1.359921    0.811740    0.108865
      6          6           0       -0.078015    0.782569   -0.112098
      7          8           0       -0.775597    1.757887   -0.072152
      8          8           0       -0.498571   -0.460906   -0.366255
      9          6           0       -1.918648   -0.621794   -0.586776
     10          6           0       -2.672016   -0.653015    0.727724
     11          1           0       -1.996574   -1.566842   -1.121029
     12          1           0       -2.262825    0.189598   -1.228679
     13          1           0       -3.728857   -0.848542    0.536495
     14          1           0       -2.285292   -1.445110    1.370548
     15          1           0       -2.587848    0.303264    1.244220
 ---------------------------------------------------------------------
 Rotational constants (GHZ):           3.7376299           1.1529358           0.9486112
 Standard basis: 6-311++G(d,p) (5D, 7F)
 There are   233 symmetry adapted cartesian basis functions of A   symmetry.
 There are   225 symmetry adapted basis functions of A   symmetry.
   225 basis functions,   351 primitive gaussians,   233 cartesian basis functions
    31 alpha electrons       30 beta electrons
       nuclear repulsion energy       354.2162897077 Hartrees.
 NAtoms=   15 NActive=   15 NUniq=   15 SFac= 1.00D+00 NAtFMM=   60 NAOKFM=F Big=F
 Integral buffers will be    131072 words long.
 Raffenetti 2 integral format.
 Two-electron integral symmetry is turned on.
 One-electron integrals computed using PRISM.
 NBasis=   225 RedAO= T EigKep=  3.98D-06  NBF=   225
 NBsUse=   225 1.00D-06 EigRej= -1.00D+00 NBFU=   225
 ExpMin= 3.60D-02 ExpMax= 8.59D+03 ExpMxC= 1.30D+03 IAcc=3 IRadAn=         5 AccDes= 0.00D+00
 Harris functional with IExCor= 1009 and IRadAn=       5 diagonalized for initial guess.
 HarFok:  IExCor= 1009 AccDes= 0.00D+00 IRadAn=         5 IDoV= 1 UseB2=F ITyADJ=14
 ICtDFT=  3500011 ScaDFX=  1.000000  1.000000  1.000000  1.000000
 FoFCou: FMM=F IPFlag=           0 FMFlag=      100000 FMFlg1=           0
         NFxFlg=           0 DoJE=T BraDBF=F KetDBF=T FulRan=T
         wScrn=  0.000000 ICntrl=       500 IOpCl=  0 I1Cent=   200000004 NGrid=           0
         NMat0=    1 NMatS0=      1 NMatT0=    0 NMatD0=    1 NMtDS0=    0 NMtDT0=    0
 Petite list used in FoFCou.
 Initial guess <Sx>= 0.0000 <Sy>= 0.0000 <Sz>= 0.5000 <S**2>= 0.7500 S= 0.5000
 Requested convergence on RMS density matrix=1.00D-08 within 128 cycles.
 Requested convergence on MAX density matrix=1.00D-06.
 Requested convergence on             energy=1.00D-06.
 No special actions if energy rises.
 SCF Done:  E(UM062X) =  -420.228235013     A.U. after   19 cycles
            NFock= 19  Conv=0.41D-08     -V/T= 2.0039
 <Sx>= 0.0000 <Sy>= 0.0000 <Sz>= 0.5000 <S**2>= 0.7766 S= 0.5132
 <L.S>=  0.00000000000    
 Annihilation of the first spin contaminant:
 S**2 before annihilation     0.7766,   after     0.7504
 DoSCS=F DFT=T ScalE2(SS,OS)=  1.000000  1.000000
 Range of M.O.s used for correlation:     1   225
 NBasis=   225 NAE=    31 NBE=    30 NFC=     0 NFV=     0
 NROrb=    225 NOA=    31 NOB=    30 NVA=   194 NVB=   195

 **** Warning!!: The largest alpha MO coefficient is  0.13352377D+03


 **** Warning!!: The largest beta MO coefficient is  0.12030900D+03

 Symmetrizing basis deriv contribution to polar:
 IMax=3 JMax=2 DiffMx= 0.00D+00
 G2DrvN: will do    16 centers at a time, making    1 passes.
 Calling FoFCou, ICntrl=  3107 FMM=F I1Cent=   0 AccDes= 0.00D+00.
 End of G2Drv F.D. properties file   721 does not exist.
 End of G2Drv F.D. properties file   722 does not exist.
 End of G2Drv F.D. properties file   788 does not exist.
          IDoAtm=111111111111111
          Differentiating once with respect to electric field.
                with respect to dipole field.
          Differentiating once with respect to nuclear coordinates.
 Keep R1 and R2 ints in memory in canonical form, NReq=671901991.
          There are    48 degrees of freedom in the 1st order CPHF.  IDoFFX=6 NUNeed=     3.
     45 vectors produced by pass  0 Test12= 2.47D-14 2.08D-09 XBig12= 9.98D+01 4.20D+00.
 AX will form    45 AO Fock derivatives at one time.
     45 vectors produced by pass  1 Test12= 2.47D-14 2.08D-09 XBig12= 1.56D+01 4.88D-01.
     45 vectors produced by pass  2 Test12= 2.47D-14 2.08D-09 XBig12= 8.41D-01 1.22D-01.
     45 vectors produced by pass  3 Test12= 2.47D-14 2.08D-09 XBig12= 1.23D-02 1.60D-02.
     45 vectors produced by pass  4 Test12= 2.47D-14 2.08D-09 XBig12= 1.71D-04 1.26D-03.
     45 vectors produced by pass  5 Test12= 2.47D-14 2.08D-09 XBig12= 2.27D-06 1.70D-04.
     40 vectors produced by pass  6 Test12= 2.47D-14 2.08D-09 XBig12= 1.85D-08 2.10D-05.
     25 vectors produced by pass  7 Test12= 2.47D-14 2.08D-09 XBig12= 1.48D-10 1.16D-06.
      5 vectors produced by pass  8 Test12= 2.47D-14 2.08D-09 XBig12= 1.05D-12 9.09D-08.
      3 vectors produced by pass  9 Test12= 2.47D-14 2.08D-09 XBig12= 9.93D-15 1.06D-08.
      1 vectors produced by pass 10 Test12= 2.47D-14 2.08D-09 XBig12= 2.88D-16 2.44D-09.
 InvSVY:  IOpt=1 It=  1 EMax= 3.55D-15
 Solved reduced A of dimension   344 with    48 vectors.
 Isotropic polarizability for W=    0.000000       73.05 Bohr**3.
 End of Minotr F.D. properties file   721 does not exist.
 End of Minotr F.D. properties file   722 does not exist.
 End of Minotr F.D. properties file   788 does not exist.

 **********************************************************************

            Population analysis using the SCF density.

 **********************************************************************

 Orbital symmetries:
 Alpha Orbitals:
       Occupied  (A) (A) (A) (A) (A) (A) (A) (A) (A) (A) (A) (A)
                 (A) (A) (A) (A) (A) (A) (A) (A) (A) (A) (A) (A)
                 (A) (A) (A) (A) (A) (A) (A)
       Virtual   (A) (A) (A) (A) (A) (A) (A) (A) (A) (A) (A) (A)
                 (A) (A) (A) (A) (A) (A) (A) (A) (A) (A) (A) (A)
                 (A) (A) (A) (A) (A) (A) (A) (A) (A) (A) (A) (A)
                 (A) (A) (A) (A) (A) (A) (A) (A) (A) (A) (A) (A)
                 (A) (A) (A) (A) (A) (A) (A) (A) (A) (A) (A) (A)
                 (A) (A) (A) (A) (A) (A) (A) (A) (A) (A) (A) (A)
                 (A) (A) (A) (A) (A) (A) (A) (A) (A) (A) (A) (A)
                 (A) (A) (A) (A) (A) (A) (A) (A) (A) (A) (A) (A)
                 (A) (A) (A) (A) (A) (A) (A) (A) (A) (A) (A) (A)
                 (A) (A) (A) (A) (A) (A) (A) (A) (A) (A) (A) (A)
                 (A) (A) (A) (A) (A) (A) (A) (A) (A) (A) (A) (A)
                 (A) (A) (A) (A) (A) (A) (A) (A) (A) (A) (A) (A)
                 (A) (A) (A) (A) (A) (A) (A) (A) (A) (A) (A) (A)
                 (A) (A) (A) (A) (A) (A) (A) (A) (A) (A) (A) (A)
                 (A) (A) (A) (A) (A) (A) (A) (A) (A) (A) (A) (A)
                 (A) (A) (A) (A) (A) (A) (A) (A) (A) (A) (A) (A)
                 (A) (A)
 Beta  Orbitals:
       Occupied  (A) (A) (A) (A) (A) (A) (A) (A) (A) (A) (A) (A)
                 (A) (A) (A) (A) (A) (A) (A) (A) (A) (A) (A) (A)
                 (A) (A) (A) (A) (A) (A)
       Virtual   (A) (A) (A) (A) (A) (A) (A) (A) (A) (A) (A) (A)
                 (A) (A) (A) (A) (A) (A) (A) (A) (A) (A) (A) (A)
                 (A) (A) (A) (A) (A) (A) (A) (A) (A) (A) (A) (A)
                 (A) (A) (A) (A) (A) (A) (A) (A) (A) (A) (A) (A)
                 (A) (A) (A) (A) (A) (A) (A) (A) (A) (A) (A) (A)
                 (A) (A) (A) (A) (A) (A) (A) (A) (A) (A) (A) (A)
                 (A) (A) (A) (A) (A) (A) (A) (A) (A) (A) (A) (A)
                 (A) (A) (A) (A) (A) (A) (A) (A) (A) (A) (A) (A)
                 (A) (A) (A) (A) (A) (A) (A) (A) (A) (A) (A) (A)
                 (A) (A) (A) (A) (A) (A) (A) (A) (A) (A) (A) (A)
                 (A) (A) (A) (A) (A) (A) (A) (A) (A) (A) (A) (A)
                 (A) (A) (A) (A) (A) (A) (A) (A) (A) (A) (A) (A)
                 (A) (A) (A) (A) (A) (A) (A) (A) (A) (A) (A) (A)
                 (A) (A) (A) (A) (A) (A) (A) (A) (A) (A) (A) (A)
                 (A) (A) (A) (A) (A) (A) (A) (A) (A) (A) (A) (A)
                 (A) (A) (A) (A) (A) (A) (A) (A) (A) (A) (A) (A)
                 (A) (A) (A)
 The electronic state is 2-A.
 Alpha  occ. eigenvalues --  -19.69567 -19.64576 -19.64274 -10.71627 -10.64220
 Alpha  occ. eigenvalues --  -10.61562 -10.59866 -10.54581  -1.26738  -1.17558
 Alpha  occ. eigenvalues --   -1.11219  -0.92517  -0.88339  -0.79254  -0.72409
 Alpha  occ. eigenvalues --   -0.65769  -0.62781  -0.59660  -0.57586  -0.54840
 Alpha  occ. eigenvalues --   -0.53298  -0.50460  -0.48995  -0.47746  -0.46114
 Alpha  occ. eigenvalues --   -0.43286  -0.42755  -0.40037  -0.39421  -0.35794
 Alpha  occ. eigenvalues --   -0.31965
 Alpha virt. eigenvalues --   -0.03267  -0.00731   0.00775   0.01250   0.01529
 Alpha virt. eigenvalues --    0.02796   0.04444   0.04948   0.05823   0.06353
 Alpha virt. eigenvalues --    0.07038   0.07409   0.08302   0.09026   0.10442
 Alpha virt. eigenvalues --    0.11232   0.11976   0.12118   0.12373   0.12853
 Alpha virt. eigenvalues --    0.13398   0.13796   0.14377   0.15027   0.15811
 Alpha virt. eigenvalues --    0.16455   0.17226   0.17654   0.18785   0.20239
 Alpha virt. eigenvalues --    0.20572   0.21423   0.21801   0.23256   0.23719
 Alpha virt. eigenvalues --    0.25661   0.26012   0.27346   0.28760   0.29374
 Alpha virt. eigenvalues --    0.30538   0.30922   0.31401   0.31974   0.32872
 Alpha virt. eigenvalues --    0.33538   0.33940   0.35916   0.37006   0.37579
 Alpha virt. eigenvalues --    0.40220   0.40345   0.45079   0.45935   0.49633
 Alpha virt. eigenvalues --    0.50088   0.50561   0.53346   0.55560   0.57953
 Alpha virt. eigenvalues --    0.60975   0.61979   0.63200   0.65108   0.65653
 Alpha virt. eigenvalues --    0.67303   0.67855   0.68614   0.69691   0.72376
 Alpha virt. eigenvalues --    0.73834   0.75488   0.76651   0.77408   0.80656
 Alpha virt. eigenvalues --    0.83860   0.84624   0.89958   0.94199   0.96934
 Alpha virt. eigenvalues --    0.98389   1.01632   1.06592   1.07070   1.09098
 Alpha virt. eigenvalues --    1.14253   1.15270   1.18138   1.18420   1.18761
 Alpha virt. eigenvalues --    1.21004   1.22215   1.24417   1.28664   1.32661
 Alpha virt. eigenvalues --    1.34468   1.35745   1.38525   1.40501   1.45737
 Alpha virt. eigenvalues --    1.46382   1.50803   1.52081   1.53470   1.55325
 Alpha virt. eigenvalues --    1.57165   1.58790   1.60424   1.61170   1.62923
 Alpha virt. eigenvalues --    1.65582   1.68580   1.70729   1.74031   1.74326
 Alpha virt. eigenvalues --    1.80093   1.81012   1.84076   1.86461   1.86994
 Alpha virt. eigenvalues --    1.89432   1.93369   1.96844   2.00610   2.06616
 Alpha virt. eigenvalues --    2.11485   2.12994   2.19024   2.20684   2.24080
 Alpha virt. eigenvalues --    2.27029   2.31591   2.35446   2.50499   2.52175
 Alpha virt. eigenvalues --    2.53478   2.58756   2.60667   2.62075   2.63202
 Alpha virt. eigenvalues --    2.64017   2.66494   2.67879   2.70927   2.73218
 Alpha virt. eigenvalues --    2.77427   2.78423   2.78912   2.81590   2.90700
 Alpha virt. eigenvalues --    2.91002   2.93718   2.96580   2.97654   2.98804
 Alpha virt. eigenvalues --    3.00025   3.11657   3.14344   3.19662   3.24116
 Alpha virt. eigenvalues --    3.28867   3.29136   3.30549   3.34717   3.42946
 Alpha virt. eigenvalues --    3.61316   3.63832   3.67309   3.73847   3.84065
 Alpha virt. eigenvalues --    3.85418   3.90184   3.93702   4.02270   4.06327
 Alpha virt. eigenvalues --    4.16047   4.26886   5.09680   5.12337   5.15833
 Alpha virt. eigenvalues --    5.21771   5.30459   5.44772   5.61155   5.71296
 Alpha virt. eigenvalues --    5.93186  23.60622  23.91714  23.93482  24.04989
 Alpha virt. eigenvalues --   24.58886  49.98128  49.99160  50.10645
  Beta  occ. eigenvalues --  -19.69518 -19.64192 -19.64059 -10.71672 -10.64371
  Beta  occ. eigenvalues --  -10.61552 -10.59180 -10.54581  -1.26563  -1.17316
  Beta  occ. eigenvalues --   -1.09331  -0.90913  -0.87303  -0.79057  -0.71692
  Beta  occ. eigenvalues --   -0.65530  -0.62133  -0.59321  -0.57253  -0.54534
  Beta  occ. eigenvalues --   -0.51827  -0.50163  -0.47654  -0.46383  -0.44077
  Beta  occ. eigenvalues --   -0.42991  -0.42279  -0.39764  -0.38821  -0.34248
  Beta virt. eigenvalues --   -0.08545  -0.03013  -0.00692   0.00817   0.01298
  Beta virt. eigenvalues --    0.01739   0.02896   0.04816   0.05035   0.05805
  Beta virt. eigenvalues --    0.06313   0.07020   0.07836   0.08556   0.08960
  Beta virt. eigenvalues --    0.10854   0.11296   0.12107   0.12162   0.12445
  Beta virt. eigenvalues --    0.12909   0.13902   0.14307   0.14735   0.15350
  Beta virt. eigenvalues --    0.15779   0.16651   0.17369   0.17780   0.18717
  Beta virt. eigenvalues --    0.20279   0.20747   0.21532   0.21705   0.23377
  Beta virt. eigenvalues --    0.23867   0.25376   0.26201   0.27541   0.28719
  Beta virt. eigenvalues --    0.29386   0.30664   0.30966   0.31196   0.31968
  Beta virt. eigenvalues --    0.32882   0.33665   0.34029   0.35969   0.37392
  Beta virt. eigenvalues --    0.37529   0.40259   0.40622   0.45484   0.46001
  Beta virt. eigenvalues --    0.49680   0.50309   0.50647   0.53688   0.55590
  Beta virt. eigenvalues --    0.57940   0.61037   0.61970   0.63138   0.65467
  Beta virt. eigenvalues --    0.66115   0.67610   0.68424   0.68681   0.70095
  Beta virt. eigenvalues --    0.72404   0.73841   0.75234   0.76547   0.76892
  Beta virt. eigenvalues --    0.80352   0.82980   0.85337   0.89897   0.94111
  Beta virt. eigenvalues --    0.96916   0.98808   1.01781   1.06829   1.07194
  Beta virt. eigenvalues --    1.09983   1.14386   1.15896   1.18913   1.19633
  Beta virt. eigenvalues --    1.19870   1.21594   1.22587   1.24544   1.28836
  Beta virt. eigenvalues --    1.32891   1.34465   1.36674   1.38987   1.41065
  Beta virt. eigenvalues --    1.46096   1.47737   1.50796   1.52392   1.54057
  Beta virt. eigenvalues --    1.55872   1.57393   1.58890   1.60670   1.61540
  Beta virt. eigenvalues --    1.63411   1.65718   1.68861   1.70994   1.74289
  Beta virt. eigenvalues --    1.74560   1.80403   1.81244   1.84085   1.86727
  Beta virt. eigenvalues --    1.87280   1.89954   1.93638   1.97504   2.00883
  Beta virt. eigenvalues --    2.06730   2.11595   2.13253   2.19101   2.20786
  Beta virt. eigenvalues --    2.24670   2.27907   2.31806   2.35596   2.50529
  Beta virt. eigenvalues --    2.52350   2.53544   2.59207   2.60658   2.62195
  Beta virt. eigenvalues --    2.63349   2.64398   2.66256   2.67743   2.71605
  Beta virt. eigenvalues --    2.73370   2.77865   2.78841   2.79689   2.81637
  Beta virt. eigenvalues --    2.90844   2.91594   2.93991   2.96980   2.98931
  Beta virt. eigenvalues --    2.99909   3.02292   3.11930   3.14564   3.20214
  Beta virt. eigenvalues --    3.24191   3.29666   3.30171   3.31459   3.35406
  Beta virt. eigenvalues --    3.43054   3.61200   3.64051   3.66858   3.73922
  Beta virt. eigenvalues --    3.84079   3.85427   3.90254   3.94724   4.02450
  Beta virt. eigenvalues --    4.06922   4.16428   4.26960   5.10569   5.12464
  Beta virt. eigenvalues --    5.15982   5.24249   5.30722   5.44963   5.62123
  Beta virt. eigenvalues --    5.71564   5.93274  23.60793  23.91752  23.93521
  Beta virt. eigenvalues --   24.04991  24.59537  49.97630  49.99084  50.10576
          Condensed to atoms (all electrons):
               1          2          3          4          5          6
     1  O    8.037045   0.265685   0.068689  -0.043569  -0.116141   0.106610
     2  H    0.265685   0.486005   0.121322   0.009992  -0.020387  -0.126865
     3  C    0.068689   0.121322  10.332926   0.518623  -1.742514  -2.139165
     4  H   -0.043569   0.009992   0.518623   0.442905  -0.096559  -0.038825
     5  C   -0.116141  -0.020387  -1.742514  -0.096559   9.669092  -1.991221
     6  C    0.106610  -0.126865  -2.139165  -0.038825  -1.991221   9.584198
     7  O   -0.002918   0.002156   0.013282   0.002592  -0.021530   0.319358
     8  O    0.009669   0.011568   0.076257   0.001668  -0.548954   0.288504
     9  C    0.001611  -0.004679  -0.135611   0.000549  -0.365989   0.287270
    10  C   -0.004238   0.004023   0.056339   0.000352   0.084202  -0.192155
    11  H    0.000422  -0.002161  -0.006633  -0.000030  -0.009306   0.028637
    12  H    0.000231  -0.000559   0.002131  -0.000053  -0.032655   0.015761
    13  H   -0.000161   0.000248   0.001152   0.000028   0.012435  -0.006593
    14  H    0.000913  -0.001062   0.000337  -0.000055  -0.012152   0.010713
    15  H    0.000245  -0.000340  -0.010458  -0.000003  -0.058327   0.047068
               7          8          9         10         11         12
     1  O   -0.002918   0.009669   0.001611  -0.004238   0.000422   0.000231
     2  H    0.002156   0.011568  -0.004679   0.004023  -0.002161  -0.000559
     3  C    0.013282   0.076257  -0.135611   0.056339  -0.006633   0.002131
     4  H    0.002592   0.001668   0.000549   0.000352  -0.000030  -0.000053
     5  C   -0.021530  -0.548954  -0.365989   0.084202  -0.009306  -0.032655
     6  C    0.319358   0.288504   0.287270  -0.192155   0.028637   0.015761
     7  O    8.057988  -0.141867   0.066644  -0.064898   0.004699  -0.021174
     8  O   -0.141867   8.375840   0.139341  -0.062264  -0.084457  -0.015289
     9  C    0.066644   0.139341   5.521195  -0.022063   0.447212   0.410505
    10  C   -0.064898  -0.062264  -0.022063   5.509300  -0.075596  -0.019486
    11  H    0.004699  -0.084457   0.447212  -0.075596   0.532027  -0.033420
    12  H   -0.021174  -0.015289   0.410505  -0.019486  -0.033420   0.507455
    13  H   -0.000313   0.014580  -0.053348   0.408981  -0.003008  -0.005073
    14  H    0.000284  -0.003222  -0.020606   0.402200  -0.008939   0.004630
    15  H    0.005861  -0.019873   0.016570   0.368798   0.012505  -0.010221
              13         14         15
     1  O   -0.000161   0.000913   0.000245
     2  H    0.000248  -0.001062  -0.000340
     3  C    0.001152   0.000337  -0.010458
     4  H    0.000028  -0.000055  -0.000003
     5  C    0.012435  -0.012152  -0.058327
     6  C   -0.006593   0.010713   0.047068
     7  O   -0.000313   0.000284   0.005861
     8  O    0.014580  -0.003222  -0.019873
     9  C   -0.053348  -0.020606   0.016570
    10  C    0.408981   0.402200   0.368798
    11  H   -0.003008  -0.008939   0.012505
    12  H   -0.005073   0.004630  -0.010221
    13  H    0.529607  -0.032738  -0.032470
    14  H   -0.032738   0.540201  -0.045803
    15  H   -0.032470  -0.045803   0.543306
          Atomic-Atomic Spin Densities.
               1          2          3          4          5          6
     1  O    0.341746  -0.000255   0.010355  -0.010733  -0.149039   0.064672
     2  H   -0.000255  -0.008839  -0.006371   0.000632   0.029344  -0.013223
     3  C    0.010355  -0.006371  -0.369052   0.037647   0.208379  -0.054404
     4  H   -0.010733   0.000632   0.037647   0.028952  -0.007472  -0.016369
     5  C   -0.149039   0.029344   0.208379  -0.007472   2.027879  -1.103198
     6  C    0.064672  -0.013223  -0.054404  -0.016369  -1.103198   1.019890
     7  O   -0.002220   0.000722  -0.012707   0.000153   0.046797  -0.037014
     8  O    0.008661  -0.003282  -0.026152  -0.000830  -0.203118   0.197022
     9  C    0.003474  -0.001106  -0.002869  -0.000423  -0.069593   0.042832
    10  C   -0.001268   0.000775  -0.008001   0.000037   0.020865   0.008134
    11  H    0.000483  -0.000348   0.001744  -0.000011  -0.010272   0.003997
    12  H    0.000216  -0.000163  -0.000280  -0.000001  -0.016671   0.012419
    13  H   -0.000028   0.000056  -0.000356  -0.000009   0.003746  -0.000811
    14  H    0.000059  -0.000104   0.000508  -0.000003  -0.002709   0.000627
    15  H    0.000099  -0.000055   0.000614   0.000001  -0.006284   0.003437
               7          8          9         10         11         12
     1  O   -0.002220   0.008661   0.003474  -0.001268   0.000483   0.000216
     2  H    0.000722  -0.003282  -0.001106   0.000775  -0.000348  -0.000163
     3  C   -0.012707  -0.026152  -0.002869  -0.008001   0.001744  -0.000280
     4  H    0.000153  -0.000830  -0.000423   0.000037  -0.000011  -0.000001
     5  C    0.046797  -0.203118  -0.069593   0.020865  -0.010272  -0.016671
     6  C   -0.037014   0.197022   0.042832   0.008134   0.003997   0.012419
     7  O    0.049946  -0.020594  -0.010324   0.005134  -0.000930  -0.001595
     8  O   -0.020594   0.033460   0.024007  -0.012405   0.002860   0.002462
     9  C   -0.010324   0.024007   0.017644  -0.005271   0.002066   0.003161
    10  C    0.005134  -0.012405  -0.005271   0.001775  -0.003894  -0.001686
    11  H   -0.000930   0.002860   0.002066  -0.003894   0.003428   0.001041
    12  H   -0.001595   0.002462   0.003161  -0.001686   0.001041   0.000787
    13  H    0.000415  -0.000404  -0.002423   0.001185  -0.000721  -0.000500
    14  H   -0.000319   0.000662   0.000829  -0.000344   0.000408   0.000188
    15  H   -0.000710   0.001293   0.002521  -0.002038   0.000540   0.000322
              13         14         15
     1  O   -0.000028   0.000059   0.000099
     2  H    0.000056  -0.000104  -0.000055
     3  C   -0.000356   0.000508   0.000614
     4  H   -0.000009  -0.000003   0.000001
     5  C    0.003746  -0.002709  -0.006284
     6  C   -0.000811   0.000627   0.003437
     7  O    0.000415  -0.000319  -0.000710
     8  O   -0.000404   0.000662   0.001293
     9  C   -0.002423   0.000829   0.002521
    10  C    0.001185  -0.000344  -0.002038
    11  H   -0.000721   0.000408   0.000540
    12  H   -0.000500   0.000188   0.000322
    13  H    0.000927  -0.000208  -0.000431
    14  H   -0.000208   0.000127   0.000101
    15  H   -0.000431   0.000101   0.001020
 Mulliken charges and spin densities:
               1          2
     1  O   -0.324093   0.266222
     2  H    0.255054  -0.002217
     3  C   -1.156677  -0.220945
     4  H    0.202384   0.031573
     5  C    1.250006   0.768653
     6  C   -0.193295   0.128011
     7  O   -0.220164   0.016752
     8  O   -0.041501   0.003641
     9  C   -0.288601   0.004526
    10  C   -0.393494   0.003000
    11  H    0.198048   0.000392
    12  H    0.197217  -0.000299
    13  H    0.166674   0.000439
    14  H    0.165300  -0.000178
    15  H    0.183142   0.000430
 Sum of Mulliken charges =  -0.00000   1.00000
 Mulliken charges and spin densities with hydrogens summed into heavy atoms:
               1          2
     1  O   -0.069039   0.264005
     3  C   -0.954292  -0.189372
     5  C    1.250006   0.768653
     6  C   -0.193295   0.128011
     7  O   -0.220164   0.016752
     8  O   -0.041501   0.003641
     9  C    0.106664   0.004619
    10  C    0.121622   0.003691
 APT charges:
               1
     1  O   -0.541174
     2  H    0.237821
     3  C    0.334367
     4  H    0.140953
     5  C   -0.435409
     6  C    1.466442
     7  O   -0.784655
     8  O   -0.943788
     9  C    0.536912
    10  C   -0.043758
    11  H   -0.012373
    12  H   -0.010656
    13  H    0.012337
    14  H    0.011148
    15  H    0.031832
 Sum of APT charges =   0.00000
 APT charges with hydrogens summed into heavy atoms:
               1
     1  O   -0.303352
     3  C    0.475320
     5  C   -0.435409
     6  C    1.466442
     7  O   -0.784655
     8  O   -0.943788
     9  C    0.513883
    10  C    0.011559
 Electronic spatial extent (au):  <R**2>=           1214.2165
 Charge=             -0.0000 electrons
 Dipole moment (field-independent basis, Debye):
    X=             -1.9211    Y=             -0.8068    Z=             -0.1874  Tot=              2.0921
 Quadrupole moment (field-independent basis, Debye-Ang):
   XX=            -45.0045   YY=            -52.7287   ZZ=            -47.4194
   XY=             10.6319   XZ=              1.7505   YZ=              1.0551
 Traceless Quadrupole moment (field-independent basis, Debye-Ang):
   XX=              3.3797   YY=             -4.3445   ZZ=              0.9648
   XY=             10.6319   XZ=              1.7505   YZ=              1.0551
 Octapole moment (field-independent basis, Debye-Ang**2):
  XXX=            -15.5660  YYY=            -17.1265  ZZZ=             -3.3406  XYY=             -2.5736
  XXY=             20.2411  XXZ=              2.3029  XZZ=             -4.4061  YZZ=             -0.3717
  YYZ=             -2.1227  XYZ=              1.4224
 Hexadecapole moment (field-independent basis, Debye-Ang**3):
 XXXX=          -1091.7772 YYYY=           -338.7018 ZZZZ=           -112.7071 XXXY=             92.5203
 XXXZ=             27.6683 YYYX=              1.6413 YYYZ=              4.9262 ZZZX=              2.9602
 ZZZY=              0.2111 XXYY=           -267.6203 XXZZ=           -214.1301 YYZZ=            -70.7798
 XXYZ=              9.1678 YYXZ=             -0.2996 ZZXY=             -3.0148
 N-N= 3.542162897077D+02 E-N=-1.692431810592D+03  KE= 4.186010396025D+02
  Exact polarizability:  94.336  -7.478  74.573   2.467   1.716  50.228
 Approx polarizability: 100.552 -16.491  94.349   3.998   2.569  58.424
                          Isotropic Fermi Contact Couplings
        Atom                 a.u.       MegaHertz       Gauss      10(-4) cm-1
     1  O(17)              0.04663     -28.26981     -10.08737      -9.42979
     2  H(1)              -0.00445     -19.87886      -7.09327      -6.63087
     3  C(13)             -0.01504     -16.91285      -6.03492      -5.64152
     4  H(1)               0.01330      59.42982      21.20604      19.82365
     5  C(13)              0.20568     231.22192      82.50573      77.12733
     6  C(13)             -0.02269     -25.50764      -9.10176      -8.50843
     7  O(17)              0.01716     -10.40489      -3.71272      -3.47070
     8  O(17)              0.05745     -34.82466     -12.42631     -11.61626
     9  C(13)              0.00694       7.80569       2.78527       2.60370
    10  C(13)             -0.00016      -0.18466      -0.06589      -0.06160
    11  H(1)               0.00013       0.59539       0.21245       0.19860
    12  H(1)              -0.00012      -0.53879      -0.19225      -0.17972
    13  H(1)               0.00016       0.72634       0.25918       0.24228
    14  H(1)               0.00003       0.14077       0.05023       0.04696
    15  H(1)              -0.00000      -0.00603      -0.00215      -0.00201
 --------------------------------------------------------
       Center         ----  Spin Dipole Couplings  ----
                      3XX-RR        3YY-RR        3ZZ-RR
 --------------------------------------------------------
     1   Atom       -0.334826      0.948538     -0.613712
     2   Atom        0.036126      0.004173     -0.040299
     3   Atom        0.152419     -0.052894     -0.099524
     4   Atom        0.001567      0.003448     -0.005015
     5   Atom       -0.543575      0.886786     -0.343211
     6   Atom        0.021751      0.000779     -0.022530
     7   Atom        0.079411     -0.069502     -0.009909
     8   Atom        0.037011     -0.022199     -0.014812
     9   Atom        0.013304     -0.005514     -0.007791
    10   Atom        0.002721     -0.001147     -0.001574
    11   Atom        0.001362      0.000256     -0.001617
    12   Atom        0.003068     -0.001479     -0.001588
    13   Atom        0.001536     -0.000666     -0.000870
    14   Atom        0.001410     -0.000450     -0.000960
    15   Atom        0.002849     -0.001542     -0.001307
 --------------------------------------------------------
                        XY            XZ            YZ
 --------------------------------------------------------
     1   Atom       -0.615651     -0.040695      0.124047
     2   Atom        0.019435      0.016604      0.010583
     3   Atom        0.005445      0.040979      0.009202
     4   Atom       -0.006422      0.000172      0.000272
     5   Atom        0.143133     -0.005891      0.200815
     6   Atom       -0.003977      0.006737      0.002973
     7   Atom        0.026067      0.016490     -0.004957
     8   Atom        0.026920      0.012913      0.003210
     9   Atom        0.007369      0.003544      0.001142
    10   Atom        0.001276     -0.001099     -0.000266
    11   Atom        0.002022      0.001187      0.001407
    12   Atom        0.000407      0.002594     -0.000103
    13   Atom        0.000758     -0.000284     -0.000046
    14   Atom        0.001613     -0.001122     -0.000700
    15   Atom        0.000746     -0.001590     -0.000204
 --------------------------------------------------------


 ---------------------------------------------------------------------------------
              Anisotropic Spin Dipole Couplings in Principal Axis System
 ---------------------------------------------------------------------------------

       Atom             a.u.   MegaHertz   Gauss  10(-4) cm-1        Axes

              Baa    -0.6247    45.206    16.131    15.079 -0.1566 -0.1384  0.9779
     1 O(17)  Bbb    -0.5807    42.019    14.993    14.016  0.9150  0.3524  0.1964
              Bcc     1.2054   -87.225   -31.124   -29.095 -0.3718  0.9255  0.0714
 
              Baa    -0.0447   -23.846    -8.509    -7.954 -0.1654 -0.1455  0.9754
     2 H(1)   Bbb    -0.0049    -2.597    -0.927    -0.866 -0.4466  0.8929  0.0574
              Bcc     0.0496    26.442     9.435     8.820  0.8793  0.4261  0.2127
 
              Baa    -0.1073   -14.395    -5.137    -4.802 -0.1510 -0.1502  0.9771
     3 C(13)  Bbb    -0.0519    -6.959    -2.483    -2.321 -0.0551  0.9881  0.1434
              Bcc     0.1591    21.355     7.620     7.123  0.9870  0.0322  0.1575
 
              Baa    -0.0051    -2.721    -0.971    -0.908 -0.1966 -0.1784  0.9641
     4 H(1)   Bbb    -0.0039    -2.080    -0.742    -0.694  0.7307  0.6290  0.2654
              Bcc     0.0090     4.801     1.713     1.602 -0.6537  0.7567  0.0067
 
              Baa    -0.5612   -75.309   -26.872   -25.120  0.9843 -0.1158  0.1332
     5 C(13)  Bbb    -0.3709   -49.772   -17.760   -16.602 -0.1489 -0.1394  0.9790
              Bcc     0.9321   125.080    44.632    41.722  0.0948  0.9834  0.1544
 
              Baa    -0.0240    -3.226    -1.151    -1.076 -0.1561 -0.1421  0.9775
     6 C(13)  Bbb     0.0007     0.099     0.035     0.033  0.1326  0.9776  0.1633
              Bcc     0.0233     3.127     1.116     1.043  0.9788 -0.1552  0.1338
 
              Baa    -0.0749     5.417     1.933     1.807 -0.1778  0.9768  0.1197
     7 O(17)  Bbb    -0.0115     0.830     0.296     0.277 -0.1363 -0.1449  0.9800
              Bcc     0.0863    -6.246    -2.229    -2.084  0.9746  0.1580  0.1589
 
              Baa    -0.0328     2.372     0.846     0.791 -0.3747  0.9212  0.1047
     8 O(17)  Bbb    -0.0173     1.253     0.447     0.418 -0.1471 -0.1705  0.9743
              Bcc     0.0501    -3.626    -1.294    -1.209  0.9154  0.3497  0.1994
 
              Baa    -0.0084    -1.125    -0.401    -0.375 -0.2138  0.1661  0.9627
     9 C(13)  Bbb    -0.0080    -1.079    -0.385    -0.360 -0.2846  0.9321 -0.2241
              Bcc     0.0164     2.203     0.786     0.735  0.9345  0.3219  0.1520
 
              Baa    -0.0018    -0.247    -0.088    -0.083  0.2629 -0.1152  0.9579
    10 C(13)  Bbb    -0.0015    -0.204    -0.073    -0.068 -0.2403  0.9538  0.1806
              Bcc     0.0034     0.451     0.161     0.151  0.9344  0.2776 -0.2230
 
              Baa    -0.0024    -1.267    -0.452    -0.423 -0.0433 -0.4451  0.8944
    11 H(1)   Bbb    -0.0012    -0.619    -0.221    -0.207  0.6787 -0.6701 -0.3006
              Bcc     0.0035     1.887     0.673     0.629  0.7332  0.5940  0.3311
 
              Baa    -0.0028    -1.493    -0.533    -0.498 -0.4080  0.1958  0.8918
    12 H(1)   Bbb    -0.0014    -0.772    -0.275    -0.257  0.0280  0.9790 -0.2022
              Bcc     0.0042     2.264     0.808     0.755  0.9126  0.0575  0.4048
 
              Baa    -0.0009    -0.503    -0.179    -0.168  0.2822 -0.6616  0.6947
    13 H(1)   Bbb    -0.0009    -0.459    -0.164    -0.153 -0.1338  0.6899  0.7114
              Bcc     0.0018     0.962     0.343     0.321  0.9500  0.2937 -0.1061
 
              Baa    -0.0014    -0.774    -0.276    -0.258 -0.0192  0.5936  0.8045
    14 H(1)   Bbb    -0.0014    -0.724    -0.258    -0.241 -0.5788  0.6495 -0.4931
              Bcc     0.0028     1.497     0.534     0.499  0.8152  0.4751 -0.3311
 
              Baa    -0.0019    -0.991    -0.353    -0.330  0.3437 -0.2238  0.9120
    15 H(1)   Bbb    -0.0016    -0.880    -0.314    -0.293 -0.0671  0.9628  0.2616
              Bcc     0.0035     1.870     0.667     0.624  0.9367  0.1511 -0.3159
 

 ---------------------------------------------------------------------------------

 Calling FoFJK, ICntrl=    100127 FMM=F ISym2X=0 I1Cent= 0 IOpClX= 1 NMat=1 NMatS=1 NMatT=0.
 Full mass-weighted force constant matrix:
 Low frequencies --- -524.5958  -14.1201   -0.0008   -0.0008   -0.0006    2.1395
 Low frequencies ---   20.4664   76.2919  114.8515
 ******    1 imaginary frequencies (negative Signs) ****** 
 Diagonal vibrational polarizability:
       19.5285026      16.9085104      32.9276889
 Harmonic frequencies (cm**-1), IR intensities (KM/Mole), Raman scattering
 activities (A**4/AMU), depolarization ratios for plane and unpolarized
 incident light, reduced masses (AMU), force constants (mDyne/A),
 and normal coordinates:
                      1                      2                      3
                      A                      A                      A
 Frequencies --   -524.5957                71.7027               111.5273
 Red. masses --     11.9198                 3.5721                 6.2508
 Frc consts  --      1.9327                 0.0108                 0.0458
 IR Inten    --     81.5526                 0.0455                 0.8173
  Atom  AN      X      Y      Z        X      Y      Z        X      Y      Z
     1   8     0.08  -0.52  -0.06     0.07   0.05  -0.14     0.36   0.13   0.11
     2   1    -0.05  -0.18  -0.05     0.05   0.03  -0.04     0.43  -0.06   0.07
     3   6     0.01   0.76   0.11     0.04   0.04  -0.08     0.07   0.04  -0.00
     4   1     0.25   0.07   0.05     0.05   0.06  -0.15    -0.02   0.26   0.01
     5   6    -0.05  -0.13  -0.03     0.01  -0.00   0.07    -0.02  -0.21  -0.10
     6   6    -0.05   0.01  -0.01     0.01  -0.05   0.10    -0.03  -0.13  -0.03
     7   8    -0.00   0.02   0.00    -0.01  -0.05   0.01     0.04  -0.08   0.13
     8   8    -0.01   0.02   0.00     0.02  -0.08   0.21    -0.16  -0.06  -0.15
     9   6    -0.01   0.00  -0.00     0.06  -0.08   0.00    -0.20   0.11  -0.03
    10   6    -0.00  -0.00   0.00    -0.20   0.17  -0.14    -0.10   0.13   0.03
    11   1     0.01  -0.00   0.00     0.13  -0.17   0.15    -0.35   0.14  -0.07
    12   1    -0.01  -0.00  -0.01     0.19  -0.18  -0.20    -0.17   0.18   0.04
    13   1    -0.00  -0.00   0.00    -0.16   0.14  -0.32    -0.14   0.26   0.11
    14   1     0.00   0.00  -0.00    -0.34   0.27   0.08    -0.14   0.05  -0.04
    15   1    -0.01  -0.00   0.00    -0.30   0.26  -0.29     0.05   0.09   0.08
                      4                      5                      6
                      A                      A                      A
 Frequencies --    114.2012               176.0770               218.9638
 Red. masses --      3.6447                 5.6218                 1.2187
 Frc consts  --      0.0280                 0.1027                 0.0344
 IR Inten    --      1.2528                 2.4279                 2.7778
  Atom  AN      X      Y      Z        X      Y      Z        X      Y      Z
     1   8    -0.09  -0.01   0.04     0.07   0.06  -0.21    -0.04   0.02   0.00
     2   1    -0.09   0.03  -0.04     0.11   0.06  -0.40    -0.06   0.04   0.04
     3   6    -0.03   0.02   0.00    -0.05  -0.02   0.19    -0.00   0.04  -0.01
     4   1    -0.02  -0.02   0.01    -0.09  -0.00   0.38     0.01   0.02  -0.02
     5   6    -0.02   0.05  -0.04    -0.09  -0.09   0.39     0.00   0.04  -0.00
     6   6    -0.02  -0.04   0.00    -0.03  -0.05  -0.01     0.01  -0.04   0.00
     7   8    -0.11  -0.11   0.19    -0.00  -0.01  -0.25    -0.03  -0.06  -0.00
     8   8     0.08  -0.03  -0.18    -0.02  -0.03  -0.09     0.03  -0.05   0.01
     9   6     0.06  -0.10  -0.04    -0.04  -0.01   0.01     0.02   0.02  -0.00
    10   6     0.13   0.23   0.01     0.12   0.12   0.11     0.02   0.03  -0.00
    11   1     0.04  -0.23   0.21    -0.11  -0.06   0.10    -0.04   0.06  -0.05
    12   1     0.02  -0.26  -0.23    -0.07  -0.06  -0.02     0.07   0.08   0.04
    13   1     0.14   0.08   0.11     0.08   0.17   0.28    -0.08   0.60  -0.04
    14   1     0.22   0.45   0.22     0.17   0.15   0.11    -0.36  -0.32  -0.20
    15   1     0.07   0.39  -0.27     0.25   0.16   0.03     0.49  -0.14   0.24
                      7                      8                      9
                      A                      A                      A
 Frequencies --    285.6110               310.2738               354.0399
 Red. masses --      1.3242                 2.7453                 2.6634
 Frc consts  --      0.0636                 0.1557                 0.1967
 IR Inten    --     35.3563                 8.6108                48.6998
  Atom  AN      X      Y      Z        X      Y      Z        X      Y      Z
     1   8     0.01  -0.00  -0.01    -0.13   0.07  -0.00    -0.08   0.08  -0.10
     2   1    -0.14  -0.14   0.88    -0.16   0.19  -0.08    -0.25   0.07   0.67
     3   6     0.01   0.01  -0.09     0.05   0.10   0.02     0.03   0.05   0.15
     4   1     0.04   0.05  -0.35     0.07   0.05   0.02     0.01  -0.01   0.36
     5   6    -0.03  -0.02   0.11     0.04   0.05   0.00     0.05   0.01  -0.06
     6   6    -0.02  -0.01   0.04     0.07  -0.13  -0.00     0.06  -0.03  -0.08
     7   8    -0.01  -0.00  -0.01     0.05  -0.15  -0.03     0.15   0.03   0.04
     8   8    -0.00   0.00  -0.02     0.01  -0.12   0.02    -0.02  -0.01  -0.09
     9   6    -0.00   0.02  -0.04    -0.04   0.18  -0.01    -0.04  -0.11   0.06
    10   6     0.04   0.00  -0.01    -0.00   0.01   0.01    -0.10  -0.02   0.04
    11   1    -0.01   0.04  -0.06    -0.21   0.31  -0.22     0.00  -0.18   0.17
    12   1     0.00   0.05  -0.01     0.10   0.39   0.19    -0.12  -0.22  -0.03
    13   1     0.04  -0.05   0.04     0.06  -0.40   0.05    -0.10   0.06  -0.07
    14   1     0.11   0.02  -0.03     0.31   0.17   0.03    -0.24  -0.04   0.10
    15   1     0.03   0.01  -0.02    -0.33   0.06  -0.03    -0.08  -0.02   0.02
                     10                     11                     12
                      A                      A                      A
 Frequencies --    367.7724               428.7993               561.0929
 Red. masses --      3.0997                 3.9737                 5.5440
 Frc consts  --      0.2470                 0.4305                 1.0284
 IR Inten    --     30.6211                 0.4516                 6.3545
  Atom  AN      X      Y      Z        X      Y      Z        X      Y      Z
     1   8    -0.12   0.05   0.11    -0.06   0.08  -0.03     0.10  -0.12  -0.00
     2   1    -0.03   0.25  -0.59    -0.08   0.09   0.07     0.12  -0.20  -0.01
     3   6     0.07   0.09  -0.17    -0.06   0.03   0.06     0.02  -0.03   0.01
     4   1     0.12   0.13  -0.52    -0.11   0.08   0.20     0.08  -0.17   0.01
     5   6    -0.01  -0.06   0.16    -0.07  -0.15  -0.15     0.13   0.48   0.06
     6   6     0.02  -0.04   0.06    -0.05  -0.04   0.04     0.03  -0.06   0.03
     7   8     0.17   0.07   0.02     0.11   0.08   0.04     0.07  -0.03   0.01
     8   8    -0.04   0.00  -0.08    -0.11  -0.05   0.21    -0.15  -0.03   0.04
     9   6    -0.05  -0.11  -0.02    -0.02  -0.05  -0.16    -0.23  -0.09  -0.14
    10   6    -0.03  -0.04  -0.00     0.20   0.03  -0.08     0.01  -0.01  -0.01
    11   1     0.01  -0.17   0.07     0.04  -0.07  -0.15    -0.12  -0.15  -0.06
    12   1    -0.12  -0.20  -0.10     0.07  -0.04  -0.19    -0.22  -0.15  -0.21
    13   1    -0.05   0.07   0.02     0.13   0.06   0.34    -0.08   0.04   0.43
    14   1    -0.09  -0.07   0.00     0.44   0.09  -0.15     0.24   0.04  -0.10
    15   1     0.07  -0.04  -0.02     0.46   0.07  -0.19     0.29   0.02  -0.12
                     13                     14                     15
                      A                      A                      A
 Frequencies --    603.8443               768.2989               800.1062
 Red. masses --      5.4766                 6.2283                 1.2335
 Frc consts  --      1.1766                 2.1661                 0.4652
 IR Inten    --     11.5355                 9.7578                 6.9873
  Atom  AN      X      Y      Z        X      Y      Z        X      Y      Z
     1   8    -0.08   0.03  -0.01     0.01   0.01  -0.04    -0.00   0.00   0.00
     2   1    -0.21   0.38   0.03     0.01  -0.00  -0.03     0.02  -0.05   0.01
     3   6     0.36   0.01   0.06    -0.04  -0.03   0.19    -0.03   0.01  -0.03
     4   1     0.41  -0.09   0.06     0.09   0.10  -0.67    -0.06   0.00   0.10
     5   6     0.26  -0.17  -0.00     0.03   0.04  -0.24    -0.02   0.00   0.01
     6   6     0.03   0.10   0.04    -0.08  -0.09   0.54     0.03  -0.03  -0.01
     7   8    -0.24  -0.10  -0.05     0.03   0.01  -0.17     0.02  -0.05   0.00
     8   8    -0.10   0.15   0.04     0.02   0.03  -0.14    -0.02   0.04   0.01
     9   6    -0.11  -0.03  -0.07     0.02   0.02   0.01     0.01   0.08   0.01
    10   6     0.00  -0.01  -0.01     0.00   0.01   0.02     0.01   0.04  -0.01
    11   1     0.11  -0.14   0.09     0.02  -0.05   0.13     0.09  -0.20   0.49
    12   1    -0.20  -0.19  -0.22    -0.05  -0.07  -0.07     0.02  -0.26  -0.43
    13   1    -0.04   0.02   0.23     0.03  -0.02  -0.09     0.06  -0.17  -0.06
    14   1     0.13  -0.02  -0.10    -0.05  -0.04  -0.02     0.16  -0.18  -0.36
    15   1     0.16  -0.02  -0.02    -0.10  -0.03   0.11    -0.14  -0.17   0.39
                     16                     17                     18
                      A                      A                      A
 Frequencies --    816.8742               885.7564               921.9529
 Red. masses --      1.5866                 3.0457                 2.7462
 Frc consts  --      0.6238                 1.4079                 1.3753
 IR Inten    --     42.7237                16.7675                 2.8158
  Atom  AN      X      Y      Z        X      Y      Z        X      Y      Z
     1   8    -0.00  -0.00   0.02    -0.00   0.00  -0.00    -0.00   0.01   0.00
     2   1    -0.01  -0.01   0.08     0.04  -0.10  -0.01     0.05  -0.14  -0.01
     3   6     0.03   0.02  -0.16    -0.05   0.01  -0.00    -0.12   0.01  -0.02
     4   1    -0.14  -0.14   0.94    -0.05   0.02  -0.02    -0.16   0.09  -0.01
     5   6     0.00   0.00  -0.00    -0.02   0.03   0.00    -0.06  -0.05  -0.02
     6   6    -0.02  -0.02   0.14     0.06  -0.09  -0.01     0.15   0.00   0.03
     7   8     0.00   0.01  -0.03     0.04  -0.15  -0.01     0.03  -0.12  -0.02
     8   8     0.01   0.00  -0.03    -0.19   0.19   0.02     0.11   0.15   0.02
     9   6     0.00  -0.01  -0.00     0.08   0.00   0.10    -0.03   0.00  -0.10
    10   6     0.00  -0.01   0.00     0.13  -0.04  -0.06    -0.15  -0.05   0.08
    11   1    -0.01   0.02  -0.05     0.24   0.07  -0.05     0.35   0.03  -0.20
    12   1    -0.02   0.03   0.05    -0.28   0.01   0.29    -0.02  -0.00  -0.11
    13   1    -0.00   0.02  -0.02     0.17   0.16  -0.50    -0.27   0.09   0.65
    14   1    -0.04   0.01   0.05    -0.27   0.07   0.29     0.10   0.12   0.13
    15   1    -0.00   0.02  -0.04     0.00   0.13  -0.34     0.25   0.04  -0.13
                     19                     20                     21
                      A                      A                      A
 Frequencies --   1019.2624              1065.8405              1126.7261
 Red. masses --      1.1058                 3.8409                 2.0550
 Frc consts  --      0.6769                 2.5708                 1.5371
 IR Inten    --     45.2924                23.1925                20.1744
  Atom  AN      X      Y      Z        X      Y      Z        X      Y      Z
     1   8     0.02  -0.06  -0.01     0.01  -0.01  -0.00     0.00  -0.00  -0.00
     2   1    -0.20   0.54   0.05    -0.04   0.13   0.01    -0.01   0.02   0.00
     3   6     0.01  -0.04  -0.01     0.07  -0.01   0.01     0.01  -0.00   0.00
     4   1    -0.30   0.75   0.06     0.09  -0.04   0.01     0.01   0.00   0.00
     5   6    -0.00   0.02   0.00     0.02   0.05   0.01     0.00   0.01   0.00
     6   6     0.01   0.00   0.00    -0.13  -0.08  -0.04    -0.02  -0.01   0.00
     7   8     0.00  -0.00  -0.00     0.01   0.02   0.01     0.00   0.01  -0.00
     8   8     0.00   0.01   0.00    -0.19  -0.01  -0.04    -0.04  -0.01  -0.05
     9   6    -0.01   0.00   0.00     0.34   0.03  -0.12     0.06   0.00   0.22
    10   6     0.00   0.00  -0.00    -0.12  -0.00   0.16    -0.08  -0.01  -0.17
    11   1    -0.00  -0.00   0.00     0.38   0.09  -0.23     0.04   0.05   0.15
    12   1    -0.01   0.00   0.00     0.46   0.02  -0.21     0.15   0.03   0.21
    13   1     0.00   0.00  -0.01    -0.15  -0.00   0.37    -0.18  -0.01   0.46
    14   1    -0.00  -0.00  -0.00    -0.04   0.05   0.21     0.45   0.12  -0.33
    15   1    -0.00   0.00  -0.00    -0.04  -0.05   0.24     0.44  -0.03  -0.22
                     22                     23                     24
                      A                      A                      A
 Frequencies --   1187.0093              1203.9436              1262.5712
 Red. masses --      1.2179                 1.6878                 4.7339
 Frc consts  --      1.0111                 1.4414                 4.4461
 IR Inten    --     59.5537                 0.2181               524.2824
  Atom  AN      X      Y      Z        X      Y      Z        X      Y      Z
     1   8     0.05  -0.01   0.01    -0.02   0.00  -0.00     0.03  -0.00   0.00
     2   1    -0.21   0.73   0.07     0.08  -0.29  -0.03    -0.11   0.37   0.03
     3   6    -0.03  -0.01  -0.01     0.04  -0.00   0.01    -0.13   0.02  -0.02
     4   1     0.18  -0.55  -0.05    -0.05   0.22   0.02    -0.03  -0.27  -0.04
     5   6    -0.04   0.01  -0.00     0.02   0.00   0.00    -0.02  -0.03  -0.01
     6   6    -0.05  -0.04  -0.01    -0.04  -0.02  -0.01     0.35   0.28   0.09
     7   8     0.02  -0.00   0.00    -0.01   0.04   0.01    -0.05  -0.02  -0.01
     8   8     0.04   0.01   0.01     0.02  -0.07  -0.00    -0.18  -0.17  -0.04
     9   6    -0.03   0.05   0.01    -0.02   0.17   0.01     0.11   0.04  -0.03
    10   6     0.01  -0.03  -0.00     0.01  -0.13  -0.00     0.00  -0.06  -0.00
    11   1     0.14  -0.01   0.09     0.25  -0.05   0.36    -0.53  -0.05   0.20
    12   1    -0.07  -0.03  -0.08    -0.19  -0.17  -0.33    -0.02  -0.11  -0.16
    13   1    -0.01   0.07   0.00    -0.06   0.26   0.03    -0.04   0.11   0.06
    14   1    -0.02   0.03   0.08    -0.09   0.13   0.37    -0.06   0.10   0.23
    15   1     0.03   0.03  -0.12     0.12   0.09  -0.41     0.03  -0.00  -0.10
                     25                     26                     27
                      A                      A                      A
 Frequencies --   1345.4741              1401.7645              1430.9187
 Red. masses --      1.1557                 1.2520                 1.3515
 Frc consts  --      1.2327                 1.4494                 1.6304
 IR Inten    --     40.9352                12.5827                 9.1721
  Atom  AN      X      Y      Z        X      Y      Z        X      Y      Z
     1   8    -0.00   0.00  -0.00    -0.00  -0.00  -0.00     0.00   0.00   0.00
     2   1     0.00  -0.01  -0.00     0.00  -0.00  -0.00     0.00  -0.00  -0.00
     3   6     0.00  -0.00   0.00     0.01  -0.00   0.00    -0.01   0.00  -0.00
     4   1     0.00   0.01   0.00     0.01   0.01   0.00    -0.01  -0.00  -0.00
     5   6     0.00   0.00   0.00    -0.00   0.00  -0.00     0.00  -0.00   0.00
     6   6    -0.02  -0.03  -0.01    -0.04  -0.02  -0.01     0.03   0.02   0.01
     7   8     0.01  -0.01  -0.00     0.01  -0.01   0.00    -0.01   0.01  -0.00
     8   8     0.01   0.07   0.00     0.03   0.03   0.02    -0.02  -0.02  -0.02
     9   6    -0.02  -0.01   0.00     0.06   0.01  -0.04    -0.09  -0.01   0.07
    10   6     0.01  -0.06   0.01     0.03  -0.00  -0.11     0.09   0.01  -0.07
    11   1    -0.60  -0.07   0.19    -0.37  -0.09   0.21     0.46   0.11  -0.22
    12   1     0.69   0.11  -0.21    -0.35   0.01   0.20     0.48   0.00  -0.21
    13   1    -0.00   0.07  -0.03    -0.08   0.02   0.50     0.00  -0.00   0.36
    14   1    -0.05   0.02   0.14    -0.27   0.16   0.29    -0.36  -0.02   0.16
    15   1     0.04   0.04  -0.17    -0.21  -0.20   0.32    -0.32  -0.08   0.16
                     28                     29                     30
                      A                      A                      A
 Frequencies --   1493.6702              1503.2248              1515.0438
 Red. masses --      1.0404                 1.0628                 1.0796
 Frc consts  --      1.3676                 1.4150                 1.4601
 IR Inten    --     12.3703                 1.5978                15.4540
  Atom  AN      X      Y      Z        X      Y      Z        X      Y      Z
     1   8    -0.00   0.00  -0.00     0.00   0.00   0.00     0.00   0.00   0.00
     2   1     0.00  -0.00   0.00    -0.00   0.00   0.00    -0.00   0.00   0.00
     3   6    -0.00  -0.00  -0.00    -0.00   0.00  -0.00    -0.01   0.00  -0.00
     4   1    -0.00   0.00   0.00    -0.00  -0.00  -0.00    -0.01  -0.00  -0.00
     5   6     0.00   0.00  -0.00     0.00  -0.00   0.00     0.00  -0.00   0.00
     6   6    -0.00   0.00  -0.00     0.01   0.00   0.00     0.02   0.00   0.00
     7   8     0.00  -0.00   0.00    -0.01   0.01   0.00    -0.01   0.01   0.00
     8   8     0.00   0.01   0.00    -0.01  -0.01  -0.01    -0.01  -0.01  -0.01
     9   6    -0.01  -0.02   0.01     0.00  -0.01  -0.05    -0.05  -0.01  -0.05
    10   6    -0.00  -0.04  -0.01     0.02  -0.01   0.03    -0.03   0.00  -0.02
    11   1     0.00   0.05  -0.12     0.20  -0.27   0.40     0.29  -0.22   0.30
    12   1     0.02  -0.05  -0.03     0.10   0.36   0.38     0.21   0.32   0.24
    13   1    -0.10   0.64  -0.15    -0.06   0.21   0.18     0.05  -0.13  -0.26
    14   1     0.51   0.26   0.04     0.01  -0.24  -0.28     0.08   0.32   0.32
    15   1    -0.37  -0.13   0.24    -0.36   0.17  -0.25     0.35  -0.22   0.32
                     31                     32                     33
                      A                      A                      A
 Frequencies --   1820.1984              1863.2306              3075.2824
 Red. masses --     10.5622                 8.8359                 1.0354
 Frc consts  --     20.6178                18.0732                 5.7695
 IR Inten    --    216.3890               324.4223                 8.9524
  Atom  AN      X      Y      Z        X      Y      Z        X      Y      Z
     1   8    -0.01  -0.02  -0.00     0.01   0.04   0.01    -0.00   0.00  -0.00
     2   1     0.03  -0.13  -0.01    -0.02   0.11   0.01     0.00  -0.00   0.00
     3   6     0.27  -0.05   0.03    -0.39   0.07  -0.05     0.00  -0.00   0.00
     4   1     0.34   0.07   0.06    -0.52  -0.05  -0.09    -0.00   0.00   0.00
     5   6    -0.34   0.07  -0.04     0.58  -0.11   0.07    -0.00   0.00  -0.00
     6   6    -0.32   0.54   0.03    -0.32   0.21  -0.02     0.00   0.00   0.00
     7   8     0.27  -0.36  -0.01     0.12  -0.15  -0.00     0.00  -0.00  -0.00
     8   8     0.01  -0.05  -0.01    -0.00  -0.03  -0.01    -0.00  -0.00  -0.00
     9   6    -0.04   0.01  -0.00    -0.00   0.01  -0.00    -0.00   0.00  -0.00
    10   6     0.01   0.00   0.01     0.00   0.00   0.00    -0.03  -0.01   0.04
    11   1     0.17  -0.05   0.06     0.06  -0.01   0.03    -0.00   0.01   0.01
    12   1     0.09   0.11   0.03     0.02   0.04   0.02     0.01  -0.02   0.02
    13   1     0.02  -0.03  -0.05     0.01  -0.02  -0.01     0.58   0.11   0.11
    14   1    -0.03  -0.02   0.00    -0.01  -0.01  -0.00    -0.22   0.44  -0.35
    15   1     0.03   0.02  -0.03     0.02   0.01  -0.02    -0.05  -0.46  -0.24
                     34                     35                     36
                      A                      A                      A
 Frequencies --   3109.0772              3150.6674              3155.5779
 Red. masses --      1.0605                 1.1018                 1.1048
 Frc consts  --      6.0396                 6.4439                 6.4816
 IR Inten    --     16.3760                12.7779                 2.4438
  Atom  AN      X      Y      Z        X      Y      Z        X      Y      Z
     1   8     0.00  -0.00  -0.00    -0.00   0.00   0.00     0.00   0.00   0.00
     2   1    -0.00   0.00   0.00     0.00  -0.00  -0.00    -0.00  -0.00  -0.00
     3   6    -0.00   0.00  -0.00     0.00  -0.00   0.00     0.00  -0.00  -0.00
     4   1    -0.00  -0.00  -0.00    -0.00  -0.00  -0.00     0.00   0.00   0.00
     5   6     0.00  -0.00   0.00    -0.00   0.00   0.00    -0.00  -0.00  -0.00
     6   6    -0.00  -0.00  -0.00     0.00   0.00  -0.00    -0.00   0.00  -0.00
     7   8    -0.00   0.00  -0.00     0.00  -0.00  -0.00     0.00  -0.00   0.00
     8   8     0.00   0.00   0.00     0.00  -0.00   0.00     0.00  -0.00  -0.00
     9   6     0.02  -0.01   0.06    -0.00  -0.03  -0.01    -0.01   0.05  -0.00
    10   6    -0.01  -0.00  -0.01    -0.07   0.04  -0.04    -0.04  -0.06  -0.03
    11   1    -0.04  -0.50  -0.27     0.02   0.27   0.15    -0.03  -0.35  -0.19
    12   1    -0.25   0.61  -0.46    -0.02   0.04  -0.03     0.11  -0.27   0.22
    13   1     0.13   0.03   0.03     0.61   0.12   0.11     0.43   0.07   0.08
    14   1     0.02  -0.05   0.03     0.24  -0.51   0.41    -0.06   0.09  -0.08
    15   1    -0.00   0.02   0.01    -0.02  -0.05  -0.04     0.05   0.61   0.33
                     37                     38                     39
                      A                      A                      A
 Frequencies --   3176.0154              3293.0482              3826.6429
 Red. masses --      1.1078                 1.1106                 1.0680
 Frc consts  --      6.5836                 7.0960                 9.2138
 IR Inten    --     11.8301                12.4017                46.1754
  Atom  AN      X      Y      Z        X      Y      Z        X      Y      Z
     1   8    -0.00   0.00  -0.00     0.00  -0.00   0.00    -0.06  -0.02  -0.01
     2   1     0.00  -0.00   0.00    -0.01   0.00  -0.00     0.92   0.32   0.20
     3   6     0.00  -0.00   0.00    -0.09  -0.03  -0.02    -0.00   0.00   0.00
     4   1    -0.00  -0.00  -0.00     0.91   0.35   0.19     0.00   0.00   0.00
     5   6    -0.00   0.00   0.00     0.01  -0.00   0.00     0.00  -0.00   0.00
     6   6     0.00  -0.00  -0.00    -0.00  -0.00  -0.00     0.00   0.00   0.00
     7   8    -0.00   0.00   0.00    -0.00   0.00   0.00    -0.00  -0.00  -0.00
     8   8    -0.00   0.00   0.00    -0.00  -0.00  -0.00    -0.00  -0.00  -0.00
     9   6     0.01  -0.08  -0.00     0.00  -0.00   0.00    -0.00  -0.00   0.00
    10   6     0.00  -0.06  -0.00    -0.00   0.00  -0.00    -0.00   0.00  -0.00
    11   1     0.04   0.56   0.32    -0.00   0.00   0.00    -0.00  -0.00  -0.00
    12   1    -0.14   0.33  -0.27    -0.00   0.00  -0.00     0.00  -0.00   0.00
    13   1     0.08   0.01   0.01     0.00   0.00   0.00     0.00  -0.00  -0.00
    14   1    -0.13   0.25  -0.21    -0.00   0.00  -0.00    -0.00  -0.00   0.00
    15   1     0.04   0.43   0.24    -0.00   0.00   0.00     0.00  -0.00  -0.00

 -------------------
 - Thermochemistry -
 -------------------
 Temperature   298.150 Kelvin.  Pressure   1.00000 Atm.
 Atom     1 has atomic number  8 and mass  15.99491
 Atom     2 has atomic number  1 and mass   1.00783
 Atom     3 has atomic number  6 and mass  12.00000
 Atom     4 has atomic number  1 and mass   1.00783
 Atom     5 has atomic number  6 and mass  12.00000
 Atom     6 has atomic number  6 and mass  12.00000
 Atom     7 has atomic number  8 and mass  15.99491
 Atom     8 has atomic number  8 and mass  15.99491
 Atom     9 has atomic number  6 and mass  12.00000
 Atom    10 has atomic number  6 and mass  12.00000
 Atom    11 has atomic number  1 and mass   1.00783
 Atom    12 has atomic number  1 and mass   1.00783
 Atom    13 has atomic number  1 and mass   1.00783
 Atom    14 has atomic number  1 and mass   1.00783
 Atom    15 has atomic number  1 and mass   1.00783
 Molecular mass:   115.03952 amu.
 Principal axes and moments of inertia in atomic units:
                           1         2         3
     Eigenvalues --   482.857111565.344001902.50880
           X            0.99961   0.02726  -0.00542
           Y           -0.02726   0.99963  -0.00011
           Z            0.00541   0.00025   0.99999
 This molecule is an asymmetric top.
 Rotational symmetry number  1.
 Warning -- assumption of classical behavior for rotation
           may cause significant error
 Rotational temperatures (Kelvin)      0.17938     0.05533     0.04553
 Rotational constants (GHZ):           3.73763     1.15294     0.94861
    1 imaginary frequencies ignored.
 Zero-point vibrational energy     298002.2 (Joules/Mol)
                                   71.22424 (Kcal/Mol)
 Warning -- explicit consideration of  12 degrees of freedom as
           vibrations may cause significant error
 Vibrational temperatures:    103.16   160.46   164.31   253.34   315.04
          (Kelvin)            410.93   446.41   509.38   529.14   616.95
                              807.29   868.80  1105.41  1151.17  1175.30
                             1274.41  1326.48  1466.49  1533.51  1621.11
                             1707.84  1732.21  1816.56  1935.84  2016.83
                             2058.77  2149.06  2162.81  2179.81  2618.86
                             2680.77  4424.65  4473.27  4533.11  4540.17
                             4569.58  4737.96  5505.69
 
 Zero-point correction=                           0.113503 (Hartree/Particle)
 Thermal correction to Energy=                    0.122364
 Thermal correction to Enthalpy=                  0.123308
 Thermal correction to Gibbs Free Energy=         0.078925
 Sum of electronic and zero-point Energies=           -420.114732
 Sum of electronic and thermal Energies=              -420.105871
 Sum of electronic and thermal Enthalpies=            -420.104927
 Sum of electronic and thermal Free Energies=         -420.149310
 
                     E (Thermal)             CV                S
                      KCal/Mol        Cal/Mol-Kelvin    Cal/Mol-Kelvin
 Total                   76.785             30.568             93.413
 Electronic               0.000              0.000              1.377
 Translational            0.889              2.981             40.136
 Rotational               0.889              2.981             28.754
 Vibrational             75.007             24.606             23.145
 Vibration     1          0.598              1.967              4.106
 Vibration     2          0.607              1.940              3.242
 Vibration     3          0.607              1.938              3.196
 Vibration     4          0.628              1.872              2.370
 Vibration     5          0.647              1.812              1.968
 Vibration     6          0.683              1.700              1.500
 Vibration     7          0.699              1.654              1.361
 Vibration     8          0.730              1.567              1.148
 Vibration     9          0.740              1.539              1.089
 Vibration    10          0.790              1.408              0.863
 Vibration    11          0.917              1.115              0.522
 Vibration    12          0.962              1.024              0.443
                       Q            Log10(Q)             Ln(Q)
 Total Bot       0.497877D-36        -36.302878        -83.590465
 Total V=0       0.803265D+16         15.904859         36.622290
 Vib (Bot)       0.119576D-49        -49.922355       -114.950472
 Vib (Bot)    1  0.287568D+01          0.458741          1.056291
 Vib (Bot)    2  0.183583D+01          0.263831          0.607494
 Vib (Bot)    3  0.179180D+01          0.253289          0.583218
 Vib (Bot)    4  0.114223D+01          0.057752          0.132979
 Vib (Bot)    5  0.903753D+00         -0.043950         -0.101199
 Vib (Bot)    6  0.671150D+00         -0.173180         -0.398762
 Vib (Bot)    7  0.609341D+00         -0.215140         -0.495377
 Vib (Bot)    8  0.519754D+00         -0.284202         -0.654400
 Vib (Bot)    9  0.495782D+00         -0.304709         -0.701618
 Vib (Bot)   10  0.406721D+00         -0.390704         -0.899628
 Vib (Bot)   11  0.276704D+00         -0.557985         -1.284807
 Vib (Bot)   12  0.246303D+00         -0.608530         -1.401192
 Vib (V=0)       0.192922D+03          2.285381          5.262284
 Vib (V=0)    1  0.341883D+01          0.533877          1.229298
 Vib (V=0)    2  0.240270D+01          0.380699          0.876592
 Vib (V=0)    3  0.236025D+01          0.372958          0.858768
 Vib (V=0)    4  0.174687D+01          0.242260          0.557824
 Vib (V=0)    5  0.153285D+01          0.185498          0.427126
 Vib (V=0)    6  0.133692D+01          0.126107          0.290372
 Vib (V=0)    7  0.128822D+01          0.109991          0.253264
 Vib (V=0)    8  0.122121D+01          0.086790          0.199842
 Vib (V=0)    9  0.120413D+01          0.080674          0.185758
 Vib (V=0)   10  0.114453D+01          0.058628          0.134996
 Vib (V=0)   11  0.107146D+01          0.029975          0.069021
 Vib (V=0)   12  0.105737D+01          0.024228          0.055788
 Electronic      0.200000D+01          0.301030          0.693147
 Translational   0.484981D+08          7.685724         17.697035
 Rotational      0.429263D+06          5.632723         12.969824
 ***** Axes restored to original set *****
 -------------------------------------------------------------------
 Center     Atomic                   Forces (Hartrees/Bohr)
 Number     Number              X              Y              Z
 -------------------------------------------------------------------
      1        8          -0.005448200    0.067333511    0.008075375
      2        1           0.000560277    0.002030541    0.000419161
      3        6           0.001391288   -0.079792601   -0.010401623
      4        1          -0.002643748    0.000904834   -0.000287393
      5        6           0.004172116    0.013022337    0.002365669
      6        6           0.002415016   -0.000655001    0.000289677
      7        8          -0.000122676   -0.001144662   -0.000142937
      8        8          -0.000282995   -0.001366769   -0.000253959
      9        6           0.000065049   -0.000262504   -0.000033980
     10        6          -0.000043097   -0.000033053   -0.000040461
     11        1          -0.000085911   -0.000027004   -0.000006520
     12        1           0.000011841   -0.000007583    0.000012368
     13        1          -0.000012603   -0.000003083    0.000021726
     14        1          -0.000004846   -0.000000860    0.000008408
     15        1           0.000028489    0.000001895   -0.000025512
 -------------------------------------------------------------------
 Cartesian Forces:  Max     0.079792601 RMS     0.015860899

 GradGradGradGradGradGradGradGradGradGradGradGradGradGradGradGradGradGrad
 Berny optimization.
 Search for a local minimum.
 Step number   1 out of a maximum of    2
 All quantities printed in internal units (Hartrees-Bohrs-Radians)
 Second derivative matrix not updated -- analytic derivatives used.
 ITU=  0
     Eigenvalues ---   -0.13066   0.00098   0.00180   0.00281   0.00342
     Eigenvalues ---    0.00350   0.01366   0.01505   0.01755   0.02642
     Eigenvalues ---    0.03221   0.03520   0.05007   0.06278   0.07397
     Eigenvalues ---    0.08091   0.08787   0.10253   0.11215   0.12880
     Eigenvalues ---    0.14057   0.14179   0.16306   0.17061   0.19996
     Eigenvalues ---    0.28606   0.29647   0.43635   0.48437   0.61859
     Eigenvalues ---    0.69202   0.77001   0.78571   0.84294   0.87278
     Eigenvalues ---    0.94230   1.02802   1.70673   1.77112
 Eigenvalue     1 is  -1.31D-01 should be greater than     0.000000 Eigenvector:
                          Y3        Y1        X4        Y5        X1
   1                    0.74589  -0.58762   0.16081  -0.13794   0.11011
                          Z3        Y2        X5        Z1        X2
   1                    0.09593  -0.09500  -0.06557  -0.05861  -0.05842
 Quadratic step=1.205D+00 exceeds max=3.000D-01 adjusted using Lamda=-2.202D-01.
 Angle between NR and scaled steps=  45.49 degrees.
 Angle between quadratic step and forces=   6.22 degrees.
 Linear search not attempted -- first point.
 B after Tr=    -0.000165    0.002130    0.000248
         Rot=    1.000000    0.000002    0.000028   -0.000173 Ang=   0.02 deg.
 Variable       Old X    -DE/DX   Delta X   Delta X   Delta X     New X
                                 (Linear)    (Quad)   (Total)
    X1        5.11983  -0.00545   0.00000  -0.02966  -0.02903   5.09080
    Y1       -2.51047   0.06733   0.00000   0.18370   0.18759  -2.32287
    Z1        0.09113   0.00808   0.00000   0.01972   0.02027   0.11140
    X2        3.42762   0.00056   0.00000   0.01857   0.01950   3.44711
    Y2       -3.09880   0.00203   0.00000   0.00585   0.00917  -3.08963
    Z2       -0.27759   0.00042   0.00000   0.00391   0.00437  -0.27322
    X3        4.70433   0.00139   0.00000   0.01529   0.01495   4.71928
    Y3        0.67073  -0.07979   0.00000  -0.22694  -0.22317   0.44756
    Z3        0.45012  -0.01040   0.00000  -0.02789  -0.02738   0.42274
    X4        6.56973  -0.00264   0.00000  -0.02148  -0.02218   6.54756
    Y4        1.39823   0.00090   0.00000  -0.00397   0.00043   1.39866
    Z4        0.83334  -0.00029   0.00000  -0.00396  -0.00335   0.82999
    X5        2.44551   0.00417   0.00000   0.01877   0.01808   2.46358
    Y5        1.47250   0.01302   0.00000   0.03141   0.03440   1.50690
    Z5        0.21047   0.00237   0.00000   0.00699   0.00737   0.21784
    X6       -0.27166   0.00242   0.00000   0.01049   0.00985  -0.26181
    Y6        1.40794  -0.00066   0.00000  -0.00324  -0.00120   1.40674
    Z6       -0.20662   0.00029   0.00000   0.00110   0.00133  -0.20529
    X7       -1.59386  -0.00012   0.00000   0.00098  -0.00030  -1.59415
    Y7        3.24877  -0.00114   0.00000  -0.00516  -0.00358   3.24519
    Z7       -0.14706  -0.00014   0.00000  -0.00067  -0.00053  -0.14759
    X8       -1.06134  -0.00028   0.00000  -0.00356  -0.00335  -1.06469
    Y8       -0.94765  -0.00137   0.00000  -0.00522  -0.00346  -0.95112
    Z8       -0.66660  -0.00025   0.00000  -0.00141  -0.00122  -0.66781
    X9       -3.74422   0.00007   0.00000  -0.00218  -0.00185  -3.74607
    Y9       -1.26104  -0.00026   0.00000  -0.00088  -0.00005  -1.26109
    Z9       -1.08070  -0.00003   0.00000  -0.00043  -0.00039  -1.08109
   X10       -5.16782  -0.00004   0.00000  -0.00167  -0.00147  -5.16928
   Y10       -1.30163  -0.00003   0.00000  -0.00039  -0.00004  -1.30168
   Z10        1.40375  -0.00004   0.00000   0.00001  -0.00003   1.40372
   X11       -3.88762  -0.00009   0.00000  -0.00163  -0.00062  -3.88824
   Y11       -3.05589  -0.00003   0.00000  -0.00089  -0.00012  -3.05600
   Z11       -2.07483  -0.00001   0.00000  -0.00035  -0.00031  -2.07514
   X12       -4.39788   0.00001   0.00000  -0.00221  -0.00233  -4.40021
   Y12        0.26034  -0.00001   0.00000  -0.00054   0.00006   0.26040
   Z12       -2.30692   0.00001   0.00000  -0.00048  -0.00048  -2.30741
   X13       -7.16415  -0.00001   0.00000  -0.00136  -0.00100  -7.16515
   Y13       -1.67852  -0.00000   0.00000  -0.00003  -0.00038  -1.67891
   Z13        1.04557   0.00002   0.00000   0.00083   0.00069   1.04626
   X14       -4.43383  -0.00000   0.00000  -0.00040   0.00025  -4.43358
   Y14       -2.78635  -0.00000   0.00000  -0.00032   0.00029  -2.78607
   Z14        2.63140   0.00001   0.00000  -0.00021  -0.00020   2.63121
   X15       -5.01267   0.00003   0.00000  -0.00002  -0.00049  -5.01317
   Y15        0.51417   0.00000   0.00000  -0.00034   0.00006   0.51424
   Z15        2.36414  -0.00003   0.00000  -0.00010  -0.00014   2.36401
         Item               Value     Threshold  Converged?
 Maximum Force            0.079793     0.000450     NO 
 RMS     Force            0.015861     0.000300     NO 
 Maximum Displacement     0.223171     0.001800     NO 
 RMS     Displacement     0.044703     0.001200     NO 
 Predicted change in Energy=-3.729533D-02
 GradGradGradGradGradGradGradGradGradGradGradGradGradGradGradGradGradGrad


 ----------------------------------------------------------------------

 Electric dipole moment (input orientation):
 (Debye = 10**-18 statcoulomb cm , SI units = C m)
                  (au)            (Debye)         (10**-30 SI)
   Tot        0.823078D+00      0.209206D+01      0.697835D+01
   x         -0.755142D+00     -0.191938D+01     -0.640236D+01
   y         -0.319657D+00     -0.812486D+00     -0.271016D+01
   z         -0.709727D-01     -0.180395D+00     -0.601732D+00

 Dipole polarizability, Alpha (input orientation).
 (esu units = cm**3 , SI units = C**2 m**2 J**-1)
 Alpha(0;0):
               (au)            (10**-24 esu)      (10**-40 SI)
   iso        0.730454D+02      0.108242D+02      0.120436D+02
   aniso      0.407337D+02      0.603610D+01      0.671607D+01
   xx         0.943677D+02      0.139839D+02      0.155591D+02
   yx        -0.741413D+01     -0.109866D+01     -0.122243D+01
   yy         0.745684D+02      0.110499D+02      0.122947D+02
   zx         0.252816D+01      0.374634D+00      0.416837D+00
   zy         0.151090D+01      0.223893D+00      0.249114D+00
   zz         0.502002D+02      0.743890D+01      0.827689D+01

 ----------------------------------------------------------------------

 Dipole orientation:
     8          1.46614851         -4.05709134         -3.73011704
     1          1.22386973         -4.03166057         -1.91729733
     6          0.52228750         -1.09955445         -4.61534842
     1          0.73725886         -1.07069186         -6.64236059
     6         -0.18829311          0.35759917         -2.83368063
     6         -0.75998484          1.20122794         -0.27974262
     8         -1.52738744          3.27690708          0.21326677
     8         -0.32572198         -0.63625990          1.39925117
     6         -0.79494779         -0.01258925          4.01811173
     6          1.38804096          1.47350493          5.12574149
     1         -1.01845256         -1.84134839          4.93245543
     1         -2.56473128          1.03632053          4.13270136
     1          1.04900759          1.79816221          7.13455670
     1          3.15117339          0.42443085          4.92309914
     1          1.57334503          3.30207842          4.19538682

 Electric dipole moment (dipole orientation):
 (Debye = 10**-18 statcoulomb cm , SI units = C m)
                  (au)            (Debye)         (10**-30 SI)
   Tot        0.823078D+00      0.209206D+01      0.697835D+01
   x          0.000000D+00      0.000000D+00      0.000000D+00
   y          0.000000D+00      0.000000D+00      0.000000D+00
   z          0.823078D+00      0.209206D+01      0.697835D+01

 Dipole polarizability, Alpha (dipole orientation).
 (esu units = cm**3 , SI units = C**2 m**2 J**-1)
 Alpha(0;0):
               (au)            (10**-24 esu)      (10**-40 SI)
   iso        0.730454D+02      0.108242D+02      0.120436D+02
   aniso      0.407337D+02      0.603610D+01      0.671607D+01
   xx         0.539203D+02      0.799017D+01      0.889026D+01
   yx        -0.108051D+02     -0.160116D+01     -0.178153D+01
   yy         0.789453D+02      0.116985D+02      0.130163D+02
   zx        -0.456242D+01     -0.676080D+00     -0.752241D+00
   zy         0.113034D+02      0.167499D+01      0.186368D+01
   zz         0.862707D+02      0.127840D+02      0.142241D+02

 ----------------------------------------------------------------------
 1\1\GINC-AJ\Freq\UM062X\6-311++G(d,p)\C5H7O3(2)\AAYUSH\16-Aug-2025\0\\
 # freq 6-311++g(d,p) m062x\\Title Card Required\\0,2\O,2.709295,-1.328
 481,0.048226\H,1.813817,-1.639814,-0.146893\C,2.489426,0.354937,0.2381
 94\H,3.476552,0.739913,0.440987\C,1.294107,0.779216,0.111377\C,-0.1437
 57,0.745049,-0.109337\O,-0.843433,1.719175,-0.077823\O,-0.561635,-0.50
 1475,-0.352747\C,-1.981357,-0.667312,-0.571881\C,-2.734691,-0.688795,0
 .742833\H,-2.057239,-1.617105,-1.097952\H,-2.327258,0.137764,-1.220772
 \H,-3.791105,-0.888236,0.553292\H,-2.346284,-1.474475,1.392479\H,-2.65
 2591,0.272089,1.25105\\Version=ES64L-G16RevA.03\State=2-A\HF=-420.2282
 35\S2=0.776647\S2-1=0.\S2A=0.750449\RMSD=4.050e-09\RMSF=1.586e-02\Zero
 Point=0.1135031\Thermal=0.1223641\Dipole=-0.7551422,-0.3196568,-0.0709
 727\DipoleDeriv=-0.3800409,-0.0982545,0.0093867,0.3663459,-0.7705157,0
 .002908,0.0699942,-0.0561491,-0.472965,0.1264952,0.0762617,-0.0241044,
 -0.0349697,0.2817616,-0.0044041,-0.0395008,0.0111668,0.3052076,0.37270
 33,-0.0338872,0.0431872,-0.439218,0.5975156,0.0243161,-0.0059471,0.071
 7263,0.0328809,0.1590744,-0.0066395,-0.0054255,0.0290348,0.0834621,-0.
 010447,0.0020073,-0.0146771,0.1803227,-0.9162808,0.0902427,-0.0847954,
 0.0975727,-0.2682673,-0.0059378,-0.1121013,-0.0070294,-0.1216793,2.112
 9011,-0.2662678,0.167476,0.456223,1.8382142,0.1552617,0.2966598,0.1423
 804,0.4482095,-0.9582171,0.458543,-0.0219247,0.1051187,-1.0431239,-0.0
 305507,-0.061425,-0.0088456,-0.3526227,-1.3955262,-0.3754717,-0.069390
 1,-0.7156645,-1.0706682,-0.1291122,-0.2052193,-0.1654667,-0.3651684,0.
 9500605,0.2502999,-0.0055621,0.1657219,0.3176508,0.0044705,0.0166587,0
 .0605673,0.3430241,-0.0767138,-0.0497606,0.0252981,-0.022776,0.0167047
 ,-0.0174195,0.0592558,-0.0376724,-0.0712646,-0.010485,0.0004262,0.0271
 918,-0.0442312,-0.041772,-0.0888743,0.0006242,-0.0635352,0.0151378,-0.
 0272829,-0.044395,0.0048196,0.0398466,0.0056373,0.0937871,-0.0057182,0
 .0344935,-0.010321,-0.1076622,-0.0458265,-0.0162751,-0.0432442,0.08891
 6,-0.0023106,-0.0241123,0.0048079,0.0557575,0.0491149,0.0717794,-0.039
 3997,0.0411049,-0.0083019,0.0777824,0.0080316,0.0554166,-0.0073681,0.1
 018595,-0.02705,-0.0104825,-0.000865,-0.0272131,-0.0694696,0.0007924,-
 0.0271835,0.0208492\Polar=94.3677264,-7.4141336,74.5684406,2.5281579,1
 .5109031,50.2001648\Quadrupole=2.4786934,-3.1821405,0.7034471,7.927697
 8,1.2314058,0.8211062\PG=C01 [X(C5H7O3)]\NImag=1\\0.53066770,0.1369910
 5,0.06081628,0.10408447,0.02839582,0.04907790,-0.46083267,-0.15345465,
 -0.09894821,0.45343813,-0.11896717,-0.08046136,-0.03107984,0.14373314,
 0.09435582,-0.09432734,-0.03704345,-0.02400816,0.09626022,0.03701613,0
 .02507136,-0.06580152,-0.05229180,-0.01146528,0.00453413,-0.02788211,-
 0.00269946,1.01753395,-0.02969517,0.10184325,0.01380642,0.00751009,-0.
 00620313,0.00084453,0.03058865,-0.00455251,-0.00852140,0.01095442,-0.0
 3897245,0.00211864,-0.00530902,-0.00204785,0.14350180,-0.01013953,0.12
 916909,0.00425891,0.00433042,0.00055183,0.00021783,0.00151032,-0.00001
 254,-0.31640216,-0.11018951,-0.05821115,0.32418285,-0.01748799,-0.0223
 3907,-0.00644416,0.00207756,-0.00583194,-0.00059265,-0.11708130,-0.055
 29125,-0.02079075,0.10791201,0.08331713,-0.00237346,-0.00298249,0.0039
 1093,0.00004340,-0.00072328,0.00152008,-0.05905027,-0.01981468,-0.0448
 3066,0.06133720,0.02523581,0.03088149,-0.00783410,0.07091411,0.0064851
 3,0.00068911,0.00179337,0.00051091,-0.63418663,0.10065055,-0.07813068,
 -0.01184716,0.02366504,0.00082596,0.98226595,0.03143635,-0.06777502,-0
 .00559937,0.00034667,-0.00064563,-0.00003914,0.14181641,-0.01972320,0.
 02371488,-0.00172313,-0.00194224,-0.00100789,-0.16738401,0.13601120,0.
 00130368,0.00032757,0.01146107,0.00023145,0.00028020,-0.00030564,-0.07
 261263,0.01747100,-0.04413461,-0.00252964,0.00288351,0.00332271,0.1194
 8768,-0.01409123,0.06795219,0.00127331,-0.01941203,-0.00205067,0.00478
 194,0.00229466,0.00091877,-0.01120498,0.01485762,0.00051241,0.00024464
 ,-0.00090413,-0.00132354,-0.23269160,-0.00390273,-0.02539576,0.7506543
 8,-0.00424074,0.00060965,-0.00019971,0.00548570,-0.00168051,0.00046364
 ,0.02187220,-0.00646788,0.00268080,-0.00161079,0.00141791,-0.00112594,
 -0.03859819,-0.02784603,-0.00055328,-0.21374934,0.81245722,-0.00005972
 ,-0.00251736,-0.00255042,0.00138167,-0.00003182,0.00083375,0.00119343,
 0.00152979,-0.00058969,-0.00139301,-0.00099179,0.00758917,-0.03012415,
 0.00502185,-0.07220962,0.05274241,0.05303418,0.22255387,-0.00068794,0.
 00496260,0.00056793,-0.00102616,-0.00105096,-0.00030463,-0.00189546,-0
 .00391499,-0.00100623,0.00013054,0.00052542,0.00029864,-0.05350949,0.0
 3728108,-0.00607910,-0.34310409,0.32562992,0.00562705,0.36879196,0.000
 92320,-0.00015206,0.00012227,-0.00148447,0.00060183,-0.00014208,-0.002
 67338,0.00144167,-0.00037051,0.00012874,-0.00028778,0.00018063,0.04211
 415,-0.00661279,0.00241602,0.30464345,-0.51719856,-0.01562214,-0.37310
 517,0.62950102,0.00006725,0.00069310,-0.00002580,-0.00036291,-0.000063
 48,-0.00006277,-0.00084541,-0.00056186,0.00103443,0.00024912,0.0002187
 2,-0.00129908,-0.00542698,0.00171332,0.02069726,0.00235890,-0.01073933
 ,-0.08137848,-0.00154867,0.02754667,0.03816712,-0.00172303,0.00850274,
 0.00070045,-0.00101850,-0.00193941,-0.00021896,0.00780735,-0.00989650,
 -0.00020218,-0.00065776,0.00131004,0.00025234,-0.04586783,-0.03691144,
 -0.01443111,-0.13935046,-0.07212816,-0.01958266,0.03295165,0.01906347,
 0.00167804,0.41872728,0.00080967,0.00691091,0.00089931,-0.00354069,-0.
 00089621,-0.00051151,0.00499328,-0.00953911,-0.00066093,-0.00015360,0.
 00073556,0.00022446,-0.03048113,-0.00864061,-0.00743789,-0.03639163,-0
 .25426965,-0.03061922,0.01415255,-0.10684111,-0.01882560,0.08433842,0.
 45559764,-0.00020128,0.00216373,0.00099571,-0.00058474,-0.00023540,-0.
 00103869,0.00183708,-0.00299574,0.00059173,0.00002029,0.00039833,-0.00
 077418,-0.01275290,-0.00816241,0.00827105,-0.01588042,-0.03786782,-0.0
 7261921,0.00192509,-0.01694041,0.02761235,0.05953866,0.06449931,0.0995
 6565,0.00099614,-0.00184118,-0.00005720,-0.00097975,0.00113949,-0.0000
 3897,-0.00121453,0.00138055,-0.00004172,-0.00010512,-0.00017744,-0.000
 05759,0.00603690,0.00030189,0.00117034,-0.02420761,-0.04425329,-0.0117
 9956,-0.00687404,0.01814473,0.00207103,-0.17854292,-0.00376285,-0.0220
 5117,0.42593541,0.00023133,0.00018290,0.00004161,-0.00058892,0.0008909
 4,0.00007177,0.00056967,-0.00109243,-0.00003239,-0.00022220,0.00017855
 ,0.00001125,-0.00244973,-0.00280843,-0.00141273,-0.04575713,-0.0090701
 5,-0.00984651,-0.00067557,0.00165854,0.00052969,0.01740789,-0.08963717
 ,0.00044092,-0.02174032,0.65809997,-0.00000295,-0.00016511,0.00004566,
 -0.00006993,0.00026285,0.00010361,0.00012707,0.00006775,-0.00021165,-0
 .00002546,0.00007064,-0.00034222,-0.00088017,-0.00169976,0.00534922,-0
 .01076376,-0.01214360,-0.00306080,-0.00259555,0.00314272,-0.00534518,-
 0.01949675,-0.00185996,-0.06883652,0.02117220,0.00539660,0.55504026,-0
 .00012412,0.00052935,0.00003847,0.00007683,-0.00025945,-0.00000760,0.0
 0028950,-0.00049240,0.00006045,0.00000061,0.00004581,0.00009480,-0.000
 88205,-0.00010115,-0.00175518,-0.00012523,0.00652158,0.00290199,0.0008
 5110,-0.00257711,0.00128655,-0.04214422,-0.00822186,0.03081288,-0.0948
 7775,0.00120946,0.04557325,0.56037797,-0.00004136,0.00000355,0.0000581
 9,0.00003256,-0.00002284,-0.00010049,0.00001997,0.00000630,0.00001365,
 0.00000534,0.00000303,0.00001069,-0.00000407,-0.00004893,-0.00017372,-
 0.00189554,0.00235167,0.00191014,0.00114612,0.00004993,-0.00079460,-0.
 00617628,0.00074283,0.00526499,0.00153217,-0.08607243,-0.00146347,-0.0
 0121805,0.58986715,-0.00000304,0.00030088,-0.00000832,-0.00000958,-0.0
 0013461,0.00004303,0.00004307,-0.00033032,0.00001264,0.00000977,0.0000
 2370,0.00003228,-0.00003683,0.00010627,-0.00060685,-0.00120270,0.00474
 745,0.00172428,0.00217203,-0.00128908,-0.00091116,-0.00366462,-0.00281
 963,0.01000015,0.05749379,0.00101100,-0.19542705,0.04390860,0.00351169
 ,0.51963516,-0.00007184,0.00066457,0.00013189,-0.00013948,-0.00014321,
 -0.00010791,0.00041589,-0.00081721,-0.00005518,-0.00003963,0.00011410,
 -0.00002914,-0.00161593,-0.00088966,0.00011240,-0.00569393,0.00464107,
 -0.00208090,0.00242327,-0.00101197,0.00041754,-0.02019070,-0.04049978,
 -0.01915118,-0.04488957,-0.00234787,-0.00379755,0.00239599,0.01576923,
 0.00781459,0.06518851,-0.00005458,0.00022100,0.00006414,-0.00000141,-0
 .00005670,-0.00007134,0.00011396,-0.00025094,-0.00000412,-0.00000297,0
 .00002811,0.00000999,-0.00028172,-0.00001779,-0.00022789,0.00112764,0.
 00033087,-0.00016934,-0.00151867,0.00026447,-0.00044122,-0.00316836,-0
 .00235603,-0.00025169,-0.01467694,-0.26709059,-0.11441753,0.00109817,0
 .00375887,0.00212125,0.01823544,0.28098629,0.00003291,0.00014219,-0.00
 001655,-0.00009651,-0.00008799,0.00004839,0.00004518,-0.00015483,-0.00
 000917,-0.00000456,0.00002049,-0.00000886,-0.00034565,-0.00012495,0.00
 007958,-0.00063603,0.00292967,0.00006840,0.00130051,0.00000898,0.00061
 659,-0.00425871,-0.00643312,-0.00174396,-0.00865282,-0.11273581,-0.114
 06368,-0.00038057,-0.02608446,-0.01413910,0.00823449,0.12482664,0.1202
 8869,-0.00015723,0.00015209,0.00003713,0.00025074,-0.00024092,-0.00004
 758,0.00015056,-0.00000960,-0.00003315,0.00002865,0.00000443,-0.000026
 93,-0.00055159,-0.00019701,0.00056037,0.00045629,0.00840558,0.00018264
 ,0.00187545,-0.00288151,0.00007563,-0.03210976,0.01991585,-0.02470064,
 -0.07154765,0.05455301,-0.04465647,0.00771672,-0.01361069,0.01113676,0
 .00246540,-0.00117970,0.00233001,0.09233749,0.00005099,0.00001602,-0.0
 0001717,-0.00005354,-0.00002377,0.00002478,-0.00000223,-0.00001422,-0.
 00005899,0.00001781,0.00000082,-0.00004329,0.00014489,-0.00010501,0.00
 085427,-0.00210697,0.00101511,-0.00112654,-0.00119391,-0.00174580,-0.0
 0127744,-0.00145668,0.00646259,-0.00585457,0.06457412,-0.20634134,0.12
 289285,-0.00089020,0.00160748,-0.00132310,0.00765364,-0.01774088,0.016
 36671,-0.06586892,0.21523494,0.00000335,-0.00008634,0.00002177,0.00001
 907,-0.00000747,-0.00003534,0.00004999,0.00010932,0.00000834,-0.000001
 03,-0.00001052,-0.00000238,0.00009275,-0.00019360,-0.00001643,-0.00148
 132,0.00391819,0.00097559,0.00206034,-0.00102111,0.00005574,-0.0064220
 1,0.00035616,-0.00222404,-0.04823501,0.11686123,-0.14564941,-0.0076984
 8,0.02205292,-0.01708220,0.00605006,-0.01152491,0.01130573,0.05290933,
 -0.12995427,0.15498234,-0.00005300,0.00016602,0.00002083,0.00004020,-0
 .00007011,-0.00001908,0.00008855,-0.00018811,-0.00001038,0.00001036,0.
 00001881,0.00001684,-0.00031029,0.00002844,-0.00024010,0.00070243,0.00
 250501,0.00048796,0.00036547,-0.00072195,0.00003888,-0.00225677,-0.001
 73219,0.00365061,-0.01456187,-0.00264650,-0.00644270,-0.30138081,-0.04
 848676,-0.04577019,0.00032127,0.00047869,0.00007236,0.00036908,-0.0003
 2277,0.00022084,0.32696921,0.00000967,0.00006171,-0.00000647,-0.000016
 53,-0.00001513,0.00002314,-0.00000607,-0.00008216,0.00000296,0.0000032
 7,0.00000661,0.00000959,-0.00005347,0.00009138,-0.00017054,0.00079676,
 -0.00072595,-0.00042797,-0.00063206,0.00003595,0.00063492,0.00064956,0
 .00145704,0.00009547,-0.00020911,-0.00229281,-0.00020648,-0.04897640,-
 0.05480222,-0.00886966,-0.00007300,0.00001316,0.00021716,0.00010595,-0
 .00003321,0.00004569,0.05325606,0.05498870,0.00002762,-0.00018272,0.00
 003349,-0.00001971,0.00007601,-0.00004673,-0.00007528,0.00018369,-0.00
 001590,0.00000544,-0.00001690,-0.00002607,0.00027346,0.00010995,0.0004
 2121,0.00042731,-0.00297171,-0.00112491,-0.00084582,0.00099072,0.00020
 036,0.00767301,0.00229145,-0.00501965,0.02546522,0.00527734,0.00899101
 ,-0.04794665,-0.00899063,-0.05677701,-0.00062682,-0.00072862,0.0009702
 5,-0.00095334,0.00061254,0.00076272,0.04938036,0.00970076,0.05816963,0
 .00005934,-0.00000684,-0.00005588,-0.00005366,0.00001577,0.00006873,-0
 .00004158,-0.00000380,0.00001174,-0.00000701,-0.00000247,-0.00000278,0
 .00009460,0.00001127,0.00002780,-0.00012575,-0.00130681,-0.00023770,-0
 .00038232,0.00038570,0.00003105,0.00281817,0.00069726,-0.00080148,0.00
 461193,-0.01424911,0.01237788,-0.08270935,0.07227724,-0.05975017,0.000
 42476,0.00015869,-0.00099908,-0.00149009,-0.00012330,0.00338211,-0.009
 51683,0.02353028,-0.01815501,0.08607244,0.00002217,0.00006119,-0.00006
 634,-0.00002933,0.00000817,0.00008493,-0.00001623,-0.00007761,0.000001
 88,-0.00000757,0.00000311,0.00001390,-0.00010278,0.00004497,-0.0001106
 5,0.00043018,-0.00115163,0.00022325,-0.00082860,0.00033278,0.00031778,
 -0.00038587,0.00017264,-0.00042372,-0.00089619,0.00074995,-0.00073133,
 0.07192982,-0.19226460,0.11568780,-0.00062583,0.00063801,0.00010344,0.
 00048544,0.00114067,-0.00036497,-0.00227436,0.00500541,-0.00536504,-0.
 07850443,0.20329940,-0.00002893,-0.00012292,0.00001130,0.00006608,0.00
 006336,-0.00004218,-0.00001828,0.00012020,0.00000465,-0.00000111,-0.00
 001167,0.00000357,0.00008615,0.00000456,-0.00003525,0.00000431,0.00031
 568,-0.00000197,-0.00005626,-0.00020858,0.00020503,-0.00112877,-0.0012
 9577,0.00274699,-0.01223082,0.02316194,-0.02043399,-0.05695899,0.11418
 209,-0.14111055,-0.00044613,-0.00030826,0.00092668,0.00375530,-0.00100
 155,-0.00412547,-0.00120106,0.00262628,-0.00337909,0.06126833,-0.12692
 225,0.15501200,0.00003005,-0.00020646,-0.00004087,0.00002129,0.0000666
 0,0.00002545,-0.00007307,0.00021983,0.00000703,-0.00001555,-0.00001989
 ,-0.00000547,0.00021010,-0.00011296,0.00014980,-0.00160931,0.00082626,
 0.00076055,0.00009007,-0.00094790,-0.00009002,0.00155751,-0.00012328,-
 0.00166081,0.00022044,0.01670597,0.00948088,-0.04946518,-0.01934990,-0
 .01214147,-0.00099401,-0.00032825,0.00335848,0.00020594,-0.00042293,-0
 .00094997,-0.00078699,-0.02838490,-0.01462978,0.00024536,0.01080358,0.
 00689016,0.05036336,0.00001259,0.00000105,0.00002530,-0.00001617,-0.00
 001953,-0.00002828,-0.00002101,0.00000322,-0.00000235,0.00000187,0.000
 00145,0.00000125,0.00007298,0.00001813,-0.00005464,-0.00003082,0.00022
 795,-0.00036652,-0.00077775,-0.00104811,0.00104933,0.00079057,0.000100
 68,-0.00013099,0.00048436,0.00264449,0.00085381,-0.01859756,-0.2651797
 9,-0.11274364,-0.00066955,0.00127215,0.00100589,0.00036599,0.00052661,
 -0.00018032,-0.00001028,-0.00370848,-0.00098684,-0.00287945,-0.0179624
 6,-0.01060309,0.02127422,0.28312264,-0.00000115,0.00012269,0.00002386,
 -0.00002892,-0.00002565,-0.00003286,-0.00003100,-0.00013575,-0.0000088
 9,0.00000485,0.00000723,0.00002322,-0.00006468,0.00024753,-0.00024590,
 0.00177009,-0.00248821,-0.00020998,-0.00151534,0.00118589,0.00043358,-
 0.00043672,0.00219293,0.00247261,-0.00420772,-0.02877590,-0.01615927,-
 0.00992952,-0.10939697,-0.10538528,0.00353382,0.00112289,-0.00432300,-
 0.00056906,-0.00009424,0.00102306,-0.00020517,-0.00367484,-0.00315932,
 0.00283448,0.01755132,0.01021829,0.00884605,0.12216106,0.11532990\\0.0
 0544820,-0.06733351,-0.00807538,-0.00056028,-0.00203054,-0.00041916,-0
 .00139129,0.07979260,0.01040162,0.00264375,-0.00090483,0.00028739,-0.0
 0417212,-0.01302234,-0.00236567,-0.00241502,0.00065500,-0.00028968,0.0
 0012268,0.00114466,0.00014294,0.00028300,0.00136677,0.00025396,-0.0000
 6505,0.00026250,0.00003398,0.00004310,0.00003305,0.00004046,0.00008591
 ,0.00002700,0.00000652,-0.00001184,0.00000758,-0.00001237,0.00001260,0
 .00000308,-0.00002173,0.00000485,0.00000086,-0.00000841,-0.00002849,-0
 .00000190,0.00002551\\\@


 WHEN YOU REACH FOR THE STARS, YOU MAY NOT QUITE GET ONE,
 BUT YOU WON'T COME UP WITH A HANDFUL OF MUD, EITHER.

                                         -- LEO BURNETT (AD AGENCY HEAD)
 Job cpu time:       0 days  0 hours 53 minutes 15.6 seconds.
 Elapsed time:       0 days  0 hours  2 minutes 13.5 seconds.
 File lengths (MBytes):  RWF=    153 Int=      0 D2E=      0 Chk=      7 Scr=      1
 Normal termination of Gaussian 16 at Sat Aug 16 19:23:00 2025.
