 Entering Gaussian System, Link 0=g16
 Initial command:
 /opt/g16/l1.exe "/home/aayush/scratches/g16/Gau-11643.inp" -scrdir="/home/aayush/scratches/g16/"
 Entering Link 1 = /opt/g16/l1.exe PID=     11646.
  
 Copyright (c) 1988,1990,1992,1993,1995,1998,2003,2009,2016,
            Gaussian, Inc.  All Rights Reserved.
  
 This is part of the Gaussian(R) 16 program.  It is based on
 the Gaussian(R) 09 system (copyright 2009, Gaussian, Inc.),
 the Gaussian(R) 03 system (copyright 2003, Gaussian, Inc.),
 the Gaussian(R) 98 system (copyright 1998, Gaussian, Inc.),
 the Gaussian(R) 94 system (copyright 1995, Gaussian, Inc.),
 the Gaussian 92(TM) system (copyright 1992, Gaussian, Inc.),
 the Gaussian 90(TM) system (copyright 1990, Gaussian, Inc.),
 the Gaussian 88(TM) system (copyright 1988, Gaussian, Inc.),
 the Gaussian 86(TM) system (copyright 1986, Carnegie Mellon
 University), and the Gaussian 82(TM) system (copyright 1983,
 Carnegie Mellon University). Gaussian is a federally registered
 trademark of Gaussian, Inc.
  
 This software contains proprietary and confidential information,
 including trade secrets, belonging to Gaussian, Inc.
  
 This software is provided under written license and may be
 used, copied, transmitted, or stored only in accord with that
 written license.
  
 The following legend is applicable only to US Government
 contracts under FAR:
  
                    RESTRICTED RIGHTS LEGEND
  
 Use, reproduction and disclosure by the US Government is
 subject to restrictions as set forth in subparagraphs (a)
 and (c) of the Commercial Computer Software - Restricted
 Rights clause in FAR 52.227-19.
  
 Gaussian, Inc.
 340 Quinnipiac St., Bldg. 40, Wallingford CT 06492
  
  
 ---------------------------------------------------------------
 Warning -- This program may not be used in any manner that
 competes with the business of Gaussian, Inc. or will provide
 assistance to any competitor of Gaussian, Inc.  The licensee
 of this program is prohibited from giving any competitor of
 Gaussian, Inc. access to this program.  By using this program,
 the user acknowledges that Gaussian, Inc. is engaged in the
 business of creating and licensing software in the field of
 computational chemistry and represents and warrants to the
 licensee that it is not a competitor of Gaussian, Inc. and that
 it will not use this program in any manner prohibited above.
 ---------------------------------------------------------------
  

 Cite this work as:
 Gaussian 16, Revision A.03,
 M. J. Frisch, G. W. Trucks, H. B. Schlegel, G. E. Scuseria, 
 M. A. Robb, J. R. Cheeseman, G. Scalmani, V. Barone, 
 G. A. Petersson, H. Nakatsuji, X. Li, M. Caricato, A. V. Marenich, 
 J. Bloino, B. G. Janesko, R. Gomperts, B. Mennucci, H. P. Hratchian, 
 J. V. Ortiz, A. F. Izmaylov, J. L. Sonnenberg, D. Williams-Young, 
 F. Ding, F. Lipparini, F. Egidi, J. Goings, B. Peng, A. Petrone, 
 T. Henderson, D. Ranasinghe, V. G. Zakrzewski, J. Gao, N. Rega, 
 G. Zheng, W. Liang, M. Hada, M. Ehara, K. Toyota, R. Fukuda, 
 J. Hasegawa, M. Ishida, T. Nakajima, Y. Honda, O. Kitao, H. Nakai, 
 T. Vreven, K. Throssell, J. A. Montgomery, Jr., J. E. Peralta, 
 F. Ogliaro, M. J. Bearpark, J. J. Heyd, E. N. Brothers, K. N. Kudin, 
 V. N. Staroverov, T. A. Keith, R. Kobayashi, J. Normand, 
 K. Raghavachari, A. P. Rendell, J. C. Burant, S. S. Iyengar, 
 J. Tomasi, M. Cossi, J. M. Millam, M. Klene, C. Adamo, R. Cammi, 
 J. W. Ochterski, R. L. Martin, K. Morokuma, O. Farkas, 
 J. B. Foresman, and D. J. Fox, Gaussian, Inc., Wallingford CT, 2016.
 
 ******************************************
 Gaussian 16:  ES64L-G16RevA.03 25-Dec-2016
                 6-Aug-2025 
 ******************************************
 %nprocshared=24
 Will use up to   24 processors via shared memory.
 %mem=12GB
 %chk=ethyl_propiolate_ts1.chk
 --------------------------
 # ccsd(t)/6-311++g(d,p) sp
 --------------------------
 1/38=1,172=1/1;
 2/12=2,17=6,18=5,40=1/2;
 3/5=4,6=6,7=1111,11=9,25=1,30=1/1,2,3;
 4//1;
 5/5=2,38=5/2;
 8/6=4,9=120000,10=2/1,4;
 9/5=7,14=2/13;
 6/7=2,8=2,9=2,10=2/1;
 99/5=1,9=1/99;
 -------------------
 Title Card Required
 -------------------
 Symbolic Z-matrix:
 Charge =  0 Multiplicity = 2
 O                     2.78617  -1.4448    0.02455 
 H                     1.86296  -1.68282  -0.16594 
 C                     2.54121   0.6414    0.25783 
 H                     3.59135   0.70696   0.42697 
 C                     1.35483   0.79029   0.09541 
 C                    -0.08234   0.78449  -0.12124 
 O                    -0.7822    1.75594  -0.09302 
 O                    -0.49854  -0.46522  -0.36083 
 C                    -1.91694  -0.63252  -0.57915 
 C                    -2.67062  -0.65093   0.73558 
 H                    -1.99303  -1.58382  -1.10264 
 H                    -2.26428   0.17027  -1.23022 
 H                    -3.72695  -0.85159   0.54691 
 H                    -2.28149  -1.43423   1.38769 
 H                    -2.58888   0.31149   1.24095 
 
                          Input orientation:                          
 ---------------------------------------------------------------------
 Center     Atomic      Atomic             Coordinates (Angstroms)
 Number     Number       Type             X           Y           Z
 ---------------------------------------------------------------------
      1          8           0        2.786166   -1.444803    0.024554
      2          1           0        1.862963   -1.682822   -0.165941
      3          6           0        2.541211    0.641399    0.257829
      4          1           0        3.591348    0.706964    0.426972
      5          6           0        1.354834    0.790291    0.095413
      6          6           0       -0.082338    0.784488   -0.121237
      7          8           0       -0.782195    1.755936   -0.093021
      8          8           0       -0.498542   -0.465216   -0.360826
      9          6           0       -1.916936   -0.632520   -0.579148
     10          6           0       -2.670624   -0.650926    0.735583
     11          1           0       -1.993025   -1.583816   -1.102642
     12          1           0       -2.264282    0.170270   -1.230224
     13          1           0       -3.726948   -0.851586    0.546911
     14          1           0       -2.281491   -1.434229    1.387685
     15          1           0       -2.588881    0.311487    1.240945
 ---------------------------------------------------------------------
                    Distance matrix (angstroms):
                    1          2          3          4          5
     1  O    0.000000
     2  H    0.972237   0.000000
     3  C    2.113447   2.457968   0.000000
     4  H    2.332458   3.008311   1.065690   0.000000
     5  C    2.655066   2.538265   1.206664   2.262492   0.000000
     6  C    3.635837   3.142262   2.654652   3.715173   1.453422
     7  O    4.794972   4.339036   3.522828   4.527539   2.352631
     8  O    3.449263   2.664067   3.293544   4.326873   2.284613
     9  C    4.810762   3.944808   4.711526   5.757403   3.630964
    10  C    5.559888   4.736134   5.390879   6.414936   4.323336
    11  H    4.912287   3.969364   5.230847   6.226766   4.275498
    12  H    5.448849   4.647666   5.052626   6.109234   3.903811
    13  H    6.560901   5.696158   6.449991   7.483376   5.359489
    14  H    5.247798   4.433063   5.370592   6.324390   4.454359
    15  H    5.784055   5.076959   5.233852   6.246134   4.134536
                    6          7          8          9         10
     6  C    0.000000
     7  O    1.197626   0.000000
     8  O    1.338801   2.255148   0.000000
     9  C    2.362910   2.688620   1.444817   0.000000
    10  C    3.081198   3.169500   2.440193   1.515553   0.000000
    11  H    3.197303   3.693154   2.008740   1.088485   2.169907
    12  H    2.523489   2.450337   2.068220   1.090422   2.168842
    13  H    4.050474   3.985004   3.375777   2.142928   1.091642
    14  H    3.469269   3.823288   2.678653   2.155010   1.090974
    15  H    2.891717   2.670208   2.745625   2.157637   1.090097
                   11         12         13         14         15
    11  H    0.000000
    12  H    1.779515   0.000000
    13  H    2.502733   2.518291   0.000000
    14  H    2.511437   3.070531   1.770796   0.000000
    15  H    3.072396   2.496394   1.769073   1.778636   0.000000
 Stoichiometry    C5H7O3(2)
 Framework group  C1[X(C5H7O3)]
 Deg. of freedom    39
 Full point group                 C1      NOp   1
 Largest Abelian subgroup         C1      NOp   1
 Largest concise Abelian subgroup C1      NOp   1
                         Standard orientation:                         
 ---------------------------------------------------------------------
 Center     Atomic      Atomic             Coordinates (Angstroms)
 Number     Number       Type             X           Y           Z
 ---------------------------------------------------------------------
      1          8           0        2.786166   -1.444803    0.024554
      2          1           0        1.862963   -1.682822   -0.165941
      3          6           0        2.541211    0.641399    0.257829
      4          1           0        3.591348    0.706964    0.426972
      5          6           0        1.354834    0.790291    0.095413
      6          6           0       -0.082338    0.784488   -0.121237
      7          8           0       -0.782195    1.755936   -0.093021
      8          8           0       -0.498542   -0.465216   -0.360826
      9          6           0       -1.916936   -0.632520   -0.579148
     10          6           0       -2.670624   -0.650926    0.735583
     11          1           0       -1.993025   -1.583816   -1.102642
     12          1           0       -2.264282    0.170270   -1.230224
     13          1           0       -3.726948   -0.851586    0.546911
     14          1           0       -2.281491   -1.434229    1.387685
     15          1           0       -2.588881    0.311487    1.240945
 ---------------------------------------------------------------------
 Rotational constants (GHZ):           3.4884872           1.1506714           0.9308116
 Standard basis: 6-311++G(d,p) (5D, 7F)
 There are   233 symmetry adapted cartesian basis functions of A   symmetry.
 There are   225 symmetry adapted basis functions of A   symmetry.
   225 basis functions,   351 primitive gaussians,   233 cartesian basis functions
    31 alpha electrons       30 beta electrons
       nuclear repulsion energy       350.8964527380 Hartrees.
 NAtoms=   15 NActive=   15 NUniq=   15 SFac= 1.00D+00 NAtFMM=   60 NAOKFM=F Big=F
 Integral buffers will be    131072 words long.
 Raffenetti 2 integral format.
 Two-electron integral symmetry is turned on.
 One-electron integrals computed using PRISM.
 NBasis=   225 RedAO= T EigKep=  1.22D-06  NBF=   225
 NBsUse=   225 1.00D-06 EigRej= -1.00D+00 NBFU=   225
 ExpMin= 3.60D-02 ExpMax= 8.59D+03 ExpMxC= 1.30D+03 IAcc=3 IRadAn=         5 AccDes= 0.00D+00
 Harris functional with IExCor=  205 and IRadAn=       5 diagonalized for initial guess.
 HarFok:  IExCor=  205 AccDes= 0.00D+00 IRadAn=         5 IDoV= 1 UseB2=F ITyADJ=14
 ICtDFT=  3500011 ScaDFX=  1.000000  1.000000  1.000000  1.000000
 FoFCou: FMM=F IPFlag=           0 FMFlag=      100000 FMFlg1=           0
         NFxFlg=           0 DoJE=T BraDBF=F KetDBF=T FulRan=T
         wScrn=  0.000000 ICntrl=       500 IOpCl=  0 I1Cent=   200000004 NGrid=           0
         NMat0=    1 NMatS0=      1 NMatT0=    0 NMatD0=    1 NMtDS0=    0 NMtDT0=    0
 Petite list used in FoFCou.
 Initial guess <Sx>= 0.0000 <Sy>= 0.0000 <Sz>= 0.5000 <S**2>= 0.7500 S= 0.5000
 Requested convergence on RMS density matrix=1.00D-08 within 128 cycles.
 Requested convergence on MAX density matrix=1.00D-06.
 Requested convergence on             energy=1.00D-06.
 No special actions if energy rises.
 Initial convergence to 1.0D-05 achieved.  Increase integral accuracy.
 SCF Done:  E(UHF) =  -417.986713345     A.U. after   33 cycles
            NFock= 33  Conv=0.89D-08     -V/T= 2.0006
 <Sx>= 0.0000 <Sy>= 0.0000 <Sz>= 0.5000 <S**2>= 0.9264 S= 0.5846
 <L.S>=  0.00000000000    
 Annihilation of the first spin contaminant:
 S**2 before annihilation     0.9264,   after     0.7701
 ExpMin= 3.60D-02 ExpMax= 8.59D+03 ExpMxC= 1.30D+03 IAcc=3 IRadAn=         5 AccDes= 0.00D+00
 HarFok:  IExCor=  205 AccDes= 0.00D+00 IRadAn=         5 IDoV=-2 UseB2=F ITyADJ=14
 ICtDFT= 12500011 ScaDFX=  1.000000  1.000000  1.000000  1.000000
 Range of M.O.s used for correlation:     9   225
 NBasis=   225 NAE=    31 NBE=    30 NFC=     8 NFV=     0
 NROrb=    217 NOA=    23 NOB=    22 NVA=   194 NVB=   195

 **** Warning!!: The largest alpha MO coefficient is  0.29659994D+03


 **** Warning!!: The largest beta MO coefficient is  0.29409185D+03

 Semi-Direct transformation.
 ModeAB=           4 MOrb=            23 LenV=    1609177395
 LASXX=    109339976 LTotXX=   109339976 LenRXX=   221407890
 LTotAB=   112067914 MaxLAS=   126841274 LenRXY=           0
 NonZer=   330747866 LenScr=   498067456 LnRSAI=   126841274
 LnScr1=   191014912 LExtra=           0 Total=   1037331532
 MaxDsk=          -1 SrtSym=           T ITran=            4
 JobTyp=1 Pass  1:  I=   1 to  23.
 (rs|ai) integrals will be sorted in core.
 ModeAB=           4 MOrb=            22 LenV=    1609177395
 LASXX=    104936601 LTotXX=   104936601 LenRXX=   190867446
 LTotAB=    85930845 MaxLAS=   121326436 LenRXY=           0
 NonZer=   295804047 LenScr=   445446144 LnRSAI=   121326436
 LnScr1=   182766080 LExtra=           0 Total=    940406106
 MaxDsk=          -1 SrtSym=           T ITran=            4
 JobTyp=2 Pass  1:  I=   1 to  22.
 (rs|ai) integrals will be sorted in core.
 SymMOI:  orbitals are not symmetric.
 Spin components of T(2) and E(2):
     alpha-alpha T2 =       0.5133743434D-01 E2=     -0.1684008617D+00
     alpha-beta  T2 =       0.2833968409D+00 E2=     -0.9313140601D+00
     beta-beta   T2 =       0.5056079821D-01 E2=     -0.1571780044D+00
 ANorm=    0.1176985588D+01
 E2 =    -0.1256892926D+01 EUMP2 =    -0.41924360627160D+03
 (S**2,0)=  0.92636D+00           (S**2,1)=  0.87658D+00
 E(PUHF)=      -0.41800152738D+03        E(PMP2)=      -0.41925646153D+03
 Keep R2 and R3 ints in memory in canonical form, NReq=652884060.
 CIDS: In Core Option IDoMem=           1.
 Iterations=  50 Convergence= 0.100D-06
 Produce multiple copies of IABC intergrals
 Iteration Nr.   1
 **********************
 DD1Dir will call FoFMem   1 times, MxPair=      1496
 NAB=   506 NAA=   253 NBB=   231.
 E(PMP3)=      -0.41928195622D+03
 MP4(R+Q)=  0.24811039D-01
 E3=       -0.28883569D-01        EUMP3=      -0.41927248984D+03
 E4(DQ)=   -0.56433779D-02        UMP4(DQ)=   -0.41927813322D+03
 E4(SDQ)=  -0.25827549D-01        UMP4(SDQ)=  -0.41929831739D+03
 DE(Corr)=  -1.2605757     E(Corr)=     -419.24728906    
 NORM(A)=   0.11852827D+01
 Iteration Nr.   2
 **********************
 DD1Dir will call FoFMem   1 times, MxPair=      1496
 NAB=   506 NAA=   253 NBB=   231.
 DE(Corr)=  -1.3034685     E(CORR)=     -419.29018182     Delta=-4.29D-02
 NORM(A)=   0.12056847D+01
 Iteration Nr.   3
 **********************
 DD1Dir will call FoFMem   1 times, MxPair=      1496
 NAB=   506 NAA=   253 NBB=   231.
 DE(Corr)=  -1.3061781     E(CORR)=     -419.29289145     Delta=-2.71D-03
 NORM(A)=   0.12161842D+01
 Iteration Nr.   4
 **********************
 DD1Dir will call FoFMem   1 times, MxPair=      1496
 NAB=   506 NAA=   253 NBB=   231.
 DE(Corr)=  -1.3128202     E(CORR)=     -419.29953359     Delta=-6.64D-03
 NORM(A)=   0.12227003D+01
 Iteration Nr.   5
 **********************
 DD1Dir will call FoFMem   1 times, MxPair=      1496
 NAB=   506 NAA=   253 NBB=   231.
 DE(Corr)=  -1.3145832     E(CORR)=     -419.30129658     Delta=-1.76D-03
 NORM(A)=   0.12260573D+01
 Iteration Nr.   6
 **********************
 DD1Dir will call FoFMem   1 times, MxPair=      1496
 NAB=   506 NAA=   253 NBB=   231.
 DE(Corr)=  -1.3151245     E(CORR)=     -419.30183787     Delta=-5.41D-04
 NORM(A)=   0.12266021D+01
 Iteration Nr.   7
 **********************
 DD1Dir will call FoFMem   1 times, MxPair=      1496
 NAB=   506 NAA=   253 NBB=   231.
 DE(Corr)=  -1.3152025     E(CORR)=     -419.30191582     Delta=-7.80D-05
 NORM(A)=   0.12267198D+01
 Iteration Nr.   8
 **********************
 DD1Dir will call FoFMem   1 times, MxPair=      1496
 NAB=   506 NAA=   253 NBB=   231.
 DE(Corr)=  -1.3151871     E(CORR)=     -419.30190048     Delta= 1.53D-05
 NORM(A)=   0.12267412D+01
 Iteration Nr.   9
 **********************
 DD1Dir will call FoFMem   1 times, MxPair=      1496
 NAB=   506 NAA=   253 NBB=   231.
 DE(Corr)=  -1.3151946     E(CORR)=     -419.30190798     Delta=-7.49D-06
 NORM(A)=   0.12267380D+01
 Iteration Nr.  10
 **********************
 DD1Dir will call FoFMem   1 times, MxPair=      1496
 NAB=   506 NAA=   253 NBB=   231.
 DE(Corr)=  -1.3151946     E(CORR)=     -419.30190797     Delta= 5.27D-09
 NORM(A)=   0.12267396D+01
 Iteration Nr.  11
 **********************
 DD1Dir will call FoFMem   1 times, MxPair=      1496
 NAB=   506 NAA=   253 NBB=   231.
 DE(Corr)=  -1.3152016     E(CORR)=     -419.30191499     Delta=-7.02D-06
 NORM(A)=   0.12267521D+01
 Iteration Nr.  12
 **********************
 DD1Dir will call FoFMem   1 times, MxPair=      1496
 NAB=   506 NAA=   253 NBB=   231.
 DE(Corr)=  -1.3152056     E(CORR)=     -419.30191897     Delta=-3.98D-06
 NORM(A)=   0.12267677D+01
 Iteration Nr.  13
 **********************
 DD1Dir will call FoFMem   1 times, MxPair=      1496
 NAB=   506 NAA=   253 NBB=   231.
 DE(Corr)=  -1.3152097     E(CORR)=     -419.30192304     Delta=-4.07D-06
 NORM(A)=   0.12267814D+01
 Iteration Nr.  14
 **********************
 DD1Dir will call FoFMem   1 times, MxPair=      1496
 NAB=   506 NAA=   253 NBB=   231.
 DE(Corr)=  -1.3152129     E(CORR)=     -419.30192624     Delta=-3.19D-06
 NORM(A)=   0.12267906D+01
 Iteration Nr.  15
 **********************
 DD1Dir will call FoFMem   1 times, MxPair=      1496
 NAB=   506 NAA=   253 NBB=   231.
 DE(Corr)=  -1.3152145     E(CORR)=     -419.30192780     Delta=-1.56D-06
 NORM(A)=   0.12267954D+01
 Iteration Nr.  16
 **********************
 DD1Dir will call FoFMem   1 times, MxPair=      1496
 NAB=   506 NAA=   253 NBB=   231.
 DE(Corr)=  -1.3152155     E(CORR)=     -419.30192881     Delta=-1.01D-06
 NORM(A)=   0.12267978D+01
 Iteration Nr.  17
 **********************
 DD1Dir will call FoFMem   1 times, MxPair=      1496
 NAB=   506 NAA=   253 NBB=   231.
 DE(Corr)=  -1.3152159     E(CORR)=     -419.30192921     Delta=-4.01D-07
 NORM(A)=   0.12267984D+01
 Iteration Nr.  18
 **********************
 DD1Dir will call FoFMem   1 times, MxPair=      1496
 NAB=   506 NAA=   253 NBB=   231.
 DE(Corr)=  -1.3152160     E(CORR)=     -419.30192930     Delta=-9.11D-08
 NORM(A)=   0.12267985D+01
 Wavefunction amplitudes converged. E(Corr)=     -419.30192930    
 Largest amplitude= 6.89D-02
 Time for triples=    37093.86 seconds.
 T4(CCSD)= -0.57010524D-01
 T5(CCSD)=  0.38038422D-02
 CCSD(T)= -0.41935513598D+03

 S**2, projected HF & approx projected MPn energies after annihilation of
 unwanted spin states (see manual for definitions):

 spins       (S**2,0) (S**2,1)    PUHF        PMP2        PMP3        PMP4
 annihilated
 s+1         0.73815  0.74559 -418.001527 -419.256462 -419.281956
 s+1,s+2     0.75016  0.74997 -418.000670 -419.255651 -419.281206
 s+1 to s+3  0.75000  0.75000 -418.000685 -419.255662 -419.281210
 s+1 to s+4  0.75000  0.75000 -418.000684 -419.255661 -419.281210
 s+1 to s+5  0.75000  0.75000 -418.000684
 s+1 to s+6  0.75000  0.75000 -418.000684

 Discarding MO integrals.

 **********************************************************************

            Population analysis using the SCF density.

 **********************************************************************

 Orbital symmetries:
 Alpha Orbitals:
       Occupied  (A) (A) (A) (A) (A) (A) (A) (A) (A) (A) (A) (A)
                 (A) (A) (A) (A) (A) (A) (A) (A) (A) (A) (A) (A)
                 (A) (A) (A) (A) (A) (A) (A)
       Virtual   (A) (A) (A) (A) (A) (A) (A) (A) (A) (A) (A) (A)
                 (A) (A) (A) (A) (A) (A) (A) (A) (A) (A) (A) (A)
                 (A) (A) (A) (A) (A) (A) (A) (A) (A) (A) (A) (A)
                 (A) (A) (A) (A) (A) (A) (A) (A) (A) (A) (A) (A)
                 (A) (A) (A) (A) (A) (A) (A) (A) (A) (A) (A) (A)
                 (A) (A) (A) (A) (A) (A) (A) (A) (A) (A) (A) (A)
                 (A) (A) (A) (A) (A) (A) (A) (A) (A) (A) (A) (A)
                 (A) (A) (A) (A) (A) (A) (A) (A) (A) (A) (A) (A)
                 (A) (A) (A) (A) (A) (A) (A) (A) (A) (A) (A) (A)
                 (A) (A) (A) (A) (A) (A) (A) (A) (A) (A) (A) (A)
                 (A) (A) (A) (A) (A) (A) (A) (A) (A) (A) (A) (A)
                 (A) (A) (A) (A) (A) (A) (A) (A) (A) (A) (A) (A)
                 (A) (A) (A) (A) (A) (A) (A) (A) (A) (A) (A) (A)
                 (A) (A) (A) (A) (A) (A) (A) (A) (A) (A) (A) (A)
                 (A) (A) (A) (A) (A) (A) (A) (A) (A) (A) (A) (A)
                 (A) (A) (A) (A) (A) (A) (A) (A) (A) (A) (A) (A)
                 (A) (A)
 Beta  Orbitals:
       Occupied  (A) (A) (A) (A) (A) (A) (A) (A) (A) (A) (A) (A)
                 (A) (A) (A) (A) (A) (A) (A) (A) (A) (A) (A) (A)
                 (A) (A) (A) (A) (A) (A)
       Virtual   (A) (A) (A) (A) (A) (A) (A) (A) (A) (A) (A) (A)
                 (A) (A) (A) (A) (A) (A) (A) (A) (A) (A) (A) (A)
                 (A) (A) (A) (A) (A) (A) (A) (A) (A) (A) (A) (A)
                 (A) (A) (A) (A) (A) (A) (A) (A) (A) (A) (A) (A)
                 (A) (A) (A) (A) (A) (A) (A) (A) (A) (A) (A) (A)
                 (A) (A) (A) (A) (A) (A) (A) (A) (A) (A) (A) (A)
                 (A) (A) (A) (A) (A) (A) (A) (A) (A) (A) (A) (A)
                 (A) (A) (A) (A) (A) (A) (A) (A) (A) (A) (A) (A)
                 (A) (A) (A) (A) (A) (A) (A) (A) (A) (A) (A) (A)
                 (A) (A) (A) (A) (A) (A) (A) (A) (A) (A) (A) (A)
                 (A) (A) (A) (A) (A) (A) (A) (A) (A) (A) (A) (A)
                 (A) (A) (A) (A) (A) (A) (A) (A) (A) (A) (A) (A)
                 (A) (A) (A) (A) (A) (A) (A) (A) (A) (A) (A) (A)
                 (A) (A) (A) (A) (A) (A) (A) (A) (A) (A) (A) (A)
                 (A) (A) (A) (A) (A) (A) (A) (A) (A) (A) (A) (A)
                 (A) (A) (A) (A) (A) (A) (A) (A) (A) (A) (A) (A)
                 (A) (A) (A)
 The electronic state is 2-A.
 Alpha  occ. eigenvalues --  -20.62397 -20.62083 -20.57122 -11.42073 -11.30577
 Alpha  occ. eigenvalues --  -11.26871 -11.26390 -11.23284  -1.49136  -1.39344
 Alpha  occ. eigenvalues --   -1.37768  -1.09371  -1.04553  -0.92860  -0.84518
 Alpha  occ. eigenvalues --   -0.77399  -0.73790  -0.70701  -0.67480  -0.66484
 Alpha  occ. eigenvalues --   -0.64760  -0.64134  -0.59481  -0.56298  -0.55025
 Alpha  occ. eigenvalues --   -0.54930  -0.51520  -0.49320  -0.48059  -0.43124
 Alpha  occ. eigenvalues --   -0.42132
 Alpha virt. eigenvalues --    0.03693   0.04699   0.05469   0.05985   0.07474
 Alpha virt. eigenvalues --    0.08854   0.08922   0.09204   0.11347   0.12292
 Alpha virt. eigenvalues --    0.12742   0.13592   0.14592   0.15202   0.16624
 Alpha virt. eigenvalues --    0.17176   0.17621   0.18117   0.18526   0.18892
 Alpha virt. eigenvalues --    0.19773   0.20283   0.22017   0.22508   0.22932
 Alpha virt. eigenvalues --    0.24664   0.25404   0.26547   0.27472   0.28615
 Alpha virt. eigenvalues --    0.29393   0.30887   0.31290   0.31813   0.33458
 Alpha virt. eigenvalues --    0.34560   0.35717   0.36413   0.37441   0.37812
 Alpha virt. eigenvalues --    0.38899   0.39373   0.40731   0.41442   0.42731
 Alpha virt. eigenvalues --    0.43764   0.44306   0.45685   0.46682   0.47902
 Alpha virt. eigenvalues --    0.50720   0.56120   0.57463   0.58254   0.61265
 Alpha virt. eigenvalues --    0.62925   0.64677   0.68480   0.70422   0.71800
 Alpha virt. eigenvalues --    0.75692   0.77692   0.79174   0.81275   0.82757
 Alpha virt. eigenvalues --    0.83431   0.85257   0.85771   0.87561   0.88764
 Alpha virt. eigenvalues --    0.89662   0.91743   0.92665   0.94348   0.97495
 Alpha virt. eigenvalues --    1.01068   1.07329   1.09382   1.12980   1.17484
 Alpha virt. eigenvalues --    1.19375   1.24660   1.25208   1.26317   1.30241
 Alpha virt. eigenvalues --    1.32393   1.33964   1.35076   1.38128   1.39282
 Alpha virt. eigenvalues --    1.40138   1.42287   1.44150   1.48428   1.52703
 Alpha virt. eigenvalues --    1.54032   1.55362   1.57077   1.60678   1.64899
 Alpha virt. eigenvalues --    1.66033   1.70182   1.72588   1.72703   1.74087
 Alpha virt. eigenvalues --    1.79809   1.80978   1.82684   1.83418   1.87055
 Alpha virt. eigenvalues --    1.89213   1.90852   1.93991   1.96423   1.98627
 Alpha virt. eigenvalues --    2.05692   2.06135   2.08321   2.10265   2.12010
 Alpha virt. eigenvalues --    2.15735   2.19961   2.24662   2.29914   2.35354
 Alpha virt. eigenvalues --    2.36681   2.38414   2.40622   2.47916   2.59520
 Alpha virt. eigenvalues --    2.63475   2.69846   2.74390   2.81972   2.83799
 Alpha virt. eigenvalues --    2.84895   2.89454   2.91602   2.92377   2.93920
 Alpha virt. eigenvalues --    2.95228   2.96444   3.02982   3.04509   3.05666
 Alpha virt. eigenvalues --    3.09308   3.11617   3.15045   3.16656   3.23468
 Alpha virt. eigenvalues --    3.25769   3.27973   3.29398   3.32436   3.35641
 Alpha virt. eigenvalues --    3.40288   3.45090   3.48092   3.48639   3.51073
 Alpha virt. eigenvalues --    3.55271   3.58059   3.63591   3.67231   3.77535
 Alpha virt. eigenvalues --    3.78479   3.90146   4.00055   4.08987   4.20621
 Alpha virt. eigenvalues --    4.21917   4.24521   4.26835   4.39688   4.47618
 Alpha virt. eigenvalues --    4.55383   4.66206   5.48525   5.54140   5.57415
 Alpha virt. eigenvalues --    5.61596   5.75617   5.90710   6.02377   6.19644
 Alpha virt. eigenvalues --    6.41965  24.70115  25.00236  25.01288  25.14002
 Alpha virt. eigenvalues --   26.21874  51.50912  51.59166  51.70807
  Beta  occ. eigenvalues --  -20.62368 -20.58129 -20.56749 -11.42373 -11.30566
  Beta  occ. eigenvalues --  -11.28267 -11.24750 -11.23284  -1.48906  -1.38713
  Beta  occ. eigenvalues --   -1.23226  -1.07782  -1.04573  -0.93375  -0.84357
  Beta  occ. eigenvalues --   -0.77246  -0.73520  -0.70217  -0.67155  -0.64108
  Beta  occ. eigenvalues --   -0.62381  -0.59128  -0.55542  -0.54887  -0.51420
  Beta  occ. eigenvalues --   -0.50626  -0.48553  -0.47182  -0.43797  -0.42667
  Beta virt. eigenvalues --    0.03666   0.04633   0.05407   0.05733   0.07376
  Beta virt. eigenvalues --    0.07571   0.08605   0.08957   0.10406   0.11968
  Beta virt. eigenvalues --    0.12703   0.13098   0.13832   0.14284   0.15071
  Beta virt. eigenvalues --    0.16682   0.17447   0.17609   0.18227   0.18563
  Beta virt. eigenvalues --    0.18911   0.19785   0.20332   0.22100   0.22489
  Beta virt. eigenvalues --    0.23358   0.25045   0.25396   0.26878   0.27911
  Beta virt. eigenvalues --    0.28960   0.29556   0.30973   0.31413   0.32959
  Beta virt. eigenvalues --    0.33883   0.35315   0.35984   0.36600   0.37503
  Beta virt. eigenvalues --    0.38697   0.39091   0.40840   0.40931   0.41887
  Beta virt. eigenvalues --    0.43066   0.44221   0.44562   0.45856   0.47198
  Beta virt. eigenvalues --    0.48297   0.50959   0.56594   0.57533   0.58779
  Beta virt. eigenvalues --    0.61246   0.62992   0.64642   0.68740   0.69926
  Beta virt. eigenvalues --    0.71600   0.75648   0.77855   0.78433   0.80662
  Beta virt. eigenvalues --    0.82858   0.84073   0.85595   0.85984   0.87572
  Beta virt. eigenvalues --    0.89084   0.89741   0.92037   0.93419   0.95815
  Beta virt. eigenvalues --    0.97510   1.01572   1.07617   1.09603   1.13203
  Beta virt. eigenvalues --    1.17756   1.19902   1.25728   1.26357   1.28228
  Beta virt. eigenvalues --    1.30428   1.33268   1.34867   1.35971   1.39092
  Beta virt. eigenvalues --    1.41016   1.42225   1.42966   1.44896   1.48780
  Beta virt. eigenvalues --    1.53925   1.54726   1.56185   1.57364   1.60672
  Beta virt. eigenvalues --    1.65564   1.65838   1.70296   1.72678   1.74021
  Beta virt. eigenvalues --    1.76677   1.79941   1.81106   1.82700   1.83538
  Beta virt. eigenvalues --    1.87371   1.89592   1.91312   1.94212   1.96624
  Beta virt. eigenvalues --    1.98740   2.05853   2.06468   2.08337   2.10389
  Beta virt. eigenvalues --    2.12110   2.15895   2.20065   2.24731   2.30078
  Beta virt. eigenvalues --    2.35377   2.37591   2.38988   2.40646   2.47933
  Beta virt. eigenvalues --    2.59548   2.63499   2.69808   2.74771   2.81973
  Beta virt. eigenvalues --    2.83812   2.84890   2.89155   2.91635   2.92409
  Beta virt. eigenvalues --    2.94054   2.95227   2.96654   3.02532   3.05053
  Beta virt. eigenvalues --    3.05692   3.09600   3.13860   3.19365   3.23494
  Beta virt. eigenvalues --    3.24416   3.27465   3.30183   3.32855   3.33810
  Beta virt. eigenvalues --    3.35880   3.43744   3.45375   3.48771   3.50237
  Beta virt. eigenvalues --    3.53347   3.57994   3.60863   3.64016   3.67381
  Beta virt. eigenvalues --    3.77917   3.78862   3.89922   4.00266   4.09294
  Beta virt. eigenvalues --    4.20631   4.21920   4.26621   4.28051   4.39769
  Beta virt. eigenvalues --    4.47840   4.55522   4.66224   5.50939   5.57491
  Beta virt. eigenvalues --    5.62512   5.66665   5.75894   5.90778   6.04895
  Beta virt. eigenvalues --    6.19780   6.42063  24.70290  25.00039  25.01258
  Beta virt. eigenvalues --   25.14002  26.21898  51.53147  51.59234  51.71015
          Condensed to atoms (all electrons):
               1          2          3          4          5          6
     1  O    8.062322   0.287255  -0.179622  -0.017301  -0.053577   0.141249
     2  H    0.287255   0.440361   0.108485   0.001712  -0.003584  -0.097897
     3  C   -0.179622   0.108485  25.390268   0.847162  -7.202038 -10.114476
     4  H   -0.017301   0.001712   0.847162   0.405252  -0.309757  -0.119256
     5  C   -0.053577  -0.003584  -7.202038  -0.309757  14.027141  -2.437731
     6  C    0.141249  -0.097897 -10.114476  -0.119256  -2.437731  17.920810
     7  O   -0.001336   0.000911   0.084029  -0.000329   0.200135   0.089721
     8  O    0.005391   0.005321   0.017696  -0.003561  -0.222339   0.039683
     9  C    0.003781  -0.003210  -0.305296  -0.000768  -0.474044   0.583549
    10  C   -0.002181   0.000460   0.033370  -0.000702   0.098625  -0.196764
    11  H    0.000027  -0.001031  -0.003384   0.000210   0.001014   0.007317
    12  H    0.000202  -0.000220   0.003908  -0.000128  -0.038831   0.023752
    13  H   -0.000070   0.000041  -0.001661  -0.000026   0.004806  -0.004607
    14  H    0.000210  -0.000574  -0.000266   0.000042  -0.015883   0.011047
    15  H    0.000172  -0.000092  -0.002942   0.000033  -0.035271   0.029478
               7          8          9         10         11         12
     1  O   -0.001336   0.005391   0.003781  -0.002181   0.000027   0.000202
     2  H    0.000911   0.005321  -0.003210   0.000460  -0.001031  -0.000220
     3  C    0.084029   0.017696  -0.305296   0.033370  -0.003384   0.003908
     4  H   -0.000329  -0.003561  -0.000768  -0.000702   0.000210  -0.000128
     5  C    0.200135  -0.222339  -0.474044   0.098625   0.001014  -0.038831
     6  C    0.089721   0.039683   0.583549  -0.196764   0.007317   0.023752
     7  O    8.060451  -0.113973   0.032833  -0.056904   0.003511  -0.025345
     8  O   -0.113973   8.420051   0.153480  -0.074088  -0.078387  -0.024616
     9  C    0.032833   0.153480   5.470386  -0.082237   0.442840   0.454741
    10  C   -0.056904  -0.074088  -0.082237   5.509076  -0.060685  -0.041123
    11  H    0.003511  -0.078387   0.442840  -0.060685   0.549805  -0.032838
    12  H   -0.025345  -0.024616   0.454741  -0.041123  -0.032838   0.506644
    13  H   -0.000849   0.016464  -0.048925   0.413295   0.000529  -0.005037
    14  H    0.002542  -0.007786  -0.013315   0.402908  -0.004241  -0.000003
    15  H   -0.001690  -0.014281  -0.029307   0.404939   0.007861  -0.001866
              13         14         15
     1  O   -0.000070   0.000210   0.000172
     2  H    0.000041  -0.000574  -0.000092
     3  C   -0.001661  -0.000266  -0.002942
     4  H   -0.000026   0.000042   0.000033
     5  C    0.004806  -0.015883  -0.035271
     6  C   -0.004607   0.011047   0.029478
     7  O   -0.000849   0.002542  -0.001690
     8  O    0.016464  -0.007786  -0.014281
     9  C   -0.048925  -0.013315  -0.029307
    10  C    0.413295   0.402908   0.404939
    11  H    0.000529  -0.004241   0.007861
    12  H   -0.005037  -0.000003  -0.001866
    13  H    0.555647  -0.032534  -0.033463
    14  H   -0.032534   0.558677  -0.044224
    15  H   -0.033463  -0.044224   0.546572
          Atomic-Atomic Spin Densities.
               1          2          3          4          5          6
     1  O    0.975635  -0.001830  -0.093125   0.006519  -0.040141   0.085840
     2  H   -0.001830  -0.036063   0.016065  -0.000937   0.017478  -0.023851
     3  C   -0.093125   0.016065   0.237954   0.076930   0.278551  -1.262978
     4  H    0.006519  -0.000937   0.076930   0.050850  -0.055281  -0.016630
     5  C   -0.040141   0.017478   0.278551  -0.055281   1.561728  -0.858304
     6  C    0.085840  -0.023851  -1.262978  -0.016630  -0.858304   1.912065
     7  O   -0.000658   0.000291   0.032359  -0.000017   0.013199  -0.065441
     8  O    0.006610  -0.001743  -0.027223   0.000077  -0.082364   0.108407
     9  C    0.003323  -0.002822  -0.027908   0.000246  -0.104157   0.108687
    10  C   -0.000616   0.001154   0.018528  -0.000042   0.039692  -0.043688
    11  H    0.000348  -0.000335  -0.004145   0.000003  -0.012785   0.013321
    12  H    0.000035  -0.000055  -0.003423   0.000004  -0.009342   0.010797
    13  H   -0.000005   0.000024   0.001551   0.000005   0.003003  -0.003649
    14  H    0.000054  -0.000132  -0.000935   0.000009  -0.002787   0.002767
    15  H    0.000023  -0.000033  -0.001701   0.000002  -0.005788   0.006171
               7          8          9         10         11         12
     1  O   -0.000658   0.006610   0.003323  -0.000616   0.000348   0.000035
     2  H    0.000291  -0.001743  -0.002822   0.001154  -0.000335  -0.000055
     3  C    0.032359  -0.027223  -0.027908   0.018528  -0.004145  -0.003423
     4  H   -0.000017   0.000077   0.000246  -0.000042   0.000003   0.000004
     5  C    0.013199  -0.082364  -0.104157   0.039692  -0.012785  -0.009342
     6  C   -0.065441   0.108407   0.108687  -0.043688   0.013321   0.010797
     7  O    0.101299  -0.002906  -0.005208   0.002227  -0.000351  -0.000244
     8  O   -0.002906  -0.006172   0.003313  -0.002089  -0.000421  -0.000349
     9  C   -0.005208   0.003313   0.027393  -0.011633   0.004179   0.003660
    10  C    0.002227  -0.002089  -0.011633   0.003474  -0.002575  -0.001769
    11  H   -0.000351  -0.000421   0.004179  -0.002575   0.002030   0.000664
    12  H   -0.000244  -0.000349   0.003660  -0.001769   0.000664  -0.000264
    13  H    0.000044   0.000232  -0.000770   0.000030  -0.000325  -0.000159
    14  H    0.000041  -0.000039   0.001343  -0.000842   0.000175   0.000062
    15  H   -0.000240   0.000140   0.001202  -0.000590   0.000349   0.000285
              13         14         15
     1  O   -0.000005   0.000054   0.000023
     2  H    0.000024  -0.000132  -0.000033
     3  C    0.001551  -0.000935  -0.001701
     4  H    0.000005   0.000009   0.000002
     5  C    0.003003  -0.002787  -0.005788
     6  C   -0.003649   0.002767   0.006171
     7  O    0.000044   0.000041  -0.000240
     8  O    0.000232  -0.000039   0.000140
     9  C   -0.000770   0.001343   0.001202
    10  C    0.000030  -0.000842  -0.000590
    11  H   -0.000325   0.000175   0.000349
    12  H   -0.000159   0.000062   0.000285
    13  H    0.000423  -0.000095  -0.000134
    14  H   -0.000095   0.000244   0.000084
    15  H   -0.000134   0.000084   0.000426
 Mulliken charges and spin densities:
               1          2
     1  O   -0.246525   0.942012
     2  H    0.262061  -0.032789
     3  C   -2.675232  -0.759502
     4  H    0.197416   0.061738
     5  C    2.461333   0.742703
     6  C    0.124125  -0.026487
     7  O   -0.273706   0.074396
     8  O   -0.119054  -0.004527
     9  C   -0.184509   0.000848
    10  C   -0.347989   0.001260
    11  H    0.167451   0.000132
    12  H    0.180759  -0.000099
    13  H    0.136391   0.000174
    14  H    0.143398  -0.000052
    15  H    0.174081   0.000193
 Sum of Mulliken charges =  -0.00000   1.00000
 Mulliken charges and spin densities with hydrogens summed into heavy atoms:
               1          2
     1  O    0.015536   0.909223
     3  C   -2.477816  -0.697763
     5  C    2.461333   0.742703
     6  C    0.124125  -0.026487
     7  O   -0.273706   0.074396
     8  O   -0.119054  -0.004527
     9  C    0.163701   0.000881
    10  C    0.105881   0.001575
 Electronic spatial extent (au):  <R**2>=           1231.4146
 Charge=             -0.0000 electrons
 Dipole moment (field-independent basis, Debye):
    X=             -1.2857    Y=             -2.0484    Z=             -0.2863  Tot=              2.4354
 Quadrupole moment (field-independent basis, Debye-Ang):
   XX=            -42.5409   YY=            -52.3224   ZZ=            -47.4191
   XY=              7.7468   XZ=              1.6564   YZ=              1.0423
 Traceless Quadrupole moment (field-independent basis, Debye-Ang):
   XX=              4.8866   YY=             -4.8950   ZZ=              0.0084
   XY=              7.7468   XZ=              1.6564   YZ=              1.0423
 Octapole moment (field-independent basis, Debye-Ang**2):
  XXX=             -1.0865  YYY=            -24.9211  ZZZ=             -3.6587  XYY=              0.9347
  XXY=             11.7448  XXZ=              1.8977  XZZ=             -4.1704  YZZ=             -0.9008
  YYZ=             -2.4544  XYZ=              1.0415
 Hexadecapole moment (field-independent basis, Debye-Ang**3):
 XXXX=          -1036.6171 YYYY=           -352.5163 ZZZZ=           -111.9824 XXXY=             64.7982
 XXXZ=             30.6907 YYYX=            -15.7267 YYYZ=              5.1627 ZZZX=              2.8297
 ZZZY=             -0.0896 XXYY=           -262.0878 XXZZ=           -213.5692 YYZZ=            -74.4098
 XXYZ=              9.1584 YYXZ=             -1.3664 ZZXY=             -5.0843
 N-N= 3.508964527380D+02 E-N=-1.684616835366D+03  KE= 4.177388074671D+02
 1\1\GINC-AJ\SP\UCCSD(T)-FC\6-311++G(d,p)\C5H7O3(2)\AAYUSH\06-Aug-2025\
 0\\# ccsd(t)/6-311++g(d,p) sp\\Title Card Required\\0,2\O,0,2.786166,-
 1.444803,0.024554\H,0,1.862963,-1.682822,-0.165941\C,0,2.541211,0.6413
 99,0.257829\H,0,3.591348,0.706964,0.426972\C,0,1.354834,0.790291,0.095
 413\C,0,-0.082338,0.784488,-0.121237\O,0,-0.782195,1.755936,-0.093021\
 O,0,-0.498542,-0.465216,-0.360826\C,0,-1.916936,-0.63252,-0.579148\C,0
 ,-2.670624,-0.650926,0.735583\H,0,-1.993025,-1.583816,-1.102642\H,0,-2
 .264282,0.17027,-1.230224\H,0,-3.726948,-0.851586,0.546911\H,0,-2.2814
 91,-1.434229,1.387685\H,0,-2.588881,0.311487,1.240945\\Version=ES64L-G
 16RevA.03\State=2-A\HF=-417.9867133\MP2=-419.2436063\MP3=-419.2724898\
 MP4D=-419.3029443\MP4DQ=-419.2781332\PUHF=-418.0015274\PMP2-0=-419.256
 4615\PMP3-0=-419.2819562\MP4SDQ=-419.2983174\CCSD=-419.3019293\CCSD(T)
 =-419.355136\S2=0.926356\S2-1=0.876584\S2A=0.770095\RMSD=8.930e-09\PG=
 C01 [X(C5H7O3)]\\@


 TELEVISION IS CALLED A MEDIUM BECAUSE IT ISN'T
 RARE, AND IT ISN'T WELL DONE.
 Job cpu time:       0 days 17 hours  5 minutes 15.2 seconds.
 Elapsed time:       0 days  0 hours 42 minutes 59.4 seconds.
 File lengths (MBytes):  RWF=  44733 Int=      0 D2E=      0 Chk=      6 Scr=      1
 Normal termination of Gaussian 16 at Wed Aug  6 03:09:28 2025.
