 Entering Gaussian System, Link 0=g16
 Initial command:
 /opt/g16/l1.exe "/home/aayush/scratches/g16/Gau-44333.inp" -scrdir="/home/aayush/scratches/g16/"
 Entering Link 1 = /opt/g16/l1.exe PID=     44336.
  
 Copyright (c) 1988,1990,1992,1993,1995,1998,2003,2009,2016,
            Gaussian, Inc.  All Rights Reserved.
  
 This is part of the Gaussian(R) 16 program.  It is based on
 the Gaussian(R) 09 system (copyright 2009, Gaussian, Inc.),
 the Gaussian(R) 03 system (copyright 2003, Gaussian, Inc.),
 the Gaussian(R) 98 system (copyright 1998, Gaussian, Inc.),
 the Gaussian(R) 94 system (copyright 1995, Gaussian, Inc.),
 the Gaussian 92(TM) system (copyright 1992, Gaussian, Inc.),
 the Gaussian 90(TM) system (copyright 1990, Gaussian, Inc.),
 the Gaussian 88(TM) system (copyright 1988, Gaussian, Inc.),
 the Gaussian 86(TM) system (copyright 1986, Carnegie Mellon
 University), and the Gaussian 82(TM) system (copyright 1983,
 Carnegie Mellon University). Gaussian is a federally registered
 trademark of Gaussian, Inc.
  
 This software contains proprietary and confidential information,
 including trade secrets, belonging to Gaussian, Inc.
  
 This software is provided under written license and may be
 used, copied, transmitted, or stored only in accord with that
 written license.
  
 The following legend is applicable only to US Government
 contracts under FAR:
  
                    RESTRICTED RIGHTS LEGEND
  
 Use, reproduction and disclosure by the US Government is
 subject to restrictions as set forth in subparagraphs (a)
 and (c) of the Commercial Computer Software - Restricted
 Rights clause in FAR 52.227-19.
  
 Gaussian, Inc.
 340 Quinnipiac St., Bldg. 40, Wallingford CT 06492
  
  
 ---------------------------------------------------------------
 Warning -- This program may not be used in any manner that
 competes with the business of Gaussian, Inc. or will provide
 assistance to any competitor of Gaussian, Inc.  The licensee
 of this program is prohibited from giving any competitor of
 Gaussian, Inc. access to this program.  By using this program,
 the user acknowledges that Gaussian, Inc. is engaged in the
 business of creating and licensing software in the field of
 computational chemistry and represents and warrants to the
 licensee that it is not a competitor of Gaussian, Inc. and that
 it will not use this program in any manner prohibited above.
 ---------------------------------------------------------------
  

 Cite this work as:
 Gaussian 16, Revision A.03,
 M. J. Frisch, G. W. Trucks, H. B. Schlegel, G. E. Scuseria, 
 M. A. Robb, J. R. Cheeseman, G. Scalmani, V. Barone, 
 G. A. Petersson, H. Nakatsuji, X. Li, M. Caricato, A. V. Marenich, 
 J. Bloino, B. G. Janesko, R. Gomperts, B. Mennucci, H. P. Hratchian, 
 J. V. Ortiz, A. F. Izmaylov, J. L. Sonnenberg, D. Williams-Young, 
 F. Ding, F. Lipparini, F. Egidi, J. Goings, B. Peng, A. Petrone, 
 T. Henderson, D. Ranasinghe, V. G. Zakrzewski, J. Gao, N. Rega, 
 G. Zheng, W. Liang, M. Hada, M. Ehara, K. Toyota, R. Fukuda, 
 J. Hasegawa, M. Ishida, T. Nakajima, Y. Honda, O. Kitao, H. Nakai, 
 T. Vreven, K. Throssell, J. A. Montgomery, Jr., J. E. Peralta, 
 F. Ogliaro, M. J. Bearpark, J. J. Heyd, E. N. Brothers, K. N. Kudin, 
 V. N. Staroverov, T. A. Keith, R. Kobayashi, J. Normand, 
 K. Raghavachari, A. P. Rendell, J. C. Burant, S. S. Iyengar, 
 J. Tomasi, M. Cossi, J. M. Millam, M. Klene, C. Adamo, R. Cammi, 
 J. W. Ochterski, R. L. Martin, K. Morokuma, O. Farkas, 
 J. B. Foresman, and D. J. Fox, Gaussian, Inc., Wallingford CT, 2016.
 
 ******************************************
 Gaussian 16:  ES64L-G16RevA.03 25-Dec-2016
                20-Jun-2025 
 ******************************************
 %nprocshared=24
 Will use up to   24 processors via shared memory.
 %mem=12GB
 %chk=ethyl_propiolate_ts1.chk
 -------------------
 # freq 6-31+g m062x
 -------------------
 1/10=4,30=1,38=1/1,3;
 2/12=2,17=6,18=5,40=1/2;
 3/5=1,6=6,7=10,11=2,25=1,30=1,71=2,74=-55,140=1/1,2,3;
 4//1;
 5/5=2,38=5,98=1/2;
 8/6=4,10=90,11=11/1;
 11/6=1,8=1,9=11,15=111,16=1/1,2,10;
 10/6=1/2;
 6/7=2,8=2,9=2,10=2,28=1/1;
 7/8=1,10=1,25=1/1,2,3,16;
 1/10=4,30=1/3;
 99//99;
 -------------------
 Title Card Required
 -------------------
 Symbolic Z-matrix:
 Charge =  0 Multiplicity = 2
 O                     3.23005   0.70455   0.13012 
 H                     2.50368   1.31468  -0.06812 
 C                     2.40533  -0.82464   0.26927 
 H                     3.19117  -1.52801   0.48904 
 C                     1.14947  -0.76077   0.09031 
 C                    -0.08124  -0.0359   -0.19298 
 O                    -0.10917   1.15123  -0.38995 
 O                    -1.13207  -0.84807  -0.20785 
 C                    -2.41365  -0.23295  -0.46495 
 C                    -2.95891   0.42799   0.78518 
 H                    -3.04082  -1.06016  -0.79158 
 H                    -2.29843   0.48213  -1.28016 
 H                    -3.95872   0.8174    0.5843 
 H                    -3.02706  -0.29483   1.59942 
 H                    -2.32264   1.25798   1.09278 
 

 GradGradGradGradGradGradGradGradGradGradGradGradGradGradGradGradGradGrad
 Berny optimization.
 Initialization pass.
 Trust Radius=3.00D-01 FncErr=1.00D-07 GrdErr=1.00D-07 EigMax=2.50D+02 EigMin=1.00D-04
 Number of steps in this run=      2 maximum allowed number of steps=      2.
 GradGradGradGradGradGradGradGradGradGradGradGradGradGradGradGradGradGrad

                          Input orientation:                          
 ---------------------------------------------------------------------
 Center     Atomic      Atomic             Coordinates (Angstroms)
 Number     Number       Type             X           Y           Z
 ---------------------------------------------------------------------
      1          8           0        3.230052    0.704545    0.130124
      2          1           0        2.503678    1.314675   -0.068119
      3          6           0        2.405325   -0.824642    0.269271
      4          1           0        3.191166   -1.528012    0.489042
      5          6           0        1.149466   -0.760765    0.090310
      6          6           0       -0.081242   -0.035900   -0.192975
      7          8           0       -0.109170    1.151225   -0.389954
      8          8           0       -1.132071   -0.848070   -0.207845
      9          6           0       -2.413649   -0.232952   -0.464953
     10          6           0       -2.958911    0.427990    0.785183
     11          1           0       -3.040817   -1.060158   -0.791578
     12          1           0       -2.298430    0.482130   -1.280163
     13          1           0       -3.958715    0.817395    0.584300
     14          1           0       -3.027059   -0.294828    1.599422
     15          1           0       -2.322640    1.257980    1.092783
 ---------------------------------------------------------------------
                    Distance matrix (angstroms):
                    1          2          3          4          5
     1  O    0.000000
     2  H    0.969112   0.000000
     3  C    1.742971   2.167990   0.000000
     4  H    2.261558   2.977237   1.077300   0.000000
     5  C    2.545104   2.483232   1.270153   2.217249   0.000000
     6  C    3.408419   2.919153   2.649302   3.660628   1.456132
     7  O    3.408872   2.637663   3.265167   4.340871   2.338915
     8  O    4.642516   4.232689   3.569504   4.431518   2.302592
     9  C    5.751902   5.170371   4.910366   5.831058   3.644543
    10  C    6.229675   5.599483   5.532656   6.460425   4.332984
    11  H    6.579324   6.074920   5.553497   6.379380   4.292532
    12  H    5.709859   5.022193   5.121885   6.107898   3.912924
    13  H    7.203984   6.514251   6.580010   7.525344   5.369183
    14  H    6.504538   5.996686   5.617900   6.435838   4.465185
    15  H    5.662631   4.964298   5.231552   6.207118   4.139541
                    6          7          8          9         10
     6  C    0.000000
     7  O    1.203680   0.000000
     8  O    1.328188   2.253147   0.000000
     9  C    2.356464   2.689274   1.444617   0.000000
    10  C    3.074568   3.166234   2.439627   1.515584   0.000000
    11  H    3.188497   3.694059   2.007246   1.088252   2.169670
    12  H    2.523144   2.456221   2.068741   1.090498   2.169060
    13  H    4.045623   3.984923   3.375083   2.142753   1.091604
    14  H    3.457972   3.816119   2.676429   2.154471   1.090915
    15  H    2.889838   2.666337   2.746732   2.158171   1.090111
                   11         12         13         14         15
    11  H    0.000000
    12  H    1.780030   0.000000
    13  H    2.502156   2.518962   0.000000
    14  H    2.510538   3.070273   1.770733   0.000000
    15  H    3.072517   2.496678   1.769014   1.778792   0.000000
 Stoichiometry    C5H7O3(2)
 Framework group  C1[X(C5H7O3)]
 Deg. of freedom    39
 Full point group                 C1      NOp   1
 Largest Abelian subgroup         C1      NOp   1
 Largest concise Abelian subgroup C1      NOp   1
                         Standard orientation:                         
 ---------------------------------------------------------------------
 Center     Atomic      Atomic             Coordinates (Angstroms)
 Number     Number       Type             X           Y           Z
 ---------------------------------------------------------------------
      1          8           0        3.299484    0.713412    0.107372
      2          1           0        2.570168    1.317693   -0.097861
      3          6           0        2.482047   -0.817888    0.265055
      4          1           0        3.271277   -1.514864    0.492905
      5          6           0        1.225843   -0.762088    0.085815
      6          6           0       -0.008371   -0.046481   -0.205634
      7          8           0       -0.041979    1.138065   -0.416746
      8          8           0       -1.055350   -0.863729   -0.210424
      9          6           0       -2.339906   -0.257787   -0.474370
     10          6           0       -2.887892    0.415433    0.767999
     11          1           0       -2.963257   -1.091786   -0.790872
     12          1           0       -2.228331    0.448057   -1.298093
     13          1           0       -3.889592    0.797683    0.562860
     14          1           0       -2.952361   -0.297936    1.590825
     15          1           0       -2.255458    1.252032    1.065440
 ---------------------------------------------------------------------
 Rotational constants (GHZ):           5.7523498           0.9516495           0.8773351
 Standard basis: 6-31+G (6D, 7F)
 There are   118 symmetry adapted cartesian basis functions of A   symmetry.
 There are   118 symmetry adapted basis functions of A   symmetry.
   118 basis functions,   236 primitive gaussians,   118 cartesian basis functions
    31 alpha electrons       30 beta electrons
       nuclear repulsion energy       351.7795191572 Hartrees.
 NAtoms=   15 NActive=   15 NUniq=   15 SFac= 1.00D+00 NAtFMM=   60 NAOKFM=F Big=F
 Integral buffers will be    131072 words long.
 Raffenetti 2 integral format.
 Two-electron integral symmetry is turned on.
 One-electron integrals computed using PRISM.
 NBasis=   118 RedAO= T EigKep=  9.69D-06  NBF=   118
 NBsUse=   118 1.00D-06 EigRej= -1.00D+00 NBFU=   118
 ExpMin= 4.38D-02 ExpMax= 5.48D+03 ExpMxC= 8.25D+02 IAcc=3 IRadAn=         5 AccDes= 0.00D+00
 Harris functional with IExCor= 1009 and IRadAn=       5 diagonalized for initial guess.
 HarFok:  IExCor= 1009 AccDes= 0.00D+00 IRadAn=         5 IDoV= 1 UseB2=F ITyADJ=14
 ICtDFT=  3500011 ScaDFX=  1.000000  1.000000  1.000000  1.000000
 FoFCou: FMM=F IPFlag=           0 FMFlag=      100000 FMFlg1=           0
         NFxFlg=           0 DoJE=T BraDBF=F KetDBF=T FulRan=T
         wScrn=  0.000000 ICntrl=       500 IOpCl=  0 I1Cent=   200000004 NGrid=           0
         NMat0=    1 NMatS0=      1 NMatT0=    0 NMatD0=    1 NMtDS0=    0 NMtDT0=    0
 Petite list used in FoFCou.
 Initial guess <Sx>= 0.0000 <Sy>= 0.0000 <Sz>= 0.5000 <S**2>= 0.7500 S= 0.5000
 Requested convergence on RMS density matrix=1.00D-08 within 128 cycles.
 Requested convergence on MAX density matrix=1.00D-06.
 Requested convergence on             energy=1.00D-06.
 No special actions if energy rises.
 SCF Done:  E(UM062X) =  -419.975506516     A.U. after   19 cycles
            NFock= 19  Conv=0.41D-08     -V/T= 2.0055
 <Sx>= 0.0000 <Sy>= 0.0000 <Sz>= 0.5000 <S**2>= 0.7805 S= 0.5151
 <L.S>=  0.00000000000    
 Annihilation of the first spin contaminant:
 S**2 before annihilation     0.7805,   after     0.7505
 DoSCS=F DFT=T ScalE2(SS,OS)=  1.000000  1.000000
 Range of M.O.s used for correlation:     1   118
 NBasis=   118 NAE=    31 NBE=    30 NFC=     0 NFV=     0
 NROrb=    118 NOA=    31 NOB=    30 NVA=    87 NVB=    88

 **** Warning!!: The largest alpha MO coefficient is  0.10367844D+03


 **** Warning!!: The largest beta MO coefficient is  0.96336989D+02

 Symmetrizing basis deriv contribution to polar:
 IMax=3 JMax=2 DiffMx= 0.00D+00
 G2DrvN: will do    16 centers at a time, making    1 passes.
 Calling FoFCou, ICntrl=  3107 FMM=F I1Cent=   0 AccDes= 0.00D+00.
 End of G2Drv F.D. properties file   721 does not exist.
 End of G2Drv F.D. properties file   722 does not exist.
 End of G2Drv F.D. properties file   788 does not exist.
          IDoAtm=111111111111111
          Differentiating once with respect to electric field.
                with respect to dipole field.
          Differentiating once with respect to nuclear coordinates.
 Keep R1 and R2 ints in memory in canonical form, NReq=71861342.
          There are    48 degrees of freedom in the 1st order CPHF.  IDoFFX=6 NUNeed=     3.
     45 vectors produced by pass  0 Test12= 1.11D-14 2.08D-09 XBig12= 1.10D+02 4.15D+00.
 AX will form    45 AO Fock derivatives at one time.
     45 vectors produced by pass  1 Test12= 1.11D-14 2.08D-09 XBig12= 2.12D+01 1.01D+00.
     45 vectors produced by pass  2 Test12= 1.11D-14 2.08D-09 XBig12= 7.11D-01 1.60D-01.
     45 vectors produced by pass  3 Test12= 1.11D-14 2.08D-09 XBig12= 6.70D-03 1.45D-02.
     45 vectors produced by pass  4 Test12= 1.11D-14 2.08D-09 XBig12= 7.50D-05 1.21D-03.
     45 vectors produced by pass  5 Test12= 1.11D-14 2.08D-09 XBig12= 6.23D-07 8.92D-05.
     35 vectors produced by pass  6 Test12= 1.11D-14 2.08D-09 XBig12= 3.55D-09 7.00D-06.
     15 vectors produced by pass  7 Test12= 1.11D-14 2.08D-09 XBig12= 2.11D-11 3.98D-07.
      3 vectors produced by pass  8 Test12= 1.11D-14 2.08D-09 XBig12= 1.45D-13 4.00D-08.
      2 vectors produced by pass  9 Test12= 1.11D-14 2.08D-09 XBig12= 1.07D-15 2.54D-09.
 InvSVY:  IOpt=1 It=  1 EMax= 7.11D-15
 Solved reduced A of dimension   325 with    48 vectors.
 Isotropic polarizability for W=    0.000000       70.84 Bohr**3.
 End of Minotr F.D. properties file   721 does not exist.
 End of Minotr F.D. properties file   722 does not exist.
 End of Minotr F.D. properties file   788 does not exist.

 **********************************************************************

            Population analysis using the SCF density.

 **********************************************************************

 Orbital symmetries:
 Alpha Orbitals:
       Occupied  (A) (A) (A) (A) (A) (A) (A) (A) (A) (A) (A) (A)
                 (A) (A) (A) (A) (A) (A) (A) (A) (A) (A) (A) (A)
                 (A) (A) (A) (A) (A) (A) (A)
       Virtual   (A) (A) (A) (A) (A) (A) (A) (A) (A) (A) (A) (A)
                 (A) (A) (A) (A) (A) (A) (A) (A) (A) (A) (A) (A)
                 (A) (A) (A) (A) (A) (A) (A) (A) (A) (A) (A) (A)
                 (A) (A) (A) (A) (A) (A) (A) (A) (A) (A) (A) (A)
                 (A) (A) (A) (A) (A) (A) (A) (A) (A) (A) (A) (A)
                 (A) (A) (A) (A) (A) (A) (A) (A) (A) (A) (A) (A)
                 (A) (A) (A) (A) (A) (A) (A) (A) (A) (A) (A) (A)
                 (A) (A) (A)
 Beta  Orbitals:
       Occupied  (A) (A) (A) (A) (A) (A) (A) (A) (A) (A) (A) (A)
                 (A) (A) (A) (A) (A) (A) (A) (A) (A) (A) (A) (A)
                 (A) (A) (A) (A) (A) (A)
       Virtual   (A) (A) (A) (A) (A) (A) (A) (A) (A) (A) (A) (A)
                 (A) (A) (A) (A) (A) (A) (A) (A) (A) (A) (A) (A)
                 (A) (A) (A) (A) (A) (A) (A) (A) (A) (A) (A) (A)
                 (A) (A) (A) (A) (A) (A) (A) (A) (A) (A) (A) (A)
                 (A) (A) (A) (A) (A) (A) (A) (A) (A) (A) (A) (A)
                 (A) (A) (A) (A) (A) (A) (A) (A) (A) (A) (A) (A)
                 (A) (A) (A) (A) (A) (A) (A) (A) (A) (A) (A) (A)
                 (A) (A) (A) (A)
 The electronic state is 2-A.
 Alpha  occ. eigenvalues --  -19.72030 -19.67972 -19.66898 -10.74287 -10.65276
 Alpha  occ. eigenvalues --  -10.62626 -10.61618 -10.55484  -1.29505  -1.20217
 Alpha  occ. eigenvalues --   -1.11901  -0.93360  -0.89411  -0.80035  -0.73090
 Alpha  occ. eigenvalues --   -0.66138  -0.62638  -0.60007  -0.58420  -0.55123
 Alpha  occ. eigenvalues --   -0.53086  -0.50863  -0.48783  -0.47966  -0.46306
 Alpha  occ. eigenvalues --   -0.43277  -0.42573  -0.40774  -0.39676  -0.35882
 Alpha  occ. eigenvalues --   -0.31852
 Alpha virt. eigenvalues --   -0.03499   0.01418   0.02698   0.03025   0.03786
 Alpha virt. eigenvalues --    0.04612   0.05436   0.06201   0.07373   0.07734
 Alpha virt. eigenvalues --    0.08093   0.08667   0.09622   0.10363   0.11666
 Alpha virt. eigenvalues --    0.12371   0.13129   0.14649   0.15002   0.15516
 Alpha virt. eigenvalues --    0.15942   0.17307   0.18442   0.20771   0.21758
 Alpha virt. eigenvalues --    0.22901   0.23837   0.24692   0.25574   0.26357
 Alpha virt. eigenvalues --    0.27152   0.27925   0.28670   0.30223   0.30347
 Alpha virt. eigenvalues --    0.31720   0.32443   0.33080   0.34555   0.35880
 Alpha virt. eigenvalues --    0.37826   0.38580   0.39109   0.41397   0.43722
 Alpha virt. eigenvalues --    0.46522   0.51474   0.58611   0.68058   0.69130
 Alpha virt. eigenvalues --    0.69883   0.71495   0.73273   0.74578   0.75345
 Alpha virt. eigenvalues --    0.76511   0.79639   0.83763   0.85550   0.88768
 Alpha virt. eigenvalues --    0.94421   0.97436   1.02376   1.07449   1.08892
 Alpha virt. eigenvalues --    1.10213   1.13958   1.15217   1.18201   1.19336
 Alpha virt. eigenvalues --    1.20688   1.23331   1.25293   1.26856   1.28991
 Alpha virt. eigenvalues --    1.34323   1.36350   1.42208   1.43915   1.45784
 Alpha virt. eigenvalues --    1.46509   1.51642   1.63547   1.69986   1.80333
 Alpha virt. eigenvalues --    1.99407   2.06964
  Beta  occ. eigenvalues --  -19.72003 -19.67837 -19.66275 -10.74339 -10.65446
  Beta  occ. eigenvalues --  -10.62622 -10.60920 -10.55483  -1.29335  -1.19940
  Beta  occ. eigenvalues --   -1.09794  -0.91749  -0.88661  -0.79790  -0.72553
  Beta  occ. eigenvalues --   -0.65997  -0.62136  -0.59663  -0.58011  -0.54914
  Beta  occ. eigenvalues --   -0.51444  -0.50583  -0.47954  -0.46293  -0.43515
  Beta  occ. eigenvalues --   -0.42975  -0.41878  -0.39737  -0.39103  -0.34285
  Beta virt. eigenvalues --   -0.09192  -0.03407   0.01183   0.02490   0.03001
  Beta virt. eigenvalues --    0.03967   0.04598   0.06173   0.06203   0.07402
  Beta virt. eigenvalues --    0.07521   0.07994   0.08846   0.09665   0.10373
  Beta virt. eigenvalues --    0.11676   0.12902   0.13646   0.14489   0.15214
  Beta virt. eigenvalues --    0.15629   0.16325   0.17168   0.18551   0.20757
  Beta virt. eigenvalues --    0.21842   0.23404   0.23777   0.24676   0.25612
  Beta virt. eigenvalues --    0.26337   0.27178   0.27729   0.28628   0.30237
  Beta virt. eigenvalues --    0.30362   0.31658   0.32378   0.33097   0.34510
  Beta virt. eigenvalues --    0.35832   0.37903   0.38675   0.39280   0.41051
  Beta virt. eigenvalues --    0.43666   0.47013   0.52007   0.58839   0.67986
  Beta virt. eigenvalues --    0.68988   0.70042   0.71605   0.74911   0.75060
  Beta virt. eigenvalues --    0.75348   0.76622   0.79703   0.84189   0.86289
  Beta virt. eigenvalues --    0.88043   0.94210   0.97897   1.02408   1.07858
  Beta virt. eigenvalues --    1.08927   1.10224   1.13876   1.15314   1.18298
  Beta virt. eigenvalues --    1.19402   1.21017   1.23438   1.25769   1.27100
  Beta virt. eigenvalues --    1.30667   1.34507   1.36502   1.42229   1.44825
  Beta virt. eigenvalues --    1.46149   1.46596   1.51762   1.63090   1.70054
  Beta virt. eigenvalues --    1.81362   1.99400   2.06903
          Condensed to atoms (all electrons):
               1          2          3          4          5          6
     1  O    8.334669   0.167202   0.146635  -0.035031   0.062373  -0.143909
     2  H    0.167202   0.405217   0.043508   0.003466  -0.076254   0.030699
     3  C    0.146635   0.043508   9.249483   0.416064  -1.565407  -2.680407
     4  H   -0.035031   0.003466   0.416064   0.430311  -0.122049   0.042840
     5  C    0.062373  -0.076254  -1.565407  -0.122049  12.884395  -4.091523
     6  C   -0.143909   0.030699  -2.680407   0.042840  -4.091523  12.827005
     7  O    0.012288   0.004277   0.414231  -0.000537   0.228544  -0.607666
     8  O   -0.004041   0.002462   0.243713   0.000935  -0.927112   0.075003
     9  C   -0.000287   0.001959  -0.062613   0.001009  -0.377727   0.303894
    10  C   -0.000952   0.000846   0.033600   0.000041  -0.058462  -0.128415
    11  H    0.000000  -0.000000  -0.002778  -0.000000  -0.010893   0.028622
    12  H    0.000003  -0.000000   0.005072   0.000000   0.017532  -0.026862
    13  H    0.000000  -0.000000  -0.000280  -0.000000   0.002258   0.005568
    14  H    0.000001  -0.000000   0.000069   0.000000   0.003687   0.002877
    15  H    0.000000  -0.000000  -0.000417  -0.000000  -0.008534   0.005345
               7          8          9         10         11         12
     1  O    0.012288  -0.004041  -0.000287  -0.000952   0.000000   0.000003
     2  H    0.004277   0.002462   0.001959   0.000846  -0.000000  -0.000000
     3  C    0.414231   0.243713  -0.062613   0.033600  -0.002778   0.005072
     4  H   -0.000537   0.000935   0.001009   0.000041  -0.000000   0.000000
     5  C    0.228544  -0.927112  -0.377727  -0.058462  -0.010893   0.017532
     6  C   -0.607666   0.075003   0.303894  -0.128415   0.028622  -0.026862
     7  O    8.722426  -0.301699  -0.023766  -0.036020  -0.000378   0.001672
     8  O   -0.301699   9.246355  -0.043393   0.038851  -0.073064  -0.032054
     9  C   -0.023766  -0.043393   5.842910  -0.093866   0.428161   0.415844
    10  C   -0.036020   0.038851  -0.093866   5.742830  -0.056561  -0.071761
    11  H   -0.000378  -0.073064   0.428161  -0.056561   0.495944  -0.031880
    12  H    0.001672  -0.032054   0.415844  -0.071761  -0.031880   0.487902
    13  H   -0.000179   0.006946  -0.072833   0.401483  -0.000732  -0.000867
    14  H   -0.000428  -0.002366  -0.050683   0.390101  -0.004550   0.003770
    15  H    0.002278  -0.009033  -0.048056   0.406172   0.003572  -0.004696
              13         14         15
     1  O    0.000000   0.000001   0.000000
     2  H   -0.000000  -0.000000  -0.000000
     3  C   -0.000280   0.000069  -0.000417
     4  H   -0.000000   0.000000  -0.000000
     5  C    0.002258   0.003687  -0.008534
     6  C    0.005568   0.002877   0.005345
     7  O   -0.000179  -0.000428   0.002278
     8  O    0.006946  -0.002366  -0.009033
     9  C   -0.072833  -0.050683  -0.048056
    10  C    0.401483   0.390101   0.406172
    11  H   -0.000732  -0.004550   0.003572
    12  H   -0.000867   0.003770  -0.004696
    13  H    0.495293  -0.025099  -0.022579
    14  H   -0.025099   0.487648  -0.027004
    15  H   -0.022579  -0.027004   0.468074
          Atomic-Atomic Spin Densities.
               1          2          3          4          5          6
     1  O    0.405000   0.002924  -0.000885  -0.010662  -0.019232  -0.060312
     2  H    0.002924  -0.013402  -0.009559   0.000031   0.001040   0.012297
     3  C   -0.000885  -0.009559  -0.166905   0.028319  -0.204610   0.104258
     4  H   -0.010662   0.000031   0.028319   0.033631  -0.026472   0.009620
     5  C   -0.019232   0.001040  -0.204610  -0.026472   1.071738   0.076220
     6  C   -0.060312   0.012297   0.104258   0.009620   0.076220  -0.127039
     7  O    0.009577  -0.002656   0.006928  -0.000615  -0.018299  -0.081125
     8  O   -0.000526  -0.000040  -0.008572   0.000005  -0.003917   0.055883
     9  C   -0.000478   0.000127   0.005843   0.000075   0.001999  -0.018716
    10  C    0.000168  -0.000086  -0.004938  -0.000020  -0.000322   0.013998
    11  H   -0.000000   0.000000  -0.000101   0.000000  -0.000070  -0.000792
    12  H   -0.000004   0.000000   0.000246   0.000000  -0.001374   0.001734
    13  H    0.000000  -0.000000  -0.000020  -0.000000   0.000065  -0.000210
    14  H   -0.000000   0.000000   0.000064   0.000000  -0.000407   0.000235
    15  H   -0.000000   0.000000   0.000038   0.000000   0.000224  -0.000473
               7          8          9         10         11         12
     1  O    0.009577  -0.000526  -0.000478   0.000168  -0.000000  -0.000004
     2  H   -0.002656  -0.000040   0.000127  -0.000086   0.000000   0.000000
     3  C    0.006928  -0.008572   0.005843  -0.004938  -0.000101   0.000246
     4  H   -0.000615   0.000005   0.000075  -0.000020   0.000000   0.000000
     5  C   -0.018299  -0.003917   0.001999  -0.000322  -0.000070  -0.001374
     6  C   -0.081125   0.055883  -0.018716   0.013998  -0.000792   0.001734
     7  O    0.119235  -0.001321  -0.002751   0.002020  -0.000032  -0.000361
     8  O   -0.001321  -0.034321   0.007111  -0.008464  -0.000087   0.001356
     9  C   -0.002751   0.007111  -0.000300   0.005642   0.000188  -0.001356
    10  C    0.002020  -0.008464   0.005642  -0.006681   0.000595   0.000116
    11  H   -0.000032  -0.000087   0.000188   0.000595   0.000300   0.000020
    12  H   -0.000361   0.001356  -0.001356   0.000116   0.000020  -0.000316
    13  H   -0.000040  -0.000063  -0.000192   0.000326   0.000010  -0.000022
    14  H   -0.000037   0.000309  -0.000232   0.000150  -0.000002  -0.000004
    15  H   -0.000062   0.000120  -0.000067   0.000146   0.000003  -0.000005
              13         14         15
     1  O    0.000000  -0.000000  -0.000000
     2  H   -0.000000   0.000000   0.000000
     3  C   -0.000020   0.000064   0.000038
     4  H   -0.000000   0.000000   0.000000
     5  C    0.000065  -0.000407   0.000224
     6  C   -0.000210   0.000235  -0.000473
     7  O   -0.000040  -0.000037  -0.000062
     8  O   -0.000063   0.000309   0.000120
     9  C   -0.000192  -0.000232  -0.000067
    10  C    0.000326   0.000150   0.000146
    11  H    0.000010  -0.000002   0.000003
    12  H   -0.000022  -0.000004  -0.000005
    13  H    0.000288  -0.000038   0.000017
    14  H   -0.000038  -0.000020  -0.000012
    15  H    0.000017  -0.000012  -0.000028
 Mulliken charges and spin densities:
               1          2
     1  O   -0.538952   0.325569
     2  H    0.416620  -0.009323
     3  C   -0.240472  -0.249892
     4  H    0.262951   0.033913
     5  C    0.039170   0.876582
     6  C    0.356931  -0.014420
     7  O   -0.415041   0.030461
     8  O   -0.221503   0.007475
     9  C   -0.220553  -0.003106
    10  C   -0.567888   0.002651
    11  H    0.224537   0.000033
    12  H    0.236323   0.000031
    13  H    0.211020   0.000120
    14  H    0.221978   0.000004
    15  H    0.234879  -0.000098
 Sum of Mulliken charges =  -0.00000   1.00000
 Mulliken charges and spin densities with hydrogens summed into heavy atoms:
               1          2
     1  O   -0.122332   0.316245
     3  C    0.022479  -0.215979
     5  C    0.039170   0.876582
     6  C    0.356931  -0.014420
     7  O   -0.415041   0.030461
     8  O   -0.221503   0.007475
     9  C    0.240306  -0.003042
    10  C    0.099990   0.002678
 APT charges:
               1
     1  O   -0.486706
     2  H    0.242461
     3  C    0.214990
     4  H    0.166722
     5  C   -0.404579
     6  C    1.454047
     7  O   -0.753806
     8  O   -0.965730
     9  C    0.515849
    10  C   -0.061276
    11  H    0.000214
    12  H   -0.003005
    13  H    0.019279
    14  H    0.021675
    15  H    0.039865
 Sum of APT charges =   0.00000
 APT charges with hydrogens summed into heavy atoms:
               1
     1  O   -0.244245
     3  C    0.381712
     5  C   -0.404579
     6  C    1.454047
     7  O   -0.753806
     8  O   -0.965730
     9  C    0.513058
    10  C    0.019542
 Electronic spatial extent (au):  <R**2>=           1308.4477
 Charge=             -0.0000 electrons
 Dipole moment (field-independent basis, Debye):
    X=             -3.4606    Y=             -1.6612    Z=              0.0698  Tot=              3.8393
 Quadrupole moment (field-independent basis, Debye-Ang):
   XX=            -48.8138   YY=            -49.5753   ZZ=            -47.9927
   XY=             -6.1983   XZ=              1.0956   YZ=             -0.1487
 Traceless Quadrupole moment (field-independent basis, Debye-Ang):
   XX=             -0.0199   YY=             -0.7814   ZZ=              0.8013
   XY=             -6.1983   XZ=              1.0956   YZ=             -0.1487
 Octapole moment (field-independent basis, Debye-Ang**2):
  XXX=            -63.2231  YYY=              4.3055  ZZZ=             -3.5504  XYY=             10.6476
  XXY=            -23.1707  XXZ=             -1.9131  XZZ=             -4.1089  YZZ=              0.8727
  YYZ=              1.4916  XYZ=             -4.9788
 Hexadecapole moment (field-independent basis, Debye-Ang**3):
 XXXX=          -1494.6532 YYYY=           -211.7740 ZZZZ=           -114.2622 XXXY=            -86.3064
 XXXZ=             16.6922 YYYX=             11.0790 YYYZ=             -1.0882 ZZZX=              2.0928
 ZZZY=             -2.1872 XXYY=           -233.4938 XXZZ=           -254.0696 YYZZ=            -55.3279
 XXYZ=            -13.9867 YYXZ=              3.3515 ZZXY=              3.0944
 N-N= 3.517795191572D+02 E-N=-1.685534618187D+03  KE= 4.176590373957D+02
  Exact polarizability:  99.580   4.855  66.194   3.433  -2.827  46.748
 Approx polarizability: 101.914   8.284  84.375   5.525  -5.604  49.529
                          Isotropic Fermi Contact Couplings
        Atom                 a.u.       MegaHertz       Gauss      10(-4) cm-1
     1  O(17)              0.02082     -12.62308      -4.50423      -4.21061
     2  H(1)              -0.00549     -24.55771      -8.76280      -8.19157
     3  C(13)             -0.01686     -18.95489      -6.76358      -6.32267
     4  H(1)               0.01504      67.24469      23.99458      22.43042
     5  C(13)              0.17696     198.93822      70.98610      66.35865
     6  C(13)             -0.02589     -29.10287     -10.38463      -9.70767
     7  O(17)              0.02318     -14.05218      -5.01417      -4.68730
     8  O(17)              0.02114     -12.81296      -4.57198      -4.27394
     9  C(13)              0.00299       3.36361       1.20022       1.12198
    10  C(13)              0.00002       0.02679       0.00956       0.00894
    11  H(1)               0.00002       0.08771       0.03130       0.02926
    12  H(1)               0.00002       0.09791       0.03494       0.03266
    13  H(1)               0.00004       0.15913       0.05678       0.05308
    14  H(1)               0.00002       0.09484       0.03384       0.03164
    15  H(1)              -0.00003      -0.14449      -0.05156      -0.04820
 --------------------------------------------------------
       Center         ----  Spin Dipole Couplings  ----
                      3XX-RR        3YY-RR        3ZZ-RR
 --------------------------------------------------------
     1   Atom        0.232096      0.419785     -0.651881
     2   Atom        0.026092      0.018140     -0.044232
     3   Atom        0.113692     -0.038468     -0.075224
     4   Atom        0.003068     -0.000442     -0.002626
     5   Atom       -0.374821      0.690887     -0.316066
     6   Atom        0.022313      0.003681     -0.025994
     7   Atom        0.092104     -0.057476     -0.034628
     8   Atom        0.023730     -0.011156     -0.012574
     9   Atom        0.007955     -0.003802     -0.004153
    10   Atom        0.002522     -0.000988     -0.001534
    11   Atom        0.003079     -0.001441     -0.001638
    12   Atom        0.002664     -0.001245     -0.001419
    13   Atom        0.001535     -0.000662     -0.000874
    14   Atom        0.002197     -0.001311     -0.000886
    15   Atom        0.002096     -0.000703     -0.001393
 --------------------------------------------------------
                        XY            XZ            YZ
 --------------------------------------------------------
     1   Atom        0.953178     -0.048952     -0.061968
     2   Atom       -0.030940      0.015644     -0.016080
     3   Atom       -0.078888      0.040363     -0.018309
     4   Atom        0.008693     -0.000806      0.000867
     5   Atom        0.392730     -0.074843     -0.124455
     6   Atom       -0.011090      0.008461     -0.006999
     7   Atom       -0.106666      0.035936     -0.011197
     8   Atom       -0.022037      0.008546     -0.003855
     9   Atom       -0.001713      0.001024     -0.000085
    10   Atom       -0.001253     -0.001040      0.000293
    11   Atom        0.000448      0.001069      0.000146
    12   Atom       -0.001260      0.002163     -0.000845
    13   Atom       -0.000646     -0.000260      0.000071
    14   Atom       -0.000448     -0.001408      0.000134
    15   Atom       -0.001829     -0.001393      0.000562
 --------------------------------------------------------


 ---------------------------------------------------------------------------------
              Anisotropic Spin Dipole Couplings in Principal Axis System
 ---------------------------------------------------------------------------------

       Atom             a.u.   MegaHertz   Gauss  10(-4) cm-1        Axes

              Baa    -0.6563    47.486    16.944    15.840 -0.1318  0.1729  0.9761
     1 O(17)  Bbb    -0.6307    45.635    16.284    15.222  0.7297 -0.6495  0.2136
              Bcc     1.2869   -93.121   -33.228   -31.062  0.6709  0.7404 -0.0406
 
              Baa    -0.0492   -26.245    -9.365    -8.754 -0.1320  0.1725  0.9761
     2 H(1)   Bbb    -0.0090    -4.806    -1.715    -1.603  0.6707  0.7406 -0.0402
              Bcc     0.0582    31.051    11.080    10.358  0.7299 -0.6494  0.2134
 
              Baa    -0.0838   -11.248    -4.013    -3.752 -0.1382  0.1546  0.9783
     3 C(13)  Bbb    -0.0719    -9.647    -3.442    -3.218  0.4056  0.9099 -0.0865
              Bcc     0.1557    20.895     7.456     6.970  0.9035 -0.3848  0.1884
 
              Baa    -0.0078    -4.174    -1.490    -1.392 -0.6183  0.7541 -0.2216
     4 H(1)   Bbb    -0.0024    -1.258    -0.449    -0.420 -0.1359  0.1752  0.9751
              Bcc     0.0102     5.433     1.939     1.812  0.7741  0.6330 -0.0059
 
              Baa    -0.5097   -68.401   -24.407   -22.816  0.9406 -0.2893  0.1776
     5 C(13)  Bbb    -0.3276   -43.966   -15.688   -14.666 -0.1320  0.1702  0.9765
              Bcc     0.8374   112.367    40.095    37.482  0.3127  0.9420 -0.1219
 
              Baa    -0.0283    -3.798    -1.355    -1.267 -0.1261  0.1701  0.9773
     6 C(13)  Bbb    -0.0012    -0.164    -0.058    -0.055  0.4524  0.8866 -0.0960
              Bcc     0.0295     3.962     1.414     1.322  0.8829 -0.4300  0.1888
 
              Baa    -0.1136     8.217     2.932     2.741  0.4709  0.8776 -0.0899
     7 O(17)  Bbb    -0.0413     2.987     1.066     0.996 -0.1282  0.1689  0.9773
              Bcc     0.1548   -11.204    -3.998    -3.737  0.8728 -0.4486  0.1921
 
              Baa    -0.0218     1.579     0.564     0.527  0.4402  0.8973 -0.0328
     8 O(17)  Bbb    -0.0144     1.040     0.371     0.347 -0.1553  0.1121  0.9815
              Bcc     0.0362    -2.619    -0.934    -0.874  0.8844 -0.4270  0.1887
 
              Baa    -0.0043    -0.571    -0.204    -0.190 -0.1173 -0.2634  0.9575
     9 C(13)  Bbb    -0.0040    -0.541    -0.193    -0.180  0.1128  0.9544  0.2763
              Bcc     0.0083     1.112     0.397     0.371  0.9867 -0.1404  0.0822
 
              Baa    -0.0018    -0.240    -0.085    -0.080  0.2410  0.0226  0.9703
    10 C(13)  Bbb    -0.0014    -0.186    -0.066    -0.062  0.2817  0.9551 -0.0922
              Bcc     0.0032     0.425     0.152     0.142  0.9288 -0.2955 -0.2238
 
              Baa    -0.0019    -1.001    -0.357    -0.334 -0.1990 -0.1206  0.9726
    11 H(1)   Bbb    -0.0015    -0.790    -0.282    -0.264 -0.1201  0.9879  0.0980
              Bcc     0.0034     1.791     0.639     0.597  0.9726  0.0973  0.2111
 
              Baa    -0.0024    -1.304    -0.465    -0.435 -0.3031  0.3151  0.8993
    12 H(1)   Bbb    -0.0016    -0.841    -0.300    -0.281  0.3691  0.9089 -0.1940
              Bcc     0.0040     2.145     0.765     0.716  0.8786 -0.2732  0.3918
 
              Baa    -0.0009    -0.481    -0.172    -0.160  0.0965 -0.0358  0.9947
    13 H(1)   Bbb    -0.0008    -0.447    -0.159    -0.149  0.2635  0.9646  0.0091
              Bcc     0.0017     0.928     0.331     0.309  0.9598 -0.2612 -0.1025
 
              Baa    -0.0014    -0.773    -0.276    -0.258  0.3727  0.3982  0.8382
    14 H(1)   Bbb    -0.0013    -0.719    -0.257    -0.240 -0.0481  0.9103 -0.4111
              Bcc     0.0028     1.492     0.532     0.498  0.9267 -0.1129 -0.3584
 
              Baa    -0.0019    -1.011    -0.361    -0.337  0.4007  0.1923  0.8958
    15 H(1)   Bbb    -0.0016    -0.836    -0.298    -0.279  0.3171  0.8882 -0.3325
              Bcc     0.0035     1.847     0.659     0.616  0.8596 -0.4173 -0.2950
 

 ---------------------------------------------------------------------------------

 Calling FoFJK, ICntrl=    100127 FMM=F ISym2X=0 I1Cent= 0 IOpClX= 1 NMat=1 NMatS=1 NMatT=0.
 Full mass-weighted force constant matrix:
 Low frequencies --- -565.8542 -318.6309 -139.4214  -88.7310  -51.3332   -0.0004
 Low frequencies ---    0.0006    0.0009   45.8677
 ******    3 imaginary frequencies (negative Signs) ****** 
 Diagonal vibrational polarizability:
       44.1070603      16.0671335     136.4119814
 Harmonic frequencies (cm**-1), IR intensities (KM/Mole), Raman scattering
 activities (A**4/AMU), depolarization ratios for plane and unpolarized
 incident light, reduced masses (AMU), force constants (mDyne/A),
 and normal coordinates:
                      1                      2                      3
                      A                      A                      A
 Frequencies --   -565.8473              -311.9198               -46.8798
 Red. masses --     11.9629                 1.0741                 3.8638
 Frc consts  --      2.2568                 0.0616                 0.0050
 IR Inten    --     43.6905               134.8488                 4.1584
  Atom  AN      X      Y      Z        X      Y      Z        X      Y      Z
     1   8    -0.24  -0.44   0.05     0.01  -0.01  -0.05     0.04  -0.03  -0.08
     2   1     0.13  -0.04   0.01    -0.14   0.17   0.97     0.08  -0.03  -0.22
     3   6     0.26   0.74  -0.09     0.01  -0.00  -0.02     0.01   0.01  -0.04
     4   1    -0.23   0.14  -0.05     0.02  -0.01  -0.09     0.00  -0.01  -0.04
     5   6    -0.03  -0.19   0.03    -0.00   0.00   0.02     0.01   0.03   0.00
     6   6     0.04  -0.01   0.01    -0.00  -0.00   0.01    -0.03  -0.00   0.08
     7   8     0.03   0.00   0.00    -0.00  -0.00  -0.00    -0.13   0.03   0.30
     8   8     0.00   0.01  -0.00     0.00  -0.00   0.01     0.03  -0.08  -0.05
     9   6     0.01   0.01  -0.00     0.00  -0.01  -0.00    -0.00  -0.12  -0.04
    10   6     0.00   0.00  -0.00    -0.00   0.02  -0.02     0.08   0.16  -0.16
    11   1     0.01   0.01  -0.00     0.00  -0.02   0.01    -0.02  -0.20   0.19
    12   1     0.00   0.01   0.00     0.00  -0.03  -0.02    -0.08  -0.31  -0.21
    13   1     0.00   0.00   0.00    -0.00   0.01  -0.03     0.02   0.00  -0.16
    14   1     0.00  -0.00  -0.00    -0.00   0.03  -0.00     0.22   0.38   0.04
    15   1     0.00   0.00   0.00    -0.01   0.02  -0.04     0.02   0.30  -0.45
                      4                      5                      6
                      A                      A                      A
 Frequencies --     37.6595                53.3092               158.2752
 Red. masses --      4.0762                 4.9418                 5.8152
 Frc consts  --      0.0034                 0.0083                 0.0858
 IR Inten    --      2.3937                 1.1148                 7.6839
  Atom  AN      X      Y      Z        X      Y      Z        X      Y      Z
     1   8     0.10  -0.10   0.19     0.22  -0.20  -0.05     0.04  -0.09  -0.22
     2   1     0.20   0.03   0.26     0.36  -0.05  -0.10     0.05  -0.03  -0.07
     3   6    -0.03   0.01   0.05     0.03  -0.03  -0.07    -0.07   0.02   0.18
     4   1    -0.13  -0.08   0.11    -0.07  -0.17  -0.13    -0.11   0.01   0.30
     5   6    -0.00   0.13  -0.13     0.02   0.18   0.05    -0.09   0.11   0.36
     6   6    -0.04   0.06  -0.14    -0.01   0.14   0.07    -0.04   0.06   0.05
     7   8    -0.16   0.05  -0.15    -0.10   0.12  -0.03    -0.05   0.05  -0.00
     8   8     0.02  -0.03  -0.08     0.04   0.07   0.15     0.00  -0.00  -0.26
     9   6    -0.05  -0.11   0.09     0.01  -0.06  -0.02    -0.00   0.05  -0.09
    10   6     0.15   0.04   0.10    -0.24  -0.15  -0.08     0.17  -0.15   0.10
    11   1    -0.08  -0.18   0.32     0.14  -0.12  -0.13    -0.05   0.11  -0.16
    12   1    -0.24  -0.21  -0.03     0.05  -0.02   0.02    -0.07   0.18   0.01
    13   1     0.07  -0.10   0.26    -0.24  -0.23  -0.22     0.16  -0.06   0.30
    14   1     0.40   0.16   0.23    -0.31  -0.19  -0.12     0.24  -0.30  -0.03
    15   1     0.13   0.15  -0.17    -0.35  -0.11   0.05     0.25  -0.24   0.18
                      7                      8                      9
                      A                      A                      A
 Frequencies --    179.5925               269.8695               296.5692
 Red. masses --      1.2516                 3.3712                 3.4987
 Frc consts  --      0.0238                 0.1447                 0.1813
 IR Inten    --      3.9036                 7.6143                20.6519
  Atom  AN      X      Y      Z        X      Y      Z        X      Y      Z
     1   8     0.04   0.01   0.01     0.21   0.05   0.01     0.09  -0.01  -0.11
     2   1     0.06   0.03   0.01     0.28   0.14   0.02     0.07   0.04   0.11
     3   6     0.01   0.03  -0.01     0.06   0.11   0.01    -0.01   0.06   0.24
     4   1     0.00   0.02  -0.01     0.06   0.12   0.04    -0.07   0.14   0.68
     5   6     0.01   0.03  -0.02     0.05  -0.00  -0.00     0.04  -0.05  -0.18
     6   6    -0.02  -0.03   0.00    -0.05  -0.15   0.00     0.03  -0.02  -0.14
     7   8    -0.08  -0.03   0.00    -0.09  -0.15   0.01     0.10   0.03   0.11
     8   8    -0.01  -0.05   0.01    -0.11  -0.09  -0.02    -0.01   0.03  -0.09
     9   6     0.01   0.01  -0.00    -0.02   0.18  -0.04    -0.08  -0.05   0.08
    10   6     0.03   0.03  -0.00    -0.06   0.04   0.03    -0.15  -0.01   0.04
    11   1    -0.03   0.05  -0.03    -0.11   0.33  -0.24    -0.04  -0.11   0.16
    12   1     0.07   0.02   0.02     0.18   0.31   0.10    -0.22  -0.07   0.04
    13   1     0.27   0.55  -0.18    -0.22  -0.30   0.16    -0.08   0.09  -0.13
    14   1    -0.49  -0.07  -0.14     0.28   0.02   0.03    -0.36   0.01   0.04
    15   1     0.35  -0.31   0.28    -0.29   0.24  -0.06    -0.11  -0.07   0.12
                     10                     11                     12
                      A                      A                      A
 Frequencies --    334.6093               434.3696               575.4206
 Red. masses --      3.6482                 3.6570                 4.5326
 Frc consts  --      0.2407                 0.4065                 0.8842
 IR Inten    --     17.9824                 4.9459                 6.5704
  Atom  AN      X      Y      Z        X      Y      Z        X      Y      Z
     1   8     0.14   0.06   0.07     0.10   0.02  -0.01    -0.11  -0.05  -0.01
     2   1     0.22   0.11  -0.06     0.19   0.14   0.03    -0.33  -0.31   0.01
     3   6     0.03   0.05  -0.15    -0.11   0.08   0.03     0.27  -0.09   0.06
     4   1     0.07   0.01  -0.43    -0.14   0.09   0.15     0.26  -0.10   0.08
     5   6    -0.04  -0.03   0.18    -0.10  -0.05  -0.12     0.28   0.20  -0.02
     6   6    -0.04  -0.02   0.05    -0.08   0.01   0.03     0.01  -0.05   0.03
     7   8     0.19  -0.03  -0.03     0.10   0.02   0.04    -0.01  -0.05   0.01
     8   8    -0.08   0.03  -0.13    -0.12   0.07   0.20    -0.12   0.08   0.03
     9   6    -0.19  -0.12   0.04    -0.07  -0.05  -0.16    -0.22   0.02  -0.11
    10   6    -0.07   0.03   0.02     0.17  -0.10  -0.07    -0.01  -0.01  -0.01
    11   1    -0.15  -0.24   0.29    -0.03  -0.08  -0.15    -0.15  -0.08   0.01
    12   1    -0.43  -0.25  -0.11     0.01  -0.09  -0.18    -0.28  -0.05  -0.18
    13   1     0.01   0.21  -0.02     0.15   0.05   0.34    -0.02   0.15   0.35
    14   1    -0.21   0.10   0.07     0.40  -0.22  -0.15     0.17  -0.11  -0.08
    15   1     0.08  -0.06  -0.04     0.40  -0.24  -0.16     0.21  -0.14  -0.08
                     13                     14                     15
                      A                      A                      A
 Frequencies --    619.8075               747.0078               814.8217
 Red. masses --      8.1060                11.3665                 1.2848
 Frc consts  --      1.8347                 3.7370                 0.5026
 IR Inten    --     10.6382                27.2855                 4.7006
  Atom  AN      X      Y      Z        X      Y      Z        X      Y      Z
     1   8    -0.09  -0.10   0.01     0.00  -0.01  -0.04    -0.01  -0.01   0.00
     2   1    -0.03  -0.02   0.00     0.00   0.01   0.01     0.03   0.03   0.00
     3   6    -0.17   0.07  -0.04    -0.03   0.03   0.16    -0.04   0.01  -0.02
     4   1    -0.33  -0.10  -0.04     0.01  -0.02  -0.13    -0.06   0.01   0.03
     5   6    -0.04   0.55  -0.09     0.05  -0.06  -0.38    -0.01   0.04  -0.00
     6   6    -0.11  -0.09  -0.02    -0.11   0.13   0.79     0.01  -0.05  -0.00
     7   8     0.33  -0.06   0.06     0.03  -0.05  -0.19    -0.01  -0.06   0.01
     8   8    -0.03  -0.25   0.01     0.03  -0.04  -0.20     0.00   0.05   0.00
     9   6     0.07  -0.02   0.06     0.03   0.01   0.00     0.06   0.07  -0.01
    10   6     0.00   0.02   0.01    -0.00   0.01   0.01     0.03   0.02  -0.02
    11   1    -0.09   0.19  -0.19     0.00  -0.02   0.11     0.01  -0.11   0.53
    12   1     0.32   0.10   0.20    -0.09  -0.03  -0.05    -0.17  -0.32  -0.36
    13   1     0.00  -0.06  -0.17     0.00  -0.04  -0.12    -0.05  -0.18  -0.02
    14   1    -0.07   0.12   0.09    -0.09   0.02   0.01     0.01  -0.31  -0.30
    15   1    -0.09   0.10  -0.03    -0.11   0.07   0.08    -0.19   0.02   0.41
                     16                     17                     18
                      A                      A                      A
 Frequencies --    831.9713               893.8707               939.0126
 Red. masses --      1.3732                 3.1745                 2.3609
 Frc consts  --      0.5600                 1.4944                 1.2265
 IR Inten    --     41.6505                10.8634                15.1182
  Atom  AN      X      Y      Z        X      Y      Z        X      Y      Z
     1   8    -0.00   0.01   0.02    -0.01  -0.01   0.00    -0.03  -0.02  -0.00
     2   1    -0.01   0.01   0.06     0.05   0.07  -0.00     0.26   0.32  -0.02
     3   6     0.02  -0.03  -0.16    -0.06   0.02  -0.01    -0.10   0.01  -0.02
     4   1    -0.13   0.16   0.96    -0.07   0.01  -0.01    -0.01   0.13  -0.02
     5   6    -0.00   0.00   0.02    -0.01   0.08  -0.01    -0.03   0.05  -0.01
     6   6    -0.01   0.01   0.05     0.03  -0.12   0.02     0.13  -0.05   0.03
     7   8     0.00  -0.00  -0.01    -0.05  -0.17   0.02    -0.02  -0.08   0.01
     8   8     0.00  -0.00  -0.01    -0.03   0.27  -0.04     0.15   0.02  -0.00
     9   6    -0.00  -0.00   0.00     0.07  -0.03   0.09    -0.04  -0.01  -0.11
    10   6    -0.00   0.00   0.00     0.07  -0.10  -0.04    -0.14   0.07   0.08
    11   1    -0.00   0.00  -0.01     0.27  -0.09  -0.14     0.22  -0.17  -0.17
    12   1     0.00   0.01   0.01    -0.17   0.25   0.29     0.00  -0.03  -0.12
    13   1     0.00   0.01  -0.01     0.17  -0.02  -0.42    -0.14   0.33   0.60
    14   1    -0.00   0.02   0.02    -0.14   0.30   0.28     0.16   0.03   0.07
    15   1     0.00   0.01  -0.02     0.09   0.01  -0.39     0.20  -0.12  -0.09
                     19                     20                     21
                      A                      A                      A
 Frequencies --    972.5403              1102.9584              1145.3908
 Red. masses --      1.1639                 2.9926                 1.3195
 Frc consts  --      0.6486                 2.1449                 1.0199
 IR Inten    --     79.8888                 9.6117                15.4186
  Atom  AN      X      Y      Z        X      Y      Z        X      Y      Z
     1   8    -0.05  -0.04   0.00     0.02  -0.02   0.01     0.04  -0.02   0.01
     2   1     0.43   0.52  -0.03    -0.20  -0.28   0.02    -0.36  -0.49   0.04
     3   6    -0.00  -0.05   0.01     0.03  -0.00   0.01    -0.05   0.02  -0.01
     4   1     0.50   0.51  -0.02     0.35   0.34  -0.01     0.40   0.53  -0.04
     5   6     0.03   0.00   0.00    -0.00  -0.00   0.00    -0.03   0.01  -0.01
     6   6    -0.01   0.02  -0.00    -0.14  -0.00  -0.02    -0.01  -0.01   0.00
     7   8     0.01   0.02  -0.00     0.01   0.01   0.00    -0.00  -0.01  -0.00
     8   8    -0.03  -0.01   0.00    -0.11   0.08  -0.03     0.04  -0.00  -0.01
     9   6    -0.00   0.01   0.02     0.23  -0.16  -0.13    -0.01   0.04   0.09
    10   6     0.03  -0.01  -0.02    -0.06   0.09   0.16    -0.03  -0.02  -0.08
    11   1    -0.06   0.05   0.03     0.26  -0.16  -0.22     0.05   0.00   0.08
    12   1    -0.01   0.01   0.02     0.31  -0.21  -0.17    -0.00   0.02   0.08
    13   1     0.03  -0.06  -0.11    -0.06   0.07   0.17    -0.03   0.08   0.17
    14   1    -0.03  -0.01  -0.02    -0.06   0.09   0.18     0.15  -0.08  -0.13
    15   1    -0.03   0.02   0.01    -0.09   0.09   0.24     0.14  -0.13  -0.12
                     22                     23                     24
                      A                      A                      A
 Frequencies --   1158.6777              1228.7069              1333.1840
 Red. masses --      1.8938                 1.7477                 1.6899
 Frc consts  --      1.4980                 1.5546                 1.7697
 IR Inten    --     38.4187                 3.0773               278.3750
  Atom  AN      X      Y      Z        X      Y      Z        X      Y      Z
     1   8    -0.02   0.01  -0.01    -0.00   0.00  -0.00     0.01  -0.00   0.00
     2   1     0.20   0.28  -0.02     0.04   0.06  -0.00    -0.06  -0.08   0.00
     3   6     0.05  -0.02   0.01     0.03  -0.01   0.01    -0.05   0.01  -0.01
     4   1    -0.20  -0.31   0.02    -0.01  -0.06   0.01    -0.00   0.07  -0.01
     5   6     0.02  -0.01   0.01     0.00  -0.01   0.00    -0.00   0.02  -0.00
     6   6    -0.04   0.01  -0.00    -0.06   0.01  -0.01     0.19   0.02   0.02
     7   8     0.00   0.01  -0.00     0.01   0.03  -0.00    -0.02   0.01  -0.00
     8   8    -0.08   0.03  -0.05    -0.03  -0.07   0.01    -0.09   0.01  -0.01
     9   6     0.11  -0.04   0.16     0.10   0.16  -0.03     0.06  -0.03  -0.02
    10   6    -0.08   0.03  -0.12    -0.07  -0.11   0.03    -0.04  -0.06   0.02
    11   1     0.09   0.03   0.03     0.31  -0.15   0.37    -0.65   0.40   0.22
    12   1     0.26  -0.08   0.15    -0.29  -0.10  -0.30     0.31  -0.26  -0.18
    13   1    -0.12   0.16   0.45     0.09   0.26  -0.00     0.02   0.09  -0.00
    14   1     0.32  -0.19  -0.26     0.01   0.26   0.34     0.01   0.12   0.18
    15   1     0.24  -0.23  -0.06     0.15  -0.09  -0.44     0.06  -0.06  -0.17
                     25                     26                     27
                      A                      A                      A
 Frequencies --   1376.1410              1444.1766              1457.6502
 Red. masses --      1.9577                 1.4015                 1.2638
 Frc consts  --      2.1844                 1.7222                 1.5821
 IR Inten    --    390.6576                52.2759                16.7439
  Atom  AN      X      Y      Z        X      Y      Z        X      Y      Z
     1   8    -0.01   0.00  -0.00     0.00  -0.00   0.00     0.00  -0.00   0.00
     2   1     0.05   0.06  -0.00    -0.01  -0.02   0.00    -0.00  -0.00   0.00
     3   6     0.04  -0.01   0.01    -0.02   0.00  -0.00    -0.01   0.00  -0.00
     4   1     0.01  -0.06   0.01    -0.01   0.02  -0.01    -0.00   0.01  -0.00
     5   6     0.00  -0.01   0.00     0.00   0.00   0.00     0.00   0.00   0.00
     6   6    -0.19  -0.02  -0.02     0.09  -0.00   0.01     0.03   0.00   0.00
     7   8     0.01  -0.03   0.01    -0.01   0.02  -0.01    -0.00   0.00  -0.00
     8   8     0.14   0.08  -0.01    -0.07  -0.02  -0.02    -0.02  -0.00  -0.01
     9   6    -0.08   0.04   0.02    -0.08   0.05   0.06    -0.03   0.02   0.03
    10   6    -0.00  -0.05   0.02     0.02   0.01   0.06     0.07  -0.06  -0.10
    11   1    -0.29   0.17   0.10     0.52  -0.27  -0.30     0.17  -0.07  -0.12
    12   1     0.74  -0.38  -0.22     0.42  -0.37  -0.24     0.14  -0.14  -0.09
    13   1     0.04   0.02  -0.06     0.04  -0.12  -0.26     0.00   0.14   0.52
    14   1    -0.07   0.05   0.09    -0.02  -0.18  -0.13    -0.30   0.38   0.27
    15   1     0.02   0.00  -0.17     0.08   0.04  -0.19    -0.38   0.12   0.35
                     28                     29                     30
                      A                      A                      A
 Frequencies --   1528.6774              1537.7740              1545.7436
 Red. masses --      1.0421                 1.0695                 1.0748
 Frc consts  --      1.4348                 1.4900                 1.5130
 IR Inten    --     14.0250                 4.8766                23.4205
  Atom  AN      X      Y      Z        X      Y      Z        X      Y      Z
     1   8    -0.00  -0.00  -0.00     0.00  -0.00   0.00     0.00  -0.00   0.00
     2   1     0.00   0.00  -0.00    -0.00  -0.00  -0.00    -0.00  -0.00   0.00
     3   6    -0.00   0.00  -0.00    -0.00   0.00  -0.00    -0.00   0.00  -0.00
     4   1    -0.00  -0.00   0.00    -0.00   0.00  -0.00    -0.00   0.00  -0.00
     5   6     0.00  -0.00  -0.00     0.00   0.00   0.00     0.00   0.00   0.00
     6   6    -0.00   0.00  -0.00     0.02  -0.01   0.00     0.02  -0.01   0.00
     7   8    -0.00  -0.01   0.00    -0.00   0.01  -0.00    -0.00   0.01  -0.00
     8   8     0.00   0.00   0.00    -0.02  -0.00  -0.01    -0.01  -0.00  -0.01
     9   6    -0.02  -0.01   0.01    -0.02  -0.02  -0.05    -0.04   0.01  -0.04
    10   6    -0.03  -0.04   0.00     0.02  -0.02   0.02    -0.03   0.01  -0.03
    11   1     0.01   0.01  -0.12     0.07  -0.26   0.48     0.11  -0.24   0.33
    12   1    -0.02  -0.05  -0.02     0.35   0.32   0.30     0.33   0.18   0.16
    13   1     0.26   0.54  -0.29     0.08   0.24   0.13    -0.06  -0.21  -0.22
    14   1     0.58  -0.05   0.02    -0.15  -0.21  -0.17     0.28   0.30   0.26
    15   1    -0.35   0.15   0.23    -0.24   0.27  -0.26     0.22  -0.32   0.41
                     31                     32                     33
                      A                      A                      A
 Frequencies --   1860.2086              1931.6812              3108.5313
 Red. masses --     10.5224                 8.5803                 1.0351
 Frc consts  --     21.4531                18.8636                 5.8933
 IR Inten    --    185.3966               186.5573                11.9745
  Atom  AN      X      Y      Z        X      Y      Z        X      Y      Z
     1   8     0.00   0.02  -0.00    -0.01  -0.03   0.00    -0.00  -0.00  -0.00
     2   1     0.02   0.02  -0.00    -0.05  -0.09   0.01     0.00   0.00   0.00
     3   6     0.28  -0.05   0.05    -0.37   0.08  -0.06     0.00   0.00   0.00
     4   1     0.35  -0.15   0.07    -0.49   0.23  -0.11    -0.00   0.00   0.00
     5   6    -0.36   0.06  -0.06     0.55  -0.12   0.10    -0.00   0.00  -0.00
     6   6     0.07   0.60  -0.10    -0.11   0.37  -0.08     0.00   0.00   0.00
     7   8     0.02  -0.43   0.08     0.01  -0.20   0.04     0.00  -0.00  -0.00
     8   8    -0.04  -0.05   0.00    -0.03  -0.02  -0.00    -0.00  -0.00  -0.00
     9   6    -0.02   0.02  -0.01     0.00   0.01  -0.00     0.00  -0.00  -0.00
    10   6     0.01  -0.00   0.01     0.00  -0.00   0.00    -0.02   0.02   0.04
    11   1     0.10  -0.11   0.08     0.05  -0.04   0.04     0.00   0.01   0.00
    12   1     0.13   0.04   0.01     0.05   0.02   0.01    -0.00  -0.02   0.02
    13   1    -0.00  -0.04  -0.03    -0.00  -0.02  -0.01     0.56  -0.21   0.12
    14   1    -0.03   0.00   0.00    -0.01  -0.00  -0.00     0.03   0.39  -0.44
    15   1     0.03  -0.00  -0.03     0.02  -0.00  -0.02    -0.31  -0.40  -0.13
                     34                     35                     36
                      A                      A                      A
 Frequencies --   3139.3678              3188.8417              3192.2666
 Red. masses --      1.0602                 1.1004                 1.1025
 Frc consts  --      6.1566                 6.5929                 6.6195
 IR Inten    --     18.4670                12.7351                 5.3864
  Atom  AN      X      Y      Z        X      Y      Z        X      Y      Z
     1   8    -0.00  -0.00   0.00    -0.00  -0.00   0.00    -0.00  -0.00   0.00
     2   1     0.00   0.00  -0.00     0.00   0.00  -0.00     0.00  -0.00  -0.00
     3   6     0.00   0.00   0.00     0.00  -0.00   0.00     0.00  -0.00   0.00
     4   1     0.00  -0.00   0.00    -0.00   0.00  -0.00    -0.00   0.00  -0.00
     5   6    -0.00   0.00  -0.00    -0.00   0.00  -0.00    -0.00  -0.00  -0.00
     6   6     0.00   0.00  -0.00     0.00   0.00  -0.00    -0.00   0.00  -0.00
     7   8     0.00  -0.00   0.00    -0.00  -0.00  -0.00     0.00  -0.00   0.00
     8   8    -0.00   0.00  -0.00     0.00  -0.00   0.00     0.00  -0.00  -0.00
     9   6    -0.02   0.01  -0.06    -0.02  -0.03  -0.00     0.02   0.05  -0.01
    10   6     0.01  -0.00   0.01    -0.03   0.06  -0.05    -0.07  -0.02  -0.02
    11   1     0.32   0.43   0.14     0.24   0.32   0.12    -0.24  -0.32  -0.12
    12   1    -0.09  -0.54   0.61     0.01   0.09  -0.11    -0.04  -0.24   0.29
    13   1    -0.11   0.04  -0.03     0.50  -0.18   0.09     0.49  -0.20   0.10
    14   1     0.01   0.04  -0.04    -0.05  -0.45   0.52    -0.02  -0.03   0.02
    15   1    -0.01  -0.02  -0.00    -0.09  -0.10  -0.05     0.35   0.48   0.16
                     37                     38                     39
                      A                      A                      A
 Frequencies --   3213.2404              3356.6831              3823.1626
 Red. masses --      1.1054                 1.1152                 1.0678
 Frc consts  --      6.7246                 7.4031                 9.1958
 IR Inten    --     16.8389                15.9295                28.7711
  Atom  AN      X      Y      Z        X      Y      Z        X      Y      Z
     1   8    -0.00  -0.00  -0.00     0.00  -0.00   0.00    -0.05   0.04  -0.01
     2   1     0.00   0.00  -0.00    -0.01   0.00  -0.00     0.74  -0.63   0.21
     3   6     0.00  -0.00   0.00    -0.08   0.06  -0.02    -0.00  -0.00  -0.00
     4   1    -0.00   0.00  -0.00     0.73  -0.64   0.21     0.01  -0.01   0.00
     5   6    -0.00   0.00  -0.00     0.02  -0.00   0.00     0.00   0.00   0.00
     6   6     0.00  -0.00   0.00    -0.00   0.00  -0.00     0.00  -0.00   0.00
     7   8    -0.00   0.00  -0.00    -0.00   0.00  -0.00    -0.00   0.00  -0.00
     8   8     0.00  -0.00   0.00    -0.00  -0.00   0.00    -0.00   0.00  -0.00
     9   6    -0.03  -0.06   0.01    -0.00  -0.00   0.00     0.00   0.00   0.00
    10   6    -0.04  -0.05   0.01    -0.00  -0.00   0.00    -0.00   0.00  -0.00
    11   1     0.33   0.45   0.17     0.00  -0.00   0.00    -0.00   0.00  -0.00
    12   1     0.04   0.25  -0.30     0.00   0.00  -0.00    -0.00   0.00  -0.00
    13   1     0.09  -0.05   0.02     0.00  -0.00   0.00    -0.00   0.00   0.00
    14   1     0.02   0.26  -0.31    -0.00  -0.00  -0.00     0.00   0.00  -0.00
    15   1     0.33   0.43   0.16    -0.00   0.00   0.00     0.00  -0.00   0.00

 -------------------
 - Thermochemistry -
 -------------------
 Temperature   298.150 Kelvin.  Pressure   1.00000 Atm.
 Atom     1 has atomic number  8 and mass  15.99491
 Atom     2 has atomic number  1 and mass   1.00783
 Atom     3 has atomic number  6 and mass  12.00000
 Atom     4 has atomic number  1 and mass   1.00783
 Atom     5 has atomic number  6 and mass  12.00000
 Atom     6 has atomic number  6 and mass  12.00000
 Atom     7 has atomic number  8 and mass  15.99491
 Atom     8 has atomic number  8 and mass  15.99491
 Atom     9 has atomic number  6 and mass  12.00000
 Atom    10 has atomic number  6 and mass  12.00000
 Atom    11 has atomic number  1 and mass   1.00783
 Atom    12 has atomic number  1 and mass   1.00783
 Atom    13 has atomic number  1 and mass   1.00783
 Atom    14 has atomic number  1 and mass   1.00783
 Atom    15 has atomic number  1 and mass   1.00783
 Molecular mass:   115.03952 amu.
 Principal axes and moments of inertia in atomic units:
                           1         2         3
     Eigenvalues --   313.739821896.434722057.07161
           X            0.99993  -0.00981  -0.00584
           Y            0.00991   0.99981   0.01657
           Z            0.00568  -0.01663   0.99985
 This molecule is an asymmetric top.
 Rotational symmetry number  1.
 Rotational temperatures (Kelvin)      0.27607     0.04567     0.04211
 Rotational constants (GHZ):           5.75235     0.95165     0.87734
    3 imaginary frequencies ignored.
 Zero-point vibrational energy     298060.2 (Joules/Mol)
                                   71.23809 (Kcal/Mol)
 Warning -- explicit consideration of  10 degrees of freedom as
           vibrations may cause significant error
 Vibrational temperatures:     54.18    76.70   227.72   258.39   388.28
          (Kelvin)            426.70   481.43   624.96   827.90   891.76
                             1074.78  1172.35  1197.02  1286.08  1351.03
                             1399.27  1586.91  1647.96  1667.08  1767.84
                             1918.15  1979.96  2077.85  2097.23  2199.43
                             2212.51  2223.98  2676.43  2779.26  4472.48
                             4516.85  4588.03  4592.96  4623.14  4829.52
                             5500.68
 
 Zero-point correction=                           0.113525 (Hartree/Particle)
 Thermal correction to Energy=                    0.121639
 Thermal correction to Enthalpy=                  0.122583
 Thermal correction to Gibbs Free Energy=         0.078675
 Sum of electronic and zero-point Energies=           -419.861981
 Sum of electronic and thermal Energies=              -419.853868
 Sum of electronic and thermal Enthalpies=            -419.852924
 Sum of electronic and thermal Free Energies=         -419.896832
 
                     E (Thermal)             CV                S
                      KCal/Mol        Cal/Mol-Kelvin    Cal/Mol-Kelvin
 Total                   76.329             27.099             92.413
 Electronic               0.000              0.000              1.377
 Translational            0.889              2.981             40.136
 Rotational               0.889              2.981             28.594
 Vibrational             74.552             21.137             22.305
 Vibration     1          0.594              1.982              5.379
 Vibration     2          0.596              1.976              4.691
 Vibration     3          0.621              1.893              2.570
 Vibration     4          0.629              1.867              2.333
 Vibration     5          0.674              1.729              1.597
 Vibration     6          0.690              1.680              1.436
 Vibration     7          0.716              1.606              1.238
 Vibration     8          0.795              1.395              0.844
 Vibration     9          0.932              1.084              0.494
 Vibration    10          0.980              0.990              0.417
                       Q            Log10(Q)             Ln(Q)
 Total Bot       0.648908D-36        -36.187817        -83.325528
 Total V=0       0.107169D+17         16.030070         36.910601
 Vib (Bot)       0.168929D-49        -49.772295       -114.604946
 Vib (Bot)    1  0.549502D+01          0.739969          1.703842
 Vib (Bot)    2  0.387652D+01          0.588442          1.354938
 Vib (Bot)    3  0.127798D+01          0.106523          0.245278
 Vib (Bot)    4  0.111853D+01          0.048646          0.112011
 Vib (Bot)    5  0.716176D+00         -0.144980         -0.333829
 Vib (Bot)    6  0.642488D+00         -0.192135         -0.442407
 Vib (Bot)    7  0.556810D+00         -0.254293         -0.585531
 Vib (Bot)    8  0.399758D+00         -0.398202         -0.916895
 Vib (Bot)    9  0.266032D+00         -0.575067         -1.324140
 Vib (Bot)   10  0.235993D+00         -0.627101         -1.443954
 Vib (V=0)       0.278992D+03          2.445592          5.631183
 Vib (V=0)    1  0.601772D+01          0.779432          1.794708
 Vib (V=0)    2  0.440863D+01          0.644304          1.483564
 Vib (V=0)    3  0.187231D+01          0.272377          0.627171
 Vib (V=0)    4  0.172519D+01          0.236838          0.545339
 Vib (V=0)    5  0.137345D+01          0.137812          0.317323
 Vib (V=0)    6  0.131412D+01          0.118635          0.273167
 Vib (V=0)    7  0.124836D+01          0.096339          0.221828
 Vib (V=0)    8  0.114016D+01          0.056966          0.131170
 Vib (V=0)    9  0.106637D+01          0.027907          0.064259
 Vib (V=0)   10  0.105289D+01          0.022385          0.051543
 Electronic      0.200000D+01          0.301030          0.693147
 Translational   0.484981D+08          7.685724         17.697035
 Rotational      0.396026D+06          5.597724         12.889236
 ***** Axes restored to original set *****
 -------------------------------------------------------------------
 Center     Atomic                   Forces (Hartrees/Bohr)
 Number     Number              X              Y              Z
 -------------------------------------------------------------------
      1        8          -0.014219220   -0.061877478    0.008230016
      2        1          -0.010074137    0.011765428   -0.003308982
      3        6           0.041355850    0.061077669   -0.004411201
      4        1          -0.002648227    0.000362925   -0.000399786
      5        6          -0.019786696   -0.011859858   -0.000853519
      6        6           0.033697733   -0.041254725    0.011479256
      7        8          -0.002839508    0.050818308   -0.008755679
      8        8          -0.006699376   -0.012930715    0.001153938
      9        6          -0.016861866    0.001380903   -0.003966819
     10        6          -0.000394787    0.000179142    0.000143388
     11        1          -0.000524502   -0.000480360   -0.000322351
     12        1          -0.000188644    0.001300618   -0.001116584
     13        1          -0.001282376    0.000794188    0.000240512
     14        1          -0.000039953   -0.000679674    0.001012127
     15        1           0.000505709    0.001403629    0.000875683
 -------------------------------------------------------------------
 Cartesian Forces:  Max     0.061877478 RMS     0.019155811

 GradGradGradGradGradGradGradGradGradGradGradGradGradGradGradGradGradGrad
 Berny optimization.
 Search for a local minimum.
 Step number   1 out of a maximum of    2
 All quantities printed in internal units (Hartrees-Bohrs-Radians)
 Second derivative matrix not updated -- analytic derivatives used.
 ITU=  0
     Eigenvalues ---   -0.15239  -0.00495  -0.00345   0.00046   0.00092
     Eigenvalues ---    0.00169   0.00784   0.01157   0.01430   0.02162
     Eigenvalues ---    0.03315   0.03523   0.04996   0.06468   0.06775
     Eigenvalues ---    0.07820   0.08834   0.10622   0.11475   0.12262
     Eigenvalues ---    0.13048   0.15006   0.17856   0.19632   0.20380
     Eigenvalues ---    0.26551   0.29356   0.43527   0.49532   0.63773
     Eigenvalues ---    0.72751   0.77749   0.80484   0.88267   0.95368
     Eigenvalues ---    0.97563   1.01462   1.78805   1.91010
 Eigenvalue     1 is  -1.52D-01 should be greater than     0.000000 Eigenvector:
                          Y3        Y1        X1        X3        Y5
   1                    0.69962  -0.48761  -0.31761   0.29130  -0.19681
                          X4        Y4        Z3        X6        Y2
   1                   -0.13239   0.09976  -0.07578   0.05512  -0.05461
 Eigenvalue     2 is  -4.95D-03 should be greater than     0.000000 Eigenvector:
                          Z2        Z1        Z7        Z15       Z4
   1                    0.79842  -0.31317   0.19380  -0.15944  -0.15443
                          Z13       Y14       Y2        X2        Y12
   1                   -0.14846   0.14327   0.13224  -0.12279  -0.12142
 Eigenvalue     3 is  -3.45D-03 should be greater than     0.000000 Eigenvector:
                          Z7        Z2        Z15       Y14       Z8
   1                    0.63457  -0.37585  -0.28065   0.22526  -0.21403
                          Y12       X14       Y15       Z12       X7
   1                   -0.17368   0.17111   0.16313  -0.16108  -0.13796
 Quadratic step=3.561D+00 exceeds max=3.000D-01 adjusted using Lamda=-1.744D-01.
 Angle between NR and scaled steps=  76.06 degrees.
 Angle between quadratic step and forces=  31.40 degrees.
 Linear search not attempted -- first point.
 B after Tr=     0.000007   -0.002281    0.000269
         Rot=    1.000000   -0.000031    0.000060    0.000211 Ang=  -0.03 deg.
 Variable       Old X    -DE/DX   Delta X   Delta X   Delta X     New X
                                 (Linear)    (Quad)   (Total)
    X1        6.10391  -0.01422   0.00000  -0.08383  -0.08336   6.02056
    Y1        1.33140  -0.06188   0.00000  -0.15902  -0.16387   1.16753
    Z1        0.24590   0.00823   0.00000   0.01430   0.01537   0.26127
    X2        4.73127  -0.01007   0.00000   0.00995   0.01103   4.74229
    Y2        2.48438   0.01177   0.00000   0.00779   0.00351   2.48789
    Z2       -0.12873  -0.00331   0.00000  -0.00001   0.00099  -0.12774
    X3        4.54541   0.04136   0.00000   0.10896   0.10833   4.65374
    Y3       -1.55835   0.06108   0.00000   0.19608   0.19180  -1.36655
    Z3        0.50885  -0.00441   0.00000  -0.01761  -0.01687   0.49198
    X4        6.03043  -0.00265   0.00000  -0.00985  -0.01117   6.01925
    Y4       -2.88752   0.00036   0.00000   0.00297  -0.00191  -2.88944
    Z4        0.92416  -0.00040   0.00000  -0.00192  -0.00111   0.92305
    X5        2.17218  -0.01979   0.00000   0.00065   0.00001   2.17219
    Y5       -1.43764  -0.01186   0.00000  -0.04141  -0.04462  -1.48225
    Z5        0.17066  -0.00085   0.00000   0.00681   0.00725   0.17791
    X6       -0.15353   0.03370   0.00000   0.04217   0.04219  -0.11133
    Y6       -0.06784  -0.04125   0.00000  -0.00978  -0.01199  -0.07983
    Z6       -0.36467   0.01148   0.00000   0.00749   0.00774  -0.35693
    X7       -0.20630  -0.00284   0.00000  -0.00888  -0.00785  -0.21415
    Y7        2.17550   0.05082   0.00000   0.03983   0.03768   2.21318
    Z7       -0.73691  -0.00876   0.00000  -0.00801  -0.00763  -0.74454
    X8       -2.13930  -0.00670   0.00000  -0.00130  -0.00192  -2.14123
    Y8       -1.60262  -0.01293   0.00000  -0.01339  -0.01474  -1.61736
    Z8       -0.39277   0.00115   0.00000   0.00139   0.00130  -0.39147
    X9       -4.56114  -0.01686   0.00000  -0.02675  -0.02683  -4.58796
    Y9       -0.44022   0.00138   0.00000   0.00206   0.00177  -0.43845
    Z9       -0.87863  -0.00397   0.00000  -0.00659  -0.00690  -0.88554
   X10       -5.59153  -0.00039   0.00000  -0.00632  -0.00614  -5.59768
   Y10        0.80878   0.00018   0.00000   0.00144   0.00143   0.81022
   Z10        1.48378   0.00014   0.00000   0.00166   0.00130   1.48509
   X11       -5.74631  -0.00052   0.00000  -0.01116  -0.01182  -5.75813
   Y11       -2.00341  -0.00048   0.00000  -0.00685  -0.00661  -2.01001
   Z11       -1.49587  -0.00032   0.00000  -0.00375  -0.00430  -1.50016
   X12       -4.34340  -0.00019   0.00000  -0.00532  -0.00464  -4.34804
   Y12        0.91109   0.00130   0.00000   0.00299   0.00270   0.91379
   Z12       -2.41916  -0.00112   0.00000  -0.00403  -0.00422  -2.42338
   X13       -7.48089  -0.00128   0.00000  -0.00727  -0.00674  -7.48763
   Y13        1.54465   0.00079   0.00000   0.00417   0.00499   1.54964
   Z13        1.10417   0.00024   0.00000   0.00549   0.00496   1.10913
   X14       -5.72031  -0.00004   0.00000  -0.00085  -0.00144  -5.72175
   Y14       -0.55714  -0.00068   0.00000  -0.00123  -0.00128  -0.55842
   Z14        3.02247   0.00101   0.00000   0.00269   0.00223   3.02470
   X15       -4.38915   0.00051   0.00000  -0.00041   0.00036  -4.38880
   Y15        2.37724   0.00140   0.00000   0.00168   0.00113   2.37836
   Z15        2.06506   0.00088   0.00000  -0.00000  -0.00011   2.06495
         Item               Value     Threshold  Converged?
 Maximum Force            0.061877     0.000450     NO 
 RMS     Force            0.019156     0.000300     NO 
 Maximum Displacement     0.191800     0.001800     NO 
 RMS     Displacement     0.044737     0.001200     NO 
 Predicted change in Energy=-3.686227D-02
 GradGradGradGradGradGradGradGradGradGradGradGradGradGradGradGradGradGrad


 ----------------------------------------------------------------------

 Electric dipole moment (input orientation):
 (Debye = 10**-18 statcoulomb cm , SI units = C m)
                  (au)            (Debye)         (10**-30 SI)
   Tot        0.151049D+01      0.383927D+01      0.128064D+02
   x         -0.136457D+01     -0.346840D+01     -0.115693D+02
   y         -0.647408D+00     -0.164555D+01     -0.548895D+01
   z          0.192234D-01      0.488609D-01      0.162982D+00

 Dipole polarizability, Alpha (input orientation).
 (esu units = cm**3 , SI units = C**2 m**2 J**-1)
 Alpha(0;0):
               (au)            (10**-24 esu)      (10**-40 SI)
   iso        0.708404D+02      0.104975D+02      0.116800D+02
   aniso      0.476663D+02      0.706342D+01      0.785911D+01
   xx         0.996225D+02      0.147625D+02      0.164255D+02
   yx         0.465659D+01      0.690036D+00      0.767768D+00
   yy         0.662136D+02      0.981184D+01      0.109171D+02
   zx         0.349564D+01      0.518000D+00      0.576353D+00
   zy        -0.260947D+01     -0.386684D+00     -0.430244D+00
   zz         0.466852D+02      0.691803D+01      0.769734D+01

 ----------------------------------------------------------------------

 Dipole orientation:
     8          0.89801339         -1.13848837         -6.08179763
     1         -0.14771592          0.16959337         -5.34069157
     6          1.93788291         -2.79545962         -3.43192369
     1          3.10954681         -4.27330686         -4.19851276
     6          1.12551204         -1.93421634         -1.34398842
     6         -0.33330745         -0.15313703          0.16313100
     8         -1.53754936          1.54390315         -0.75544437
     8         -0.15737313         -0.66231339          2.61454704
     6         -1.51087087          1.00695102          4.29803020
     6         -0.05423066          3.43589889          4.72362344
     1         -1.70087844         -0.08409453          6.03086173
     1         -3.37697268          1.36960662          3.50254182
     1         -1.04529454          4.59795296          6.11023708
     1          1.83307044          3.02648013          5.44499562
     1          0.10462569          4.50926466          2.97253900

 Electric dipole moment (dipole orientation):
 (Debye = 10**-18 statcoulomb cm , SI units = C m)
                  (au)            (Debye)         (10**-30 SI)
   Tot        0.151049D+01      0.383927D+01      0.128064D+02
   x          0.000000D+00      0.000000D+00      0.000000D+00
   y          0.000000D+00      0.000000D+00      0.000000D+00
   z          0.151049D+01      0.383927D+01      0.128064D+02

 Dipole polarizability, Alpha (dipole orientation).
 (esu units = cm**3 , SI units = C**2 m**2 J**-1)
 Alpha(0;0):
               (au)            (10**-24 esu)      (10**-40 SI)
   iso        0.708404D+02      0.104975D+02      0.116800D+02
   aniso      0.476663D+02      0.706342D+01      0.785911D+01
   xx         0.538723D+02      0.798305D+01      0.888234D+01
   yx        -0.110392D+02     -0.163584D+01     -0.182011D+01
   yy         0.616182D+02      0.913088D+01      0.101595D+02
   zx        -0.668369D+01     -0.990420D+00     -0.110199D+01
   zy         0.783418D+01      0.116091D+01      0.129168D+01
   zz         0.970307D+02      0.143785D+02      0.159982D+02

 ----------------------------------------------------------------------
 1\1\GINC-AJ\Freq\UM062X\6-31+G\C5H7O3(2)\AAYUSH\20-Jun-2025\0\\# freq 
 6-31+g m062x\\Title Card Required\\0,2\O,3.230052,0.704545,0.130124\H,
 2.503678,1.314675,-0.068119\C,2.405325,-0.824642,0.269271\H,3.191166,-
 1.528012,0.489042\C,1.149466,-0.760765,0.09031\C,-0.081242,-0.0359,-0.
 192975\O,-0.10917,1.151225,-0.389954\O,-1.132071,-0.84807,-0.207845\C,
 -2.413649,-0.232952,-0.464953\C,-2.958911,0.42799,0.785183\H,-3.040817
 ,-1.060158,-0.791578\H,-2.29843,0.48213,-1.280163\H,-3.958715,0.817395
 ,0.5843\H,-3.027059,-0.294828,1.599422\H,-2.32264,1.25798,1.092783\\Ve
 rsion=ES64L-G16RevA.03\State=2-A\HF=-419.9755065\S2=0.78046\S2-1=0.\S2
 A=0.750531\RMSD=4.105e-09\RMSF=1.916e-02\ZeroPoint=0.1135251\Thermal=0
 .1216387\Dipole=-1.364574,-0.647408,0.0192234\DipoleDeriv=-0.4033751,0
 .0338326,0.0210695,-0.3879859,-0.511976,-0.0507633,0.0850433,-0.002380
 9,-0.5447655,0.0825256,0.0367037,-0.0479921,0.1511032,0.2764249,0.0337
 65,-0.0666863,0.021169,0.3684315,0.3436591,-0.104951,0.056176,0.262976
 9,0.2768148,-0.0150309,0.0011393,-0.0568692,0.0244958,0.1680418,-0.011
 017,-0.0039559,-0.0375027,0.125815,0.0096466,0.0016501,0.0114089,0.206
 3087,-0.8110343,0.2175824,-0.1056973,0.1758192,-0.2709279,0.0460001,-0
 .1226736,0.0571331,-0.1317745,2.5153934,0.1420337,0.144407,0.2848673,1
 .3563552,-0.1773172,0.1906099,-0.129063,0.4903934,-0.874242,0.0508174,
 -0.042199,0.0500151,-0.9861918,0.1408802,-0.0481522,0.1154257,-0.40098
 32,-1.8709254,-0.255759,-0.0079623,-0.3568573,-0.632851,-0.007762,-0.0
 988473,-0.0312198,-0.3934131,0.9362185,-0.0321984,-0.0127158,-0.182930
 1,0.2770984,0.0156413,0.0778176,0.0630969,0.3342286,-0.1122414,-0.0027
 444,0.0131546,0.055037,-0.0004009,-0.0486516,0.0175764,-0.0966364,-0.0
 711871,-0.0344546,-0.0343081,-0.021613,-0.0692256,-0.0278275,-0.078836
 6,-0.0247009,-0.0461939,0.0629235,-0.0093522,-0.0270668,0.0678336,0.06
 4969,0.0328998,0.077685,0.0027381,0.038984,-0.0325613,-0.103622,0.0720
 823,-0.0207001,0.0835518,0.089372,0.0000824,-0.0381772,0.0222127,0.072
 0859,0.1142222,0.0150457,0.0008427,-0.0179407,-0.0123532,0.1060995,0.0
 346018,0.0545238,-0.0368445,0.0591863,-0.1000531,-0.0406478,-0.0758969
 ,0.0077484,-0.0514385,-0.0119391,-0.0215907,0.0526617\Polar=99.6224911
 ,4.6565922,66.2135788,3.4956362,-2.6094722,46.6851532\Quadrupole=-0.05
 89646,-0.5344318,0.5933964,-4.6201001,0.758696,-0.1295824\PG=C01 [X(C5
 H7O3)]\NImag=3\\0.36022290,-0.26111466,0.21253763,0.08923000,-0.067098
 77,0.04071213,-0.31042445,0.25254250,-0.08399186,0.30331732,0.21572051
 ,-0.21686755,0.06511179,-0.22964055,0.23661469,-0.07798030,0.07010685,
 -0.01861250,0.07927953,-0.07023606,0.01876328,-0.00336422,0.09639105,-
 0.01131850,0.00529638,0.02104280,-0.00261803,0.91186231,0.07501071,0.0
 5430552,-0.00462412,-0.01737155,-0.01401150,-0.00018339,-0.40102518,0.
 14378845,-0.00793869,-0.00187181,-0.03661283,0.00366338,0.00502510,-0.
 00107382,0.17375240,-0.06019102,0.13759921,0.00359251,-0.01591556,0.00
 251098,-0.00182459,-0.00322412,0.00004780,-0.21397597,0.17471557,-0.05
 250220,0.22926724,0.00599256,-0.02414010,0.00544029,-0.00384132,-0.003
 44676,0.00031760,0.18544422,-0.16680694,0.04627075,-0.16643380,0.18835
 476,-0.00102408,0.00255059,0.00367998,0.00015173,0.00040378,0.00168531
 ,-0.05427074,0.04481860,-0.04962106,0.05526796,-0.04977123,0.03498996,
 -0.05529424,-0.08233314,0.00433523,0.00166578,-0.00268962,0.00070550,-
 0.67717966,0.16979509,-0.11355246,-0.01746213,-0.02163920,0.00061621,1
 .01511805,-0.04038144,-0.03127978,0.00168394,-0.00038431,-0.00087152,0
 .00004835,0.12753648,-0.01131567,0.01311352,0.00828686,0.00425951,0.00
 105738,-0.20301584,0.16244281,-0.00240772,-0.00389997,0.01252050,0.000
 31187,-0.00027273,-0.00017309,-0.10687914,0.01869202,-0.05402938,-0.00
 422031,-0.00291746,0.00397473,0.16148139,-0.04416851,0.08804535,0.0098
 2656,0.01666880,-0.00100800,0.00012660,-0.00426392,0.00061911,-0.02665
 295,-0.00445155,-0.00318439,0.00096950,0.00129779,-0.00114552,-0.19557
 921,0.08213115,-0.02902570,0.64026209,0.00255778,-0.00382419,0.0005444
 1,-0.00728017,-0.00023392,-0.00087043,-0.01755332,0.00480093,-0.002740
 98,0.00133469,0.00090524,0.00132593,0.09436450,-0.08079907,0.01282282,
 0.00019863,1.02351975,0.00121505,0.00234890,-0.00296924,0.00114915,-0.
 00041336,0.00078508,-0.00095921,-0.00084484,0.00243522,-0.00116960,0.0
 0131347,0.00769746,-0.03098736,0.01125722,-0.08489844,0.06232526,-0.13
 664653,0.21730984,-0.00294374,-0.00387237,0.00002976,0.00131345,0.0017
 6528,0.00012498,0.00647421,0.00137430,0.00066301,-0.00069037,-0.000547
 30,0.00021443,-0.00786247,0.04152006,-0.01112341,-0.08802919,0.0465984
 3,-0.01216841,0.08753903,0.00310463,0.00922738,-0.00087155,0.00427186,
 -0.00151396,0.00057120,-0.01598652,-0.00954427,-0.00054228,0.00109489,
 0.00101774,-0.00027926,0.04368372,-0.04959467,0.01769873,0.02130830,-0
 .78013725,0.12054650,-0.01590214,0.91153927,-0.00106219,-0.00177381,0.
 00158108,-0.00030052,0.00019896,-0.00174313,0.00343204,0.00175609,0.00
 017426,-0.00005871,-0.00049715,-0.00151839,-0.01151831,0.01755857,0.01
 920058,-0.00748053,0.12538463,-0.07993248,0.01336986,-0.14858133,0.038
 04858,-0.00219109,-0.00301905,0.00019767,0.00084393,0.00166401,-0.0001
 7809,-0.00150172,0.00236062,-0.00079254,0.00013890,-0.00036964,0.00019
 334,-0.06464278,-0.01283401,-0.00854099,-0.27642528,-0.13490661,-0.005
 44408,0.00160138,-0.05018121,0.00245958,0.59693268,-0.00089403,0.00013
 028,-0.00017270,0.00158437,0.00014877,0.00024519,0.00490178,-0.0018115
 7,0.00109632,0.00017950,-0.00012569,-0.00005034,0.00568308,0.00838391,
 0.00148495,-0.08987743,-0.17567745,0.00758410,-0.06517611,-0.07916392,
 0.00807917,0.08357688,0.36437920,-0.00015004,-0.00045213,-0.00013010,-
 0.00016737,0.00024610,0.00023669,-0.00097571,0.00066743,0.00116571,0.0
 0007052,-0.00011705,-0.00050214,-0.01084805,-0.00116931,0.00887778,-0.
 01489741,0.00060383,-0.06150718,0.00612425,0.01063009,0.02887483,0.054
 09350,-0.03578648,0.08741061,0.00088050,0.00121182,0.00000062,-0.00034
 393,-0.00060053,-0.00000704,-0.00092703,-0.00113189,0.00004893,-0.0000
 4108,0.00017197,-0.00005361,0.00367639,-0.00199219,0.00092251,-0.06940
 097,-0.00465746,-0.01101317,0.00425610,0.01529669,-0.00163860,-0.17149
 854,0.03130179,-0.02316231,0.51727316,-0.00012450,-0.00021202,0.000019
 27,0.00014052,0.00021304,-0.00004619,-0.00077118,0.00080316,-0.0001888
 0,-0.00004305,-0.00003372,-0.00004544,-0.00520576,-0.00175047,0.000217
 12,-0.02084730,0.01954802,-0.00641259,-0.00300415,-0.00634409,-0.00018
 100,0.06584463,-0.10887922,0.02041279,0.09808442,0.60333404,0.00017750
 ,0.00020506,-0.00018554,-0.00009433,-0.00008695,0.00017275,-0.00018065
 ,-0.00022581,-0.00007123,0.00003731,-0.00002502,-0.00040721,-0.0001255
 8,0.00085530,0.00705543,-0.00944203,-0.00780521,0.00115778,-0.00045785
 ,0.00345593,-0.00577355,-0.02744150,0.01709693,-0.07038776,0.01084875,
 -0.02367916,0.56539296,-0.00018393,-0.00032469,0.00001492,0.00003705,0
 .00014294,-0.00001648,0.00013490,0.00032732,-0.00002890,-0.00000059,-0
 .00003030,0.00012359,-0.00075287,-0.00034729,-0.00163936,0.00360856,0.
 00701783,0.00190627,-0.00018835,-0.00247623,0.00108496,-0.03388322,0.0
 2313187,0.02935597,-0.08918302,0.00730351,0.02694703,0.58673390,0.0000
 9767,0.00007286,-0.00004110,-0.00005875,-0.00003916,0.00006406,-0.0000
 3848,-0.00005393,0.00001930,0.00001035,0.00001219,-0.00004573,0.000521
 27,0.00004755,0.00076067,-0.00208142,0.00022344,0.00024558,0.00143242,
 0.00030488,-0.00162652,0.01708125,-0.00803592,-0.01176968,0.01022982,-
 0.10861659,-0.04445837,0.01862004,0.58403581,-0.00007549,-0.00013341,0
 .00001146,0.00000941,0.00004796,-0.00002751,-0.00004429,0.00015702,-0.
 00001406,0.00000973,-0.00001101,0.00005559,0.00002178,-0.00022549,-0.0
 0066897,0.00185944,0.00491170,0.00035876,0.00094102,-0.00220500,-0.000
 30115,-0.00610843,0.00107840,0.00989470,0.03876864,-0.04885485,-0.1858
 2702,0.03252722,-0.03462406,0.53731561,-0.00011254,-0.00016321,0.00001
 048,0.00002705,0.00008269,-0.00000782,-0.00016639,0.00026827,-0.000036
 60,-0.00000586,-0.00003838,-0.00002253,-0.00142336,-0.00038408,0.00014
 369,-0.00177717,0.00509616,-0.00308283,0.00070954,-0.00090238,0.000364
 57,-0.03722991,-0.02157816,-0.00990649,-0.13356431,-0.11932457,-0.0447
 1109,0.00992310,0.01108026,0.00543603,0.16342192,-0.00003037,-0.000013
 56,0.00001664,0.00002353,0.00000127,-0.00001928,0.00014256,-0.00013185
 ,0.00002814,-0.00000481,-0.00000035,0.00002701,0.00046181,0.00048239,-
 0.00041222,0.00349572,-0.00312233,0.00158793,-0.00150341,0.00154092,-0
 .00063724,0.01959778,0.01168379,0.00690053,-0.13337643,-0.22147481,-0.
 06285604,-0.00729729,-0.00985821,-0.00343662,0.12877594,0.23394241,0.0
 0000857,0.00000147,0.00000155,-0.00001082,-0.00000574,-0.00000274,-0.0
 0007315,0.00002889,-0.00001307,-0.00000582,-0.00001162,-0.00001551,-0.
 00038606,-0.00001381,0.00018637,0.00055060,0.00305024,-0.00060619,0.00
 137656,-0.00081220,0.00074898,-0.00842314,-0.00498832,-0.00100648,-0.0
 4536245,-0.05903933,-0.07705569,-0.01547150,-0.02481263,-0.00987200,0.
 05073685,0.06856561,0.08074951,-0.00004796,-0.00011517,0.00001061,-0.0
 0002388,0.00002289,-0.00000305,0.00004088,0.00016398,-0.00006968,0.000
 04446,-0.00001414,-0.00006576,-0.00027958,-0.00013218,0.00110800,0.003
 38408,0.00707872,-0.00206219,-0.00076129,-0.00333625,0.00011711,-0.015
 09198,0.02847832,-0.03011432,-0.05531383,-0.03071702,0.03093435,0.0003
 4526,-0.00875397,0.01016399,-0.00000465,-0.01205286,0.01508082,0.06766
 020,0.00011549,0.00013332,-0.00003006,-0.00002669,-0.00003610,0.000036
 20,-0.00013223,-0.00009881,-0.00003536,0.00000223,0.00001916,-0.000003
 28,0.00043521,-0.00014249,0.00036317,-0.00385808,-0.00136019,-0.000061
 15,-0.00109847,0.00073103,-0.00115696,0.00982456,-0.01202932,0.0111289
 2,-0.02153073,-0.16997340,0.13462293,0.00174151,0.01151800,-0.01518449
 ,-0.00330010,-0.01432216,0.01904259,0.01727946,0.18563518,0.00002598,0
 .00002390,0.00000217,-0.00002158,-0.00001071,-0.00000877,-0.00001395,-
 0.00000937,0.00003988,0.00000191,0.00001073,-0.00000273,0.00004033,-0.
 00031450,-0.00016010,0.00126173,0.00421001,0.00035645,0.00180541,-0.00
 207357,0.00062421,-0.00505218,0.00486785,-0.00302400,0.02193786,0.1321
 6258,-0.20358936,0.00530852,0.01788683,-0.02152670,-0.00076773,-0.0079
 0163,0.00896458,-0.02600859,-0.14662462,0.21988351,-0.00008707,-0.0001
 2986,0.00002568,0.00003181,0.00005988,-0.00002349,0.00009887,0.0001076
 6,-0.00000977,0.00000747,-0.00002177,0.00001275,-0.00032330,0.00005602
 ,-0.00028573,0.00192976,0.00058242,-0.00023101,-0.00039949,-0.00025704
 ,0.00051858,-0.00066983,0.00046175,0.00287972,-0.01142225,0.00304588,-
 0.00553225,-0.27958767,0.09020178,-0.04659183,0.00039211,0.00021731,0.
 00006974,0.00004327,-0.00036380,0.00037614,0.30468519,0.00004052,0.000
 05688,0.00000225,-0.00000343,-0.00001705,-0.00000819,-0.00003585,-0.00
 004553,0.00001185,-0.00000446,0.00000731,-0.00000631,0.00018970,0.0000
 2317,0.00004378,-0.00115666,-0.00218174,-0.00026673,-0.00030172,0.0009
 6225,0.00034889,0.00343810,-0.00048906,-0.00328878,0.01328244,-0.00546
 155,0.00513603,0.08913986,-0.08227843,0.01718799,-0.00049246,-0.000194
 62,0.00039002,-0.00015271,0.00043377,0.00015557,-0.10051010,0.08692916
 ,0.00003217,0.00006599,0.00001036,-0.00000160,-0.00002105,-0.00001073,
 0.00003682,-0.00008866,0.00000555,0.00000793,0.00000314,-0.00003592,0.
 00020332,0.00014916,0.00044957,-0.00101901,-0.00243520,-0.00055217,-0.
 00013047,0.00105323,-0.00015152,0.00600703,-0.00324310,-0.00478288,0.0
 2640417,-0.00955135,0.00660152,-0.04894246,0.01866053,-0.05919478,-0.0
 0077163,0.00004642,0.00116060,-0.00036220,0.00116168,0.00061000,0.0511
 1587,-0.01836731,0.06182672,0.00004283,0.00005735,-0.00002922,-0.00000
 728,-0.00002889,0.00002405,-0.00005160,-0.00004859,0.00000229,-0.00001
 249,0.00001098,0.00001161,0.00007921,0.00002778,-0.00001843,-0.0011017
 4,-0.00146844,0.00043578,-0.00030242,0.00086830,0.00006773,0.00191217,
 -0.00084823,-0.00106010,-0.00210882,-0.00742595,0.01228588,-0.05047029
 ,-0.01229646,0.01047792,0.00013341,0.00007301,-0.00090365,-0.00022037,
 0.00125258,0.00203217,0.00262699,0.02135001,-0.02427946,0.05016473,-0.
 00003871,-0.00005590,-0.00002428,0.00001433,0.00001182,0.00001852,0.00
 003311,0.00004931,-0.00000017,-0.00000352,-0.00000402,0.00001588,-0.00
 014151,0.00007967,-0.00016899,0.00054877,-0.00010601,0.00034959,-0.000
 47783,0.00020247,0.00026579,-0.00245622,0.00080540,0.00069610,0.003249
 21,0.01077733,-0.01640675,-0.01233840,-0.17533715,0.13882387,-0.000412
 90,0.00100088,0.00066269,0.00177601,-0.00108040,-0.00300313,-0.0022413
 6,-0.00798907,0.00818140,0.01190101,0.18747056,0.00000731,0.00001027,0
 .00001440,-0.00000404,-0.00000749,-0.00001461,0.00002355,-0.00001400,0
 .00000153,0.00000394,0.00000743,-0.00000337,0.00010709,-0.00003272,-0.
 00005575,0.00014019,0.00047046,-0.00014396,-0.00003847,-0.00034431,0.0
 0014725,-0.00158113,0.00026958,0.00307903,0.00215449,0.02089551,-0.025
 91016,0.01227033,0.13528687,-0.19959408,-0.00041923,0.00004693,0.00095
 675,0.00182506,-0.00361396,-0.00317523,0.00113837,0.00338448,-0.003988
 59,-0.01494979,-0.14895600,0.22091727,0.00008394,0.00011617,-0.0000183
 7,-0.00003524,-0.00005337,0.00003335,-0.00008803,-0.00009477,-0.000014
 77,-0.00000699,0.00001834,-0.00000937,0.00026017,-0.00008702,0.0001733
 2,-0.00114064,0.00103682,0.00008636,-0.00071640,-0.00058662,0.00064442
 ,0.00170529,-0.00092538,-0.00124215,0.00771765,0.01304452,0.00675445,-
 0.14653283,-0.12604577,-0.04739514,-0.00032293,0.00147751,0.00281343,0
 .00022539,-0.00034093,-0.00092604,-0.01732588,-0.02478324,-0.00830048,
 -0.00068432,0.00058800,-0.00067766,0.15686081,-0.00005616,-0.00007079,
 0.00004398,0.00002965,0.00004795,-0.00004442,0.00005076,0.00007270,0.0
 0000544,0.00000522,-0.00001833,0.00000241,-0.00010931,0.00003466,-0.00
 024336,0.00088719,-0.00155524,-0.00058809,-0.00080700,0.00077223,0.000
 86189,0.00037889,0.00068079,0.00129766,-0.00953892,-0.01192972,-0.0058
 2886,-0.12461068,-0.21199536,-0.05753202,0.00129291,0.00046623,-0.0020
 5786,0.00047492,0.00057241,0.00062006,0.00879124,0.01024450,0.00438512
 ,-0.01342445,-0.01582489,-0.00740307,0.13663574,0.22850285,-0.00005807
 ,-0.00008311,-0.00002343,0.00002705,0.00002041,0.00002380,0.00008856,0
 .00006116,0.00001411,-0.00000143,-0.00001286,0.00002329,-0.00009303,0.
 00020091,-0.00032458,0.00044628,-0.00282568,0.00050905,-0.00073067,0.0
 0175383,0.00002047,0.00061096,0.00243846,0.00180121,-0.01984879,-0.025
 70856,-0.01117292,-0.04344013,-0.05554576,-0.07060984,0.00303431,-0.00
 195620,-0.00419665,-0.00055414,0.00035439,0.00100607,-0.00346276,-0.00
 472355,-0.00194772,0.01590322,0.01954547,0.00776953,0.04807864,0.06648
 110,0.07710760\\0.01421922,0.06187748,-0.00823002,0.01007414,-0.011765
 43,0.00330898,-0.04135585,-0.06107767,0.00441120,0.00264823,-0.0003629
 3,0.00039979,0.01978670,0.01185986,0.00085352,-0.03369773,0.04125473,-
 0.01147926,0.00283951,-0.05081831,0.00875568,0.00669938,0.01293071,-0.
 00115394,0.01686187,-0.00138090,0.00396682,0.00039479,-0.00017914,-0.0
 0014339,0.00052450,0.00048036,0.00032235,0.00018864,-0.00130062,0.0011
 1658,0.00128238,-0.00079419,-0.00024051,0.00003995,0.00067967,-0.00101
 213,-0.00050571,-0.00140363,-0.00087568\\\@


 "TIGER, TIGER BURNING BRIGHT
 IN THE FOREST OF THE NIGHT.
 WHAT IMMORTAL HAND OR EYE
 CAN FRAME THY FEARFUL SYMMETRYE?"
                     - WILLIAM BLAKE
 Job cpu time:       0 days  0 hours 18 minutes  3.5 seconds.
 Elapsed time:       0 days  0 hours  0 minutes 45.2 seconds.
 File lengths (MBytes):  RWF=     59 Int=      0 D2E=      0 Chk=      8 Scr=      1
 Normal termination of Gaussian 16 at Fri Jun 20 13:18:29 2025.
