 Entering Gaussian System, Link 0=g16
 Initial command:
 /opt/g16/l1.exe "/home/aayush/scratches/g16/Gau-51775.inp" -scrdir="/home/aayush/scratches/g16/"
 Entering Link 1 = /opt/g16/l1.exe PID=     51778.
  
 Copyright (c) 1988,1990,1992,1993,1995,1998,2003,2009,2016,
            Gaussian, Inc.  All Rights Reserved.
  
 This is part of the Gaussian(R) 16 program.  It is based on
 the Gaussian(R) 09 system (copyright 2009, Gaussian, Inc.),
 the Gaussian(R) 03 system (copyright 2003, Gaussian, Inc.),
 the Gaussian(R) 98 system (copyright 1998, Gaussian, Inc.),
 the Gaussian(R) 94 system (copyright 1995, Gaussian, Inc.),
 the Gaussian 92(TM) system (copyright 1992, Gaussian, Inc.),
 the Gaussian 90(TM) system (copyright 1990, Gaussian, Inc.),
 the Gaussian 88(TM) system (copyright 1988, Gaussian, Inc.),
 the Gaussian 86(TM) system (copyright 1986, Carnegie Mellon
 University), and the Gaussian 82(TM) system (copyright 1983,
 Carnegie Mellon University). Gaussian is a federally registered
 trademark of Gaussian, Inc.
  
 This software contains proprietary and confidential information,
 including trade secrets, belonging to Gaussian, Inc.
  
 This software is provided under written license and may be
 used, copied, transmitted, or stored only in accord with that
 written license.
  
 The following legend is applicable only to US Government
 contracts under FAR:
  
                    RESTRICTED RIGHTS LEGEND
  
 Use, reproduction and disclosure by the US Government is
 subject to restrictions as set forth in subparagraphs (a)
 and (c) of the Commercial Computer Software - Restricted
 Rights clause in FAR 52.227-19.
  
 Gaussian, Inc.
 340 Quinnipiac St., Bldg. 40, Wallingford CT 06492
  
  
 ---------------------------------------------------------------
 Warning -- This program may not be used in any manner that
 competes with the business of Gaussian, Inc. or will provide
 assistance to any competitor of Gaussian, Inc.  The licensee
 of this program is prohibited from giving any competitor of
 Gaussian, Inc. access to this program.  By using this program,
 the user acknowledges that Gaussian, Inc. is engaged in the
 business of creating and licensing software in the field of
 computational chemistry and represents and warrants to the
 licensee that it is not a competitor of Gaussian, Inc. and that
 it will not use this program in any manner prohibited above.
 ---------------------------------------------------------------
  

 Cite this work as:
 Gaussian 16, Revision A.03,
 M. J. Frisch, G. W. Trucks, H. B. Schlegel, G. E. Scuseria, 
 M. A. Robb, J. R. Cheeseman, G. Scalmani, V. Barone, 
 G. A. Petersson, H. Nakatsuji, X. Li, M. Caricato, A. V. Marenich, 
 J. Bloino, B. G. Janesko, R. Gomperts, B. Mennucci, H. P. Hratchian, 
 J. V. Ortiz, A. F. Izmaylov, J. L. Sonnenberg, D. Williams-Young, 
 F. Ding, F. Lipparini, F. Egidi, J. Goings, B. Peng, A. Petrone, 
 T. Henderson, D. Ranasinghe, V. G. Zakrzewski, J. Gao, N. Rega, 
 G. Zheng, W. Liang, M. Hada, M. Ehara, K. Toyota, R. Fukuda, 
 J. Hasegawa, M. Ishida, T. Nakajima, Y. Honda, O. Kitao, H. Nakai, 
 T. Vreven, K. Throssell, J. A. Montgomery, Jr., J. E. Peralta, 
 F. Ogliaro, M. J. Bearpark, J. J. Heyd, E. N. Brothers, K. N. Kudin, 
 V. N. Staroverov, T. A. Keith, R. Kobayashi, J. Normand, 
 K. Raghavachari, A. P. Rendell, J. C. Burant, S. S. Iyengar, 
 J. Tomasi, M. Cossi, J. M. Millam, M. Klene, C. Adamo, R. Cammi, 
 J. W. Ochterski, R. L. Martin, K. Morokuma, O. Farkas, 
 J. B. Foresman, and D. J. Fox, Gaussian, Inc., Wallingford CT, 2016.
 
 ******************************************
 Gaussian 16:  ES64L-G16RevA.03 25-Dec-2016
                16-Aug-2025 
 ******************************************
 %chk=ethyl_propiolate.chk
 %nprocshared=24
 Will use up to   24 processors via shared memory.
 %mem=12GB
 --------------------------
 # freq 6-311++g(d,p) m062x
 --------------------------
 1/10=4,30=1,38=1/1,3;
 2/12=2,17=6,18=5,40=1/2;
 3/5=4,6=6,7=1111,11=2,25=1,30=1,71=2,74=-55,140=1/1,2,3;
 4//1;
 5/5=2,38=5,98=1/2;
 8/6=4,10=90,11=11/1;
 11/6=1,8=1,9=11,15=111,16=1/1,2,10;
 10/6=1/2;
 6/7=2,8=2,9=2,10=2,28=1/1;
 7/8=1,10=1,25=1/1,2,3,16;
 1/10=4,30=1/3;
 99//99;
 -------------------
 Title Card Required
 -------------------
 Symbolic Z-matrix:
 Charge =  0 Multiplicity = 2
 O                     3.25117   0.74994   0.12554 
 H                     2.50912   1.34372  -0.07222 
 C                     2.37097  -0.90085   0.27709 
 H                     3.22449  -1.51296   0.49113 
 C                     1.15489  -0.74679   0.08878 
 C                    -0.08323  -0.03623  -0.19317 
 O                    -0.10975   1.15049  -0.38992 
 O                    -1.13188  -0.84849  -0.20774 
 C                    -2.4137   -0.233    -0.46494 
 C                    -2.95886   0.42796   0.78518 
 H                    -3.04062  -1.06033  -0.79152 
 H                    -2.29811   0.48192  -1.28017 
 H                    -3.95864   0.81729   0.58411 
 H                    -3.0271   -0.29482   1.59942 
 H                    -2.3227    1.25802   1.0928 
 

 GradGradGradGradGradGradGradGradGradGradGradGradGradGradGradGradGradGrad
 Berny optimization.
 Initialization pass.
 Trust Radius=3.00D-01 FncErr=1.00D-07 GrdErr=1.00D-07 EigMax=2.50D+02 EigMin=1.00D-04
 Number of steps in this run=      2 maximum allowed number of steps=      2.
 GradGradGradGradGradGradGradGradGradGradGradGradGradGradGradGradGradGrad

                          Input orientation:                          
 ---------------------------------------------------------------------
 Center     Atomic      Atomic             Coordinates (Angstroms)
 Number     Number       Type             X           Y           Z
 ---------------------------------------------------------------------
      1          8           0        3.251166    0.749942    0.125543
      2          1           0        2.509122    1.343715   -0.072222
      3          6           0        2.370972   -0.900846    0.277087
      4          1           0        3.224494   -1.512956    0.491126
      5          6           0        1.154886   -0.746786    0.088778
      6          6           0       -0.083228   -0.036225   -0.193169
      7          8           0       -0.109746    1.150488   -0.389917
      8          8           0       -1.131880   -0.848489   -0.207738
      9          6           0       -2.413700   -0.232996   -0.464944
     10          6           0       -2.958860    0.427962    0.785178
     11          1           0       -3.040619   -1.060332   -0.791522
     12          1           0       -2.298107    0.481921   -1.280174
     13          1           0       -3.958637    0.817290    0.584108
     14          1           0       -3.027096   -0.294815    1.599423
     15          1           0       -2.322699    1.258016    1.092798
 ---------------------------------------------------------------------
                    Distance matrix (angstroms):
                    1          2          3          4          5
     1  O    0.000000
     2  H    0.970725   0.000000
     3  C    1.876915   2.275776   0.000000
     4  H    2.292394   2.998281   1.071910   0.000000
     5  C    2.576031   2.496011   1.240185   2.243252   0.000000
     6  C    3.440613   2.939242   2.644203   3.686464   1.455100
     7  O    3.423721   2.645134   3.287374   4.357445   2.329827
     8  O    4.677302   4.252178   3.536632   4.461829   2.308152
     9  C    5.779753   5.184055   4.887711   5.860171   3.647656
    10  C    6.253256   5.610041   5.516430   6.487488   4.334503
    11  H    6.610950   6.090686   5.518395   6.411060   4.298314
    12  H    5.730821   5.031032   5.112475   6.133201   3.912405
    13  H    7.224685   6.522254   6.565836   7.552222   5.370270
    14  H    6.533025   6.010731   5.590616   6.464872   4.469374
    15  H    5.679938   4.971027   5.230355   6.229899   4.137739
                    6          7          8          9         10
     6  C    0.000000
     7  O    1.203204   0.000000
     8  O    1.326520   2.252522   0.000000
     9  C    2.354502   2.688468   1.445008   0.000000
    10  C    3.072766   3.165492   2.439890   1.515543   0.000000
    11  H    3.186375   3.693105   2.007228   1.088194   2.169720
    12  H    2.521060   2.455293   2.068863   1.090444   2.169144
    13  H    4.043692   3.984182   3.375262   2.142531   1.091586
    14  H    3.456387   3.815404   2.676608   2.154458   1.090898
    15  H    2.888598   2.665927   2.747145   2.158230   1.090101
                   11         12         13         14         15
    11  H    0.000000
    12  H    1.780070   0.000000
    13  H    2.502115   2.519004   0.000000
    14  H    2.510541   3.070313   1.770709   0.000000
    15  H    3.072590   2.496783   1.768982   1.778800   0.000000
 Stoichiometry    C5H7O3(2)
 Framework group  C1[X(C5H7O3)]
 Deg. of freedom    39
 Full point group                 C1      NOp   1
 Largest Abelian subgroup         C1      NOp   1
 Largest concise Abelian subgroup C1      NOp   1
                         Standard orientation:                         
 ---------------------------------------------------------------------
 Center     Atomic      Atomic             Coordinates (Angstroms)
 Number     Number       Type             X           Y           Z
 ---------------------------------------------------------------------
      1          8           0        3.321678    0.750685    0.107276
      2          1           0        2.578072    1.341371   -0.093837
      3          6           0        2.445759   -0.901434    0.268756
      4          1           0        3.300893   -1.510075    0.486228
      5          6           0        1.229244   -0.751614    0.079796
      6          6           0       -0.010747   -0.045914   -0.206083
      7          8           0       -0.040353    1.139544   -0.409833
      8          8           0       -1.057311   -0.860941   -0.215632
      9          6           0       -2.340759   -0.250273   -0.476200
     10          6           0       -2.887371    0.416657    0.770110
     11          1           0       -2.965613   -1.081132   -0.797752
     12          1           0       -2.227162    0.460109   -1.295664
     13          1           0       -3.888185    0.802221    0.566954
     14          1           0       -2.953590   -0.301469    1.588625
     15          1           0       -2.253285    1.250146    1.072686
 ---------------------------------------------------------------------
 Rotational constants (GHZ):           5.5983349           0.9504896           0.8727770
 Standard basis: 6-311++G(d,p) (5D, 7F)
 There are   233 symmetry adapted cartesian basis functions of A   symmetry.
 There are   225 symmetry adapted basis functions of A   symmetry.
   225 basis functions,   351 primitive gaussians,   233 cartesian basis functions
    31 alpha electrons       30 beta electrons
       nuclear repulsion energy       350.7442104666 Hartrees.
 NAtoms=   15 NActive=   15 NUniq=   15 SFac= 1.00D+00 NAtFMM=   60 NAOKFM=F Big=F
 Integral buffers will be    131072 words long.
 Raffenetti 2 integral format.
 Two-electron integral symmetry is turned on.
 One-electron integrals computed using PRISM.
 NBasis=   225 RedAO= T EigKep=  4.01D-06  NBF=   225
 NBsUse=   225 1.00D-06 EigRej= -1.00D+00 NBFU=   225
 ExpMin= 3.60D-02 ExpMax= 8.59D+03 ExpMxC= 1.30D+03 IAcc=3 IRadAn=         5 AccDes= 0.00D+00
 Harris functional with IExCor= 1009 and IRadAn=       5 diagonalized for initial guess.
 HarFok:  IExCor= 1009 AccDes= 0.00D+00 IRadAn=         5 IDoV= 1 UseB2=F ITyADJ=14
 ICtDFT=  3500011 ScaDFX=  1.000000  1.000000  1.000000  1.000000
 FoFCou: FMM=F IPFlag=           0 FMFlag=      100000 FMFlg1=           0
         NFxFlg=           0 DoJE=T BraDBF=F KetDBF=T FulRan=T
         wScrn=  0.000000 ICntrl=       500 IOpCl=  0 I1Cent=   200000004 NGrid=           0
         NMat0=    1 NMatS0=      1 NMatT0=    0 NMatD0=    1 NMtDS0=    0 NMtDT0=    0
 Petite list used in FoFCou.
 Initial guess <Sx>= 0.0000 <Sy>= 0.0000 <Sz>= 0.5000 <S**2>= 0.7500 S= 0.5000
 Requested convergence on RMS density matrix=1.00D-08 within 128 cycles.
 Requested convergence on MAX density matrix=1.00D-06.
 Requested convergence on             energy=1.00D-06.
 No special actions if energy rises.
 SCF Done:  E(UM062X) =  -420.209876246     A.U. after   20 cycles
            NFock= 20  Conv=0.35D-08     -V/T= 2.0036
 <Sx>= 0.0000 <Sy>= 0.0000 <Sz>= 0.5000 <S**2>= 0.7889 S= 0.5193
 <L.S>=  0.00000000000    
 Annihilation of the first spin contaminant:
 S**2 before annihilation     0.7889,   after     0.7506
 DoSCS=F DFT=T ScalE2(SS,OS)=  1.000000  1.000000
 Range of M.O.s used for correlation:     1   225
 NBasis=   225 NAE=    31 NBE=    30 NFC=     0 NFV=     0
 NROrb=    225 NOA=    31 NOB=    30 NVA=   194 NVB=   195

 **** Warning!!: The largest alpha MO coefficient is  0.14189806D+03


 **** Warning!!: The largest beta MO coefficient is  0.13925270D+03

 Symmetrizing basis deriv contribution to polar:
 IMax=3 JMax=2 DiffMx= 0.00D+00
 G2DrvN: will do    16 centers at a time, making    1 passes.
 Calling FoFCou, ICntrl=  3107 FMM=F I1Cent=   0 AccDes= 0.00D+00.
 End of G2Drv F.D. properties file   721 does not exist.
 End of G2Drv F.D. properties file   722 does not exist.
 End of G2Drv F.D. properties file   788 does not exist.
          IDoAtm=111111111111111
          Differentiating once with respect to electric field.
                with respect to dipole field.
          Differentiating once with respect to nuclear coordinates.
 Keep R1 and R2 ints in memory in canonical form, NReq=671901991.
          There are    48 degrees of freedom in the 1st order CPHF.  IDoFFX=6 NUNeed=     3.
     45 vectors produced by pass  0 Test12= 2.47D-14 2.08D-09 XBig12= 1.17D+02 3.58D+00.
 AX will form    45 AO Fock derivatives at one time.
     45 vectors produced by pass  1 Test12= 2.47D-14 2.08D-09 XBig12= 2.75D+01 1.07D+00.
     45 vectors produced by pass  2 Test12= 2.47D-14 2.08D-09 XBig12= 1.38D+00 1.85D-01.
     45 vectors produced by pass  3 Test12= 2.47D-14 2.08D-09 XBig12= 2.06D-02 2.22D-02.
     45 vectors produced by pass  4 Test12= 2.47D-14 2.08D-09 XBig12= 2.77D-04 1.36D-03.
     45 vectors produced by pass  5 Test12= 2.47D-14 2.08D-09 XBig12= 3.16D-06 1.68D-04.
     39 vectors produced by pass  6 Test12= 2.47D-14 2.08D-09 XBig12= 2.40D-08 1.49D-05.
     24 vectors produced by pass  7 Test12= 2.47D-14 2.08D-09 XBig12= 2.00D-10 1.26D-06.
      4 vectors produced by pass  8 Test12= 2.47D-14 2.08D-09 XBig12= 2.02D-12 1.50D-07.
      3 vectors produced by pass  9 Test12= 2.47D-14 2.08D-09 XBig12= 2.61D-14 2.27D-08.
      1 vectors produced by pass 10 Test12= 2.47D-14 2.08D-09 XBig12= 5.10D-16 2.75D-09.
 InvSVY:  IOpt=1 It=  1 EMax= 1.78D-14
 Solved reduced A of dimension   341 with    48 vectors.
 Isotropic polarizability for W=    0.000000       76.19 Bohr**3.
 End of Minotr F.D. properties file   721 does not exist.
 End of Minotr F.D. properties file   722 does not exist.
 End of Minotr F.D. properties file   788 does not exist.

 **********************************************************************

            Population analysis using the SCF density.

 **********************************************************************

 Orbital symmetries:
 Alpha Orbitals:
       Occupied  (A) (A) (A) (A) (A) (A) (A) (A) (A) (A) (A) (A)
                 (A) (A) (A) (A) (A) (A) (A) (A) (A) (A) (A) (A)
                 (A) (A) (A) (A) (A) (A) (A)
       Virtual   (A) (A) (A) (A) (A) (A) (A) (A) (A) (A) (A) (A)
                 (A) (A) (A) (A) (A) (A) (A) (A) (A) (A) (A) (A)
                 (A) (A) (A) (A) (A) (A) (A) (A) (A) (A) (A) (A)
                 (A) (A) (A) (A) (A) (A) (A) (A) (A) (A) (A) (A)
                 (A) (A) (A) (A) (A) (A) (A) (A) (A) (A) (A) (A)
                 (A) (A) (A) (A) (A) (A) (A) (A) (A) (A) (A) (A)
                 (A) (A) (A) (A) (A) (A) (A) (A) (A) (A) (A) (A)
                 (A) (A) (A) (A) (A) (A) (A) (A) (A) (A) (A) (A)
                 (A) (A) (A) (A) (A) (A) (A) (A) (A) (A) (A) (A)
                 (A) (A) (A) (A) (A) (A) (A) (A) (A) (A) (A) (A)
                 (A) (A) (A) (A) (A) (A) (A) (A) (A) (A) (A) (A)
                 (A) (A) (A) (A) (A) (A) (A) (A) (A) (A) (A) (A)
                 (A) (A) (A) (A) (A) (A) (A) (A) (A) (A) (A) (A)
                 (A) (A) (A) (A) (A) (A) (A) (A) (A) (A) (A) (A)
                 (A) (A) (A) (A) (A) (A) (A) (A) (A) (A) (A) (A)
                 (A) (A) (A) (A) (A) (A) (A) (A) (A) (A) (A) (A)
                 (A) (A)
 Beta  Orbitals:
       Occupied  (A) (A) (A) (A) (A) (A) (A) (A) (A) (A) (A) (A)
                 (A) (A) (A) (A) (A) (A) (A) (A) (A) (A) (A) (A)
                 (A) (A) (A) (A) (A) (A)
       Virtual   (A) (A) (A) (A) (A) (A) (A) (A) (A) (A) (A) (A)
                 (A) (A) (A) (A) (A) (A) (A) (A) (A) (A) (A) (A)
                 (A) (A) (A) (A) (A) (A) (A) (A) (A) (A) (A) (A)
                 (A) (A) (A) (A) (A) (A) (A) (A) (A) (A) (A) (A)
                 (A) (A) (A) (A) (A) (A) (A) (A) (A) (A) (A) (A)
                 (A) (A) (A) (A) (A) (A) (A) (A) (A) (A) (A) (A)
                 (A) (A) (A) (A) (A) (A) (A) (A) (A) (A) (A) (A)
                 (A) (A) (A) (A) (A) (A) (A) (A) (A) (A) (A) (A)
                 (A) (A) (A) (A) (A) (A) (A) (A) (A) (A) (A) (A)
                 (A) (A) (A) (A) (A) (A) (A) (A) (A) (A) (A) (A)
                 (A) (A) (A) (A) (A) (A) (A) (A) (A) (A) (A) (A)
                 (A) (A) (A) (A) (A) (A) (A) (A) (A) (A) (A) (A)
                 (A) (A) (A) (A) (A) (A) (A) (A) (A) (A) (A) (A)
                 (A) (A) (A) (A) (A) (A) (A) (A) (A) (A) (A) (A)
                 (A) (A) (A) (A) (A) (A) (A) (A) (A) (A) (A) (A)
                 (A) (A) (A) (A) (A) (A) (A) (A) (A) (A) (A) (A)
                 (A) (A) (A)
 The electronic state is 2-A.
 Alpha  occ. eigenvalues --  -19.69739 -19.64773 -19.63888 -10.72063 -10.62340
 Alpha  occ. eigenvalues --  -10.61657 -10.59477 -10.54669  -1.27185  -1.17945
 Alpha  occ. eigenvalues --   -1.09861  -0.92416  -0.88703  -0.79434  -0.72210
 Alpha  occ. eigenvalues --   -0.65937  -0.62365  -0.60003  -0.57959  -0.54653
 Alpha  occ. eigenvalues --   -0.51957  -0.50637  -0.48951  -0.47902  -0.46266
 Alpha  occ. eigenvalues --   -0.43181  -0.41580  -0.40664  -0.39857  -0.36470
 Alpha  occ. eigenvalues --   -0.32189
 Alpha virt. eigenvalues --   -0.03062  -0.00559   0.00788   0.01332   0.01850
 Alpha virt. eigenvalues --    0.02395   0.03839   0.05051   0.05420   0.06141
 Alpha virt. eigenvalues --    0.06692   0.07244   0.07932   0.08791   0.09880
 Alpha virt. eigenvalues --    0.11261   0.11469   0.12146   0.12351   0.12850
 Alpha virt. eigenvalues --    0.13465   0.13975   0.14184   0.14594   0.15464
 Alpha virt. eigenvalues --    0.16187   0.16996   0.17416   0.18961   0.19466
 Alpha virt. eigenvalues --    0.20119   0.21154   0.22931   0.23247   0.24088
 Alpha virt. eigenvalues --    0.24900   0.26223   0.28247   0.29072   0.29522
 Alpha virt. eigenvalues --    0.30007   0.30433   0.32310   0.32523   0.33379
 Alpha virt. eigenvalues --    0.33689   0.34610   0.35247   0.37736   0.38550
 Alpha virt. eigenvalues --    0.40101   0.41861   0.44931   0.46228   0.48417
 Alpha virt. eigenvalues --    0.49590   0.50715   0.53154   0.55551   0.58935
 Alpha virt. eigenvalues --    0.61003   0.62141   0.62866   0.63788   0.65309
 Alpha virt. eigenvalues --    0.66691   0.68031   0.68136   0.70218   0.71575
 Alpha virt. eigenvalues --    0.72658   0.75162   0.76113   0.77722   0.79866
 Alpha virt. eigenvalues --    0.85445   0.86683   0.90861   0.94982   0.96428
 Alpha virt. eigenvalues --    1.00045   1.03003   1.06544   1.07564   1.10301
 Alpha virt. eigenvalues --    1.14007   1.15454   1.18285   1.18550   1.19853
 Alpha virt. eigenvalues --    1.21167   1.23698   1.25523   1.30625   1.32830
 Alpha virt. eigenvalues --    1.34084   1.35036   1.38387   1.42036   1.43756
 Alpha virt. eigenvalues --    1.46905   1.49312   1.50481   1.52906   1.55398
 Alpha virt. eigenvalues --    1.56907   1.57764   1.59007   1.60951   1.61670
 Alpha virt. eigenvalues --    1.66417   1.68784   1.70986   1.72257   1.74287
 Alpha virt. eigenvalues --    1.79119   1.82369   1.83933   1.86390   1.88515
 Alpha virt. eigenvalues --    1.92910   1.95095   1.97795   1.99884   2.05097
 Alpha virt. eigenvalues --    2.11782   2.13459   2.18879   2.20047   2.28772
 Alpha virt. eigenvalues --    2.30867   2.32706   2.36487   2.50402   2.52931
 Alpha virt. eigenvalues --    2.53661   2.59373   2.61247   2.61859   2.63843
 Alpha virt. eigenvalues --    2.64937   2.65926   2.69050   2.71860   2.74061
 Alpha virt. eigenvalues --    2.78318   2.80994   2.81530   2.85224   2.90345
 Alpha virt. eigenvalues --    2.91519   2.93962   2.95377   2.96709   2.98652
 Alpha virt. eigenvalues --    3.04420   3.12559   3.15639   3.20137   3.24375
 Alpha virt. eigenvalues --    3.25726   3.27886   3.31444   3.37355   3.42775
 Alpha virt. eigenvalues --    3.44422   3.57776   3.63446   3.71871   3.84029
 Alpha virt. eigenvalues --    3.85255   3.89815   3.92865   4.02080   4.13687
 Alpha virt. eigenvalues --    4.14804   4.27413   5.09607   5.12602   5.15270
 Alpha virt. eigenvalues --    5.15487   5.31325   5.43774   5.60833   5.72529
 Alpha virt. eigenvalues --    5.93634  23.61187  23.92628  23.92668  24.05054
 Alpha virt. eigenvalues --   24.78528  49.98112  49.98931  50.10653
  Beta  occ. eigenvalues --  -19.69717 -19.64674 -19.62886 -10.72102 -10.62483
  Beta  occ. eigenvalues --  -10.61654 -10.59011 -10.54669  -1.27069  -1.17700
  Beta  occ. eigenvalues --   -1.06127  -0.91174  -0.87993  -0.79277  -0.71840
  Beta  occ. eigenvalues --   -0.65806  -0.61914  -0.59703  -0.57692  -0.54489
  Beta  occ. eigenvalues --   -0.50409  -0.49988  -0.47772  -0.46303  -0.43108
  Beta  occ. eigenvalues --   -0.41811  -0.40558  -0.39844  -0.38621  -0.34505
  Beta virt. eigenvalues --   -0.09705  -0.02971  -0.00568   0.00912   0.01315
  Beta virt. eigenvalues --    0.01985   0.02690   0.04262   0.05177   0.05599
  Beta virt. eigenvalues --    0.06433   0.06949   0.07626   0.08282   0.08882
  Beta virt. eigenvalues --    0.10539   0.11425   0.11637   0.11994   0.12773
  Beta virt. eigenvalues --    0.12933   0.13836   0.14036   0.14279   0.14539
  Beta virt. eigenvalues --    0.15616   0.16482   0.17287   0.17484   0.19071
  Beta virt. eigenvalues --    0.19456   0.20164   0.21292   0.23078   0.23525
  Beta virt. eigenvalues --    0.24489   0.24948   0.26253   0.28425   0.28664
  Beta virt. eigenvalues --    0.29403   0.30047   0.30445   0.32267   0.32534
  Beta virt. eigenvalues --    0.33379   0.33726   0.34583   0.35403   0.37753
  Beta virt. eigenvalues --    0.38849   0.39837   0.41899   0.45115   0.46449
  Beta virt. eigenvalues --    0.48524   0.49673   0.50727   0.53426   0.55550
  Beta virt. eigenvalues --    0.59001   0.61067   0.62595   0.63295   0.64079
  Beta virt. eigenvalues --    0.65590   0.66733   0.68067   0.68199   0.70096
  Beta virt. eigenvalues --    0.71651   0.72695   0.75176   0.76020   0.77718
  Beta virt. eigenvalues --    0.79996   0.85449   0.86866   0.90964   0.95154
  Beta virt. eigenvalues --    0.96559   1.00139   1.03393   1.06666   1.07919
  Beta virt. eigenvalues --    1.10978   1.14345   1.16917   1.18678   1.19577
  Beta virt. eigenvalues --    1.20726   1.21575   1.23764   1.25974   1.30142
  Beta virt. eigenvalues --    1.33137   1.34633   1.35362   1.38591   1.42315
  Beta virt. eigenvalues --    1.45708   1.46920   1.49321   1.50461   1.53500
  Beta virt. eigenvalues --    1.56319   1.57336   1.58050   1.59108   1.61103
  Beta virt. eigenvalues --    1.61723   1.66461   1.68857   1.71317   1.72233
  Beta virt. eigenvalues --    1.74257   1.79067   1.82842   1.83990   1.86469
  Beta virt. eigenvalues --    1.88923   1.93146   1.95588   1.98176   2.00103
  Beta virt. eigenvalues --    2.05173   2.11843   2.13990   2.19122   2.20198
  Beta virt. eigenvalues --    2.28981   2.31068   2.32870   2.36631   2.50407
  Beta virt. eigenvalues --    2.52946   2.53688   2.59451   2.61286   2.61938
  Beta virt. eigenvalues --    2.63814   2.64712   2.66047   2.68786   2.72188
  Beta virt. eigenvalues --    2.74382   2.78387   2.81229   2.82111   2.86663
  Beta virt. eigenvalues --    2.90397   2.94032   2.95278   2.96090   2.97210
  Beta virt. eigenvalues --    2.99222   3.06184   3.12673   3.15824   3.21442
  Beta virt. eigenvalues --    3.24572   3.27875   3.29280   3.31830   3.37927
  Beta virt. eigenvalues --    3.42860   3.43886   3.57446   3.63630   3.72121
  Beta virt. eigenvalues --    3.84037   3.85261   3.89888   3.95039   4.02144
  Beta virt. eigenvalues --    4.13948   4.15279   4.27487   5.11378   5.12669
  Beta virt. eigenvalues --    5.15651   5.20695   5.31771   5.43878   5.62815
  Beta virt. eigenvalues --    5.72721   5.93698  23.61313  23.92640  23.92697
  Beta virt. eigenvalues --   24.05055  24.78863  49.97418  49.98921  50.10573
          Condensed to atoms (all electrons):
               1          2          3          4          5          6
     1  O    8.123370   0.257343   0.105903  -0.039046  -0.147520   0.016471
     2  H    0.257343   0.487292   0.103326   0.009387  -0.011230  -0.101804
     3  C    0.105903   0.103326  13.681458   0.574278  -3.503477  -4.120908
     4  H   -0.039046   0.009387   0.574278   0.427668  -0.146812  -0.035720
     5  C   -0.147520  -0.011230  -3.503477  -0.146812  10.958585  -2.321165
     6  C    0.016471  -0.101804  -4.120908  -0.035720  -2.321165  13.251154
     7  O    0.004663   0.009537   0.295011   0.000101   0.180013  -0.136395
     8  O   -0.004394   0.000272   0.215869   0.002662  -0.313955  -0.172996
     9  C   -0.000455  -0.000845   0.058651   0.000134  -0.147200  -0.020416
    10  C   -0.001118  -0.000458   0.045771   0.000945  -0.070319  -0.116300
    11  H    0.000027  -0.000007   0.005053  -0.000081   0.018365  -0.007999
    12  H   -0.000175  -0.000168  -0.017334  -0.000072  -0.037056   0.039741
    13  H   -0.000091  -0.000032   0.004928   0.000052   0.012836  -0.021242
    14  H    0.000114   0.000033  -0.014253  -0.000109  -0.008602   0.034756
    15  H    0.000183  -0.000278   0.001191  -0.000191  -0.026038   0.005495
               7          8          9         10         11         12
     1  O    0.004663  -0.004394  -0.000455  -0.001118   0.000027  -0.000175
     2  H    0.009537   0.000272  -0.000845  -0.000458  -0.000007  -0.000168
     3  C    0.295011   0.215869   0.058651   0.045771   0.005053  -0.017334
     4  H    0.000101   0.002662   0.000134   0.000945  -0.000081  -0.000072
     5  C    0.180013  -0.313955  -0.147200  -0.070319   0.018365  -0.037056
     6  C   -0.136395  -0.172996  -0.020416  -0.116300  -0.007999   0.039741
     7  O    8.076857  -0.143164   0.043775  -0.062523   0.003962  -0.025587
     8  O   -0.143164   8.374796   0.151836  -0.033477  -0.093263  -0.003023
     9  C    0.043775   0.151836   5.377247   0.042350   0.438110   0.403364
    10  C   -0.062523  -0.033477   0.042350   5.477051  -0.051665  -0.022787
    11  H    0.003962  -0.093263   0.438110  -0.051665   0.524355  -0.036436
    12  H   -0.025587  -0.003023   0.403364  -0.022787  -0.036436   0.510040
    13  H   -0.000007   0.017644  -0.047888   0.404698   0.000851  -0.006458
    14  H    0.000375  -0.008077  -0.032588   0.407891  -0.011819   0.005719
    15  H    0.004849  -0.019544   0.001203   0.386159   0.010361  -0.010593
              13         14         15
     1  O   -0.000091   0.000114   0.000183
     2  H   -0.000032   0.000033  -0.000278
     3  C    0.004928  -0.014253   0.001191
     4  H    0.000052  -0.000109  -0.000191
     5  C    0.012836  -0.008602  -0.026038
     6  C   -0.021242   0.034756   0.005495
     7  O   -0.000007   0.000375   0.004849
     8  O    0.017644  -0.008077  -0.019544
     9  C   -0.047888  -0.032588   0.001203
    10  C    0.404698   0.407891   0.386159
    11  H    0.000851  -0.011819   0.010361
    12  H   -0.006458   0.005719  -0.010593
    13  H    0.533520  -0.034676  -0.031137
    14  H   -0.034676   0.540510  -0.048285
    15  H   -0.031137  -0.048285   0.542088
          Atomic-Atomic Spin Densities.
               1          2          3          4          5          6
     1  O    0.650591   0.007207   0.088011  -0.004676  -0.168775  -0.034528
     2  H    0.007207  -0.022604  -0.027918  -0.000315   0.016507   0.017113
     3  C    0.088011  -0.027918   0.453448   0.022920  -0.491081  -0.241183
     4  H   -0.004676  -0.000315   0.022920   0.019302  -0.014873   0.008276
     5  C   -0.168775   0.016507  -0.491081  -0.014873   1.189514   0.133318
     6  C   -0.034528   0.017113  -0.241183   0.008276   0.133318   0.061244
     7  O    0.008493  -0.002127   0.031256  -0.000285  -0.047083  -0.028804
     8  O   -0.001319   0.000231  -0.015217  -0.000787  -0.002483   0.053657
     9  C   -0.000125   0.000120  -0.001237  -0.000143  -0.004760  -0.002474
    10  C    0.000811  -0.000347   0.008400  -0.000134  -0.005934   0.008145
    11  H   -0.000003   0.000017  -0.000752   0.000003  -0.002035   0.002428
    12  H   -0.000183   0.000087  -0.001332   0.000020   0.003058  -0.000808
    13  H    0.000022  -0.000015   0.000084  -0.000016  -0.000693   0.000740
    14  H   -0.000051   0.000024  -0.000850   0.000017   0.000905  -0.000345
    15  H   -0.000005   0.000006  -0.000258   0.000010   0.000058  -0.000629
               7          8          9         10         11         12
     1  O    0.008493  -0.001319  -0.000125   0.000811  -0.000003  -0.000183
     2  H   -0.002127   0.000231   0.000120  -0.000347   0.000017   0.000087
     3  C    0.031256  -0.015217  -0.001237   0.008400  -0.000752  -0.001332
     4  H   -0.000285  -0.000787  -0.000143  -0.000134   0.000003   0.000020
     5  C   -0.047083  -0.002483  -0.004760  -0.005934  -0.002035   0.003058
     6  C   -0.028804   0.053657  -0.002474   0.008145   0.002428  -0.000808
     7  O    0.069600  -0.002034  -0.003936   0.002343  -0.000221   0.000264
     8  O   -0.002034  -0.023156   0.004646  -0.009809  -0.000514   0.000680
     9  C   -0.003936   0.004646   0.003951   0.000455   0.000832  -0.000441
    10  C    0.002343  -0.009809   0.000455  -0.000361  -0.000544  -0.001037
    11  H   -0.000221  -0.000514   0.000832  -0.000544   0.000529   0.000273
    12  H    0.000264   0.000680  -0.000441  -0.001037   0.000273  -0.000156
    13  H   -0.000059  -0.000573   0.000094  -0.000147  -0.000041   0.000127
    14  H    0.000035   0.000394   0.000161  -0.000241   0.000099  -0.000048
    15  H   -0.000130   0.000529  -0.000017   0.000319   0.000026  -0.000069
              13         14         15
     1  O    0.000022  -0.000051  -0.000005
     2  H   -0.000015   0.000024   0.000006
     3  C    0.000084  -0.000850  -0.000258
     4  H   -0.000016   0.000017   0.000010
     5  C   -0.000693   0.000905   0.000058
     6  C    0.000740  -0.000345  -0.000629
     7  O   -0.000059   0.000035  -0.000130
     8  O   -0.000573   0.000394   0.000529
     9  C    0.000094   0.000161  -0.000017
    10  C   -0.000147  -0.000241   0.000319
    11  H   -0.000041   0.000099   0.000026
    12  H    0.000127  -0.000048  -0.000069
    13  H    0.000587   0.000010   0.000077
    14  H    0.000010   0.000031  -0.000112
    15  H    0.000077  -0.000112  -0.000019
 Mulliken charges and spin densities:
               1          2
     1  O   -0.315276   0.545469
     2  H    0.247631  -0.012013
     3  C   -1.435468  -0.175709
     4  H    0.206801   0.029317
     5  C    1.563575   0.605644
     6  C   -0.292671  -0.023851
     7  O   -0.251466   0.027311
     8  O    0.028812   0.004246
     9  C   -0.267278  -0.002873
    10  C   -0.406219   0.001919
    11  H    0.200185   0.000097
    12  H    0.200825   0.000435
    13  H    0.167002   0.000196
    14  H    0.169009   0.000028
    15  H    0.184537  -0.000215
 Sum of Mulliken charges =  -0.00000   1.00000
 Mulliken charges and spin densities with hydrogens summed into heavy atoms:
               1          2
     1  O   -0.067645   0.533456
     3  C   -1.228667  -0.146392
     5  C    1.563575   0.605644
     6  C   -0.292671  -0.023851
     7  O   -0.251466   0.027311
     8  O    0.028812   0.004246
     9  C    0.133732  -0.002341
    10  C    0.114330   0.001927
 APT charges:
               1
     1  O   -0.314697
     2  H    0.248320
     3  C   -0.168293
     4  H    0.217418
     5  C   -0.264131
     6  C    1.503490
     7  O   -0.776561
     8  O   -0.984470
     9  C    0.548613
    10  C   -0.043141
    11  H   -0.011356
    12  H   -0.009994
    13  H    0.012581
    14  H    0.011810
    15  H    0.030410
 Sum of APT charges =  -0.00000
 APT charges with hydrogens summed into heavy atoms:
               1
     1  O   -0.066377
     3  C    0.049125
     5  C   -0.264131
     6  C    1.503490
     7  O   -0.776561
     8  O   -0.984470
     9  C    0.527263
    10  C    0.011661
 Electronic spatial extent (au):  <R**2>=           1311.9120
 Charge=             -0.0000 electrons
 Dipole moment (field-independent basis, Debye):
    X=             -3.3683    Y=             -1.8202    Z=              0.1090  Tot=              3.8302
 Quadrupole moment (field-independent basis, Debye-Ang):
   XX=            -46.9740   YY=            -48.4073   ZZ=            -47.7041
   XY=             -6.0710   XZ=              1.2181   YZ=             -0.2655
 Traceless Quadrupole moment (field-independent basis, Debye-Ang):
   XX=              0.7211   YY=             -0.7121   ZZ=             -0.0090
   XY=             -6.0710   XZ=              1.2181   YZ=             -0.2655
 Octapole moment (field-independent basis, Debye-Ang**2):
  XXX=            -51.5457  YYY=              4.7093  ZZZ=             -3.5771  XYY=              9.7237
  XXY=            -23.2810  XXZ=             -0.7443  XZZ=             -4.1002  YZZ=              0.8477
  YYZ=              1.0610  XYZ=             -4.7256
 Hexadecapole moment (field-independent basis, Debye-Ang**3):
 XXXX=          -1439.7212 YYYY=           -215.4681 ZZZZ=           -113.7333 XXXY=            -85.5120
 XXXZ=             20.4310 YYYX=             12.2655 YYYZ=             -1.0260 ZZZX=              2.1945
 ZZZY=             -2.3903 XXYY=           -231.9424 XXZZ=           -253.8653 YYZZ=            -55.7616
 XXYZ=            -13.9534 YYXZ=              3.5403 ZZXY=              3.1150
 N-N= 3.507442104666D+02 E-N=-1.685658762423D+03  KE= 4.187047294263D+02
  Exact polarizability: 106.749   6.830  71.261   2.955  -2.255  50.575
 Approx polarizability: 110.025   7.527  90.244   5.478  -4.688  58.734
                          Isotropic Fermi Contact Couplings
        Atom                 a.u.       MegaHertz       Gauss      10(-4) cm-1
     1  O(17)              0.07942     -48.14122     -17.17799     -16.05818
     2  H(1)              -0.00919     -41.09261     -14.66287     -13.70702
     3  C(13)             -0.00565      -6.35139      -2.26633      -2.11859
     4  H(1)               0.01117      49.94380      17.82119      16.65946
     5  C(13)              0.11413     128.30228      45.78145      42.79704
     6  C(13)             -0.02386     -26.81873      -9.56959      -8.94576
     7  O(17)              0.01779     -10.78634      -3.84884      -3.59794
     8  O(17)              0.02063     -12.50480      -4.46202      -4.17115
     9  C(13)              0.00273       3.06721       1.09446       1.02311
    10  C(13)              0.00005       0.05819       0.02076       0.01941
    11  H(1)               0.00002       0.07704       0.02749       0.02570
    12  H(1)               0.00001       0.02517       0.00898       0.00840
    13  H(1)               0.00004       0.16128       0.05755       0.05380
    14  H(1)               0.00002       0.07747       0.02764       0.02584
    15  H(1)              -0.00002      -0.08308      -0.02964      -0.02771
 --------------------------------------------------------
       Center         ----  Spin Dipole Couplings  ----
                      3XX-RR        3YY-RR        3ZZ-RR
 --------------------------------------------------------
     1   Atom        0.269344      0.837675     -1.107019
     2   Atom        0.044119      0.027657     -0.071776
     3   Atom        0.106387     -0.057510     -0.048877
     4   Atom       -0.005625      0.007494     -0.001869
     5   Atom       -0.278934      0.550631     -0.271697
     6   Atom        0.017524      0.001953     -0.019477
     7   Atom        0.083835     -0.051887     -0.031948
     8   Atom        0.015647     -0.007412     -0.008235
     9   Atom        0.006995     -0.003265     -0.003730
    10   Atom        0.002178     -0.000892     -0.001286
    11   Atom        0.002527     -0.001163     -0.001364
    12   Atom        0.002361     -0.001120     -0.001241
    13   Atom        0.001364     -0.000609     -0.000755
    14   Atom        0.001857     -0.001111     -0.000747
    15   Atom        0.001991     -0.000777     -0.001214
 --------------------------------------------------------
                        XY            XZ            YZ
 --------------------------------------------------------
     1   Atom        1.648722     -0.095412     -0.111148
     2   Atom       -0.058860      0.026780     -0.026306
     3   Atom       -0.105394      0.039714     -0.013595
     4   Atom        0.005156     -0.001405     -0.000852
     5   Atom        0.371620     -0.062698     -0.089613
     6   Atom       -0.006140      0.006003     -0.004653
     7   Atom       -0.087926      0.030854     -0.009218
     8   Atom       -0.018430      0.006061     -0.003016
     9   Atom       -0.001463      0.000909     -0.000102
    10   Atom       -0.000850     -0.000854      0.000235
    11   Atom        0.000526      0.000862      0.000152
    12   Atom       -0.000883      0.001800     -0.000649
    13   Atom       -0.000465     -0.000220      0.000057
    14   Atom       -0.000222     -0.001154      0.000068
    15   Atom       -0.001383     -0.001195      0.000443
 --------------------------------------------------------


 ---------------------------------------------------------------------------------
              Anisotropic Spin Dipole Couplings in Principal Axis System
 ---------------------------------------------------------------------------------

       Atom             a.u.   MegaHertz   Gauss  10(-4) cm-1        Axes

              Baa    -1.1198    81.029    28.913    27.028  0.7538 -0.6230  0.2088
     1 O(17)  Bbb    -1.1132    80.547    28.741    26.868 -0.1322  0.1674  0.9770
              Bcc     2.2330  -161.576   -57.654   -53.896  0.6437  0.7641 -0.0438
 
              Baa    -0.0799   -42.621   -15.208   -14.217 -0.1318  0.1669  0.9771
     2 H(1)   Bbb    -0.0235   -12.517    -4.466    -4.175  0.6648  0.7461 -0.0377
              Bcc     0.1033    55.137    19.674    18.392  0.7353 -0.6446  0.2093
 
              Baa    -0.1096   -14.704    -5.247    -4.905  0.4508  0.8874 -0.0962
     3 C(13)  Bbb    -0.0564    -7.574    -2.703    -2.527 -0.1277  0.1708  0.9770
              Bcc     0.1660    22.278     7.949     7.431  0.8834 -0.4281  0.1904
 
              Baa    -0.0076    -4.057    -1.448    -1.353  0.9335 -0.3085  0.1829
     4 H(1)   Bbb    -0.0018    -0.969    -0.346    -0.323 -0.1368  0.1651  0.9767
              Bcc     0.0094     5.026     1.793     1.677  0.3315  0.9368 -0.1119
 
              Baa    -0.4259   -57.158   -20.395   -19.066  0.9246 -0.3352  0.1811
     5 C(13)  Bbb    -0.2783   -37.352   -13.328   -12.459 -0.1317  0.1647  0.9775
              Bcc     0.7043    94.510    33.723    31.525  0.3575  0.9276 -0.1081
 
              Baa    -0.0210    -2.822    -1.007    -0.941 -0.1262  0.1643  0.9783
     6 C(13)  Bbb     0.0001     0.012     0.004     0.004  0.3633  0.9253 -0.1086
              Bcc     0.0209     2.811     1.003     0.937  0.9231 -0.3417  0.1764
 
              Baa    -0.0956     6.916     2.468     2.307  0.4507  0.8881 -0.0899
     7 O(17)  Bbb    -0.0376     2.719     0.970     0.907 -0.1293  0.1646  0.9779
              Bcc     0.1332    -9.635    -3.438    -3.214  0.8833 -0.4291  0.1890
 
              Baa    -0.0176     1.276     0.455     0.426  0.4891  0.8715 -0.0358
     8 O(17)  Bbb    -0.0095     0.689     0.246     0.230 -0.1466  0.1226  0.9816
              Bcc     0.0271    -1.965    -0.701    -0.655  0.8598 -0.4749  0.1877
 
              Baa    -0.0038    -0.511    -0.182    -0.170 -0.0919 -0.0612  0.9939
     9 C(13)  Bbb    -0.0035    -0.465    -0.166    -0.155  0.1319  0.9886  0.0731
              Bcc     0.0073     0.976     0.348     0.326  0.9870 -0.1378  0.0828
 
              Baa    -0.0015    -0.200    -0.071    -0.067  0.2058 -0.0914  0.9743
    10 C(13)  Bbb    -0.0011    -0.149    -0.053    -0.050  0.2588  0.9653  0.0359
              Bcc     0.0026     0.349     0.124     0.116  0.9438 -0.2448 -0.2223
 
              Baa    -0.0016    -0.828    -0.295    -0.276 -0.1898 -0.1235  0.9740
    11 H(1)   Bbb    -0.0012    -0.658    -0.235    -0.220 -0.1589  0.9828  0.0936
              Bcc     0.0028     1.486     0.530     0.496  0.9689  0.1370  0.2062
 
              Baa    -0.0021    -1.109    -0.396    -0.370 -0.2967  0.3326  0.8952
    12 H(1)   Bbb    -0.0013    -0.684    -0.244    -0.228  0.3347  0.9142 -0.2288
              Bcc     0.0034     1.793     0.640     0.598  0.8944 -0.2317  0.3825
 
              Baa    -0.0008    -0.415    -0.148    -0.139  0.0714 -0.1382  0.9878
    13 H(1)   Bbb    -0.0007    -0.380    -0.136    -0.127  0.2290  0.9662  0.1186
              Bcc     0.0015     0.796     0.284     0.265  0.9708 -0.2177 -0.1006
 
              Baa    -0.0012    -0.634    -0.226    -0.211  0.3593  0.2371  0.9026
    14 H(1)   Bbb    -0.0011    -0.599    -0.214    -0.200 -0.0228  0.9691 -0.2455
              Bcc     0.0023     1.233     0.440     0.411  0.9330 -0.0677 -0.3536
 
              Baa    -0.0016    -0.860    -0.307    -0.287  0.3312  0.0486  0.9423
    15 H(1)   Bbb    -0.0013    -0.716    -0.256    -0.239  0.3277  0.9306 -0.1632
              Bcc     0.0030     1.576     0.562     0.526  0.8848 -0.3628 -0.2923
 

 ---------------------------------------------------------------------------------

 Calling FoFJK, ICntrl=    100127 FMM=F ISym2X=0 I1Cent= 0 IOpClX= 1 NMat=1 NMatS=1 NMatT=0.
 Full mass-weighted force constant matrix:
 Low frequencies --- -813.1089  -10.1299   -0.0011   -0.0010   -0.0007   14.3532
 Low frequencies ---   19.8907   70.6461  102.8115
 ******    1 imaginary frequencies (negative Signs) ****** 
 Diagonal vibrational polarizability:
       25.5146812      10.1788540      39.2241559
 Harmonic frequencies (cm**-1), IR intensities (KM/Mole), Raman scattering
 activities (A**4/AMU), depolarization ratios for plane and unpolarized
 incident light, reduced masses (AMU), force constants (mDyne/A),
 and normal coordinates:
                      1                      2                      3
                      A                      A                      A
 Frequencies --   -813.1088                61.7138                98.7621
 Red. masses --     10.7309                 6.0382                 5.5889
 Frc consts  --      4.1801                 0.0135                 0.0321
 IR Inten    --     18.0636                 0.4968                 0.2504
  Atom  AN      X      Y      Z        X      Y      Z        X      Y      Z
     1   8    -0.19  -0.40   0.04     0.06  -0.04  -0.27     0.27  -0.20   0.04
     2   1    -0.05  -0.27   0.04     0.04  -0.01  -0.09     0.41  -0.06  -0.04
     3   6     0.32   0.69  -0.07     0.05  -0.02  -0.10    -0.02  -0.02   0.01
     4   1    -0.28  -0.19  -0.01     0.07  -0.03  -0.22    -0.13  -0.17   0.02
     5   6    -0.06  -0.14   0.02     0.02   0.01   0.14     0.01   0.20  -0.00
     6   6     0.02   0.00   0.00     0.00   0.02   0.22    -0.02   0.15  -0.03
     7   8     0.01   0.01   0.00    -0.02   0.04   0.33    -0.08   0.12  -0.18
     8   8    -0.00   0.01  -0.00     0.02   0.00   0.10     0.03   0.09   0.11
     9   6     0.00   0.00  -0.00     0.05  -0.04  -0.11    -0.03  -0.05   0.03
    10   6    -0.00   0.00  -0.00    -0.18   0.02  -0.24    -0.21  -0.21   0.03
    11   1    -0.00   0.00  -0.00     0.11  -0.06  -0.17     0.10  -0.11  -0.07
    12   1    -0.00   0.00  -0.00     0.16  -0.07  -0.13    -0.05   0.01   0.09
    13   1    -0.00   0.00   0.00    -0.16  -0.03  -0.43    -0.22  -0.29  -0.03
    14   1     0.00   0.00  -0.00    -0.29   0.06  -0.21    -0.21  -0.27  -0.03
    15   1    -0.00   0.00   0.00    -0.26   0.06  -0.18    -0.31  -0.17   0.15
                      4                      5                      6
                      A                      A                      A
 Frequencies --    114.1287               147.2851               214.7479
 Red. masses --      2.8370                 5.2818                 1.4226
 Frc consts  --      0.0218                 0.0675                 0.0387
 IR Inten    --      0.2462                 3.1245                 2.4420
  Atom  AN      X      Y      Z        X      Y      Z        X      Y      Z
     1   8    -0.10   0.05  -0.09    -0.04   0.08   0.21     0.09   0.02   0.01
     2   1    -0.15  -0.03  -0.14    -0.07   0.05   0.21     0.12   0.05   0.00
     3   6     0.01  -0.01   0.05     0.08  -0.03  -0.25     0.01   0.05  -0.01
     4   1     0.05   0.06   0.08     0.13  -0.03  -0.45     0.01   0.04  -0.00
     5   6    -0.01  -0.09   0.09     0.07  -0.09  -0.23     0.01   0.03  -0.00
     6   6     0.05  -0.02   0.01     0.04  -0.05   0.00    -0.04  -0.05   0.00
     7   8     0.16  -0.03  -0.09     0.07  -0.06  -0.07    -0.08  -0.05   0.00
     8   8    -0.02   0.07   0.04    -0.01   0.01   0.27    -0.03  -0.06   0.00
     9   6     0.03   0.14  -0.03     0.01  -0.02   0.07     0.00   0.03  -0.01
    10   6    -0.12  -0.14   0.05    -0.18   0.11  -0.09     0.02   0.03   0.00
    11   1     0.06   0.23  -0.31     0.06  -0.05   0.07    -0.05   0.09  -0.06
    12   1     0.17   0.33   0.15     0.12  -0.10   0.02     0.08   0.06   0.03
    13   1    -0.04   0.02  -0.01    -0.14   0.12  -0.31     0.25   0.53  -0.15
    14   1    -0.33  -0.35  -0.15    -0.35   0.19  -0.03    -0.49  -0.09  -0.14
    15   1    -0.08  -0.28   0.38    -0.22   0.12  -0.05     0.33  -0.31   0.29
                      7                      8                      9
                      A                      A                      A
 Frequencies --    262.5366               283.7889               316.1685
 Red. masses --      3.0735                 2.7616                 1.1884
 Frc consts  --      0.1248                 0.1310                 0.0700
 IR Inten    --      5.0836                 2.3009               108.4778
  Atom  AN      X      Y      Z        X      Y      Z        X      Y      Z
     1   8     0.21   0.07  -0.00     0.04   0.02   0.03     0.01  -0.01  -0.07
     2   1     0.26   0.11  -0.09    -0.02   0.13   0.55    -0.13   0.16   0.95
     3   6     0.04   0.12   0.05     0.02  -0.00  -0.19    -0.00   0.01   0.06
     4   1     0.04   0.16   0.18     0.07  -0.07  -0.59    -0.01   0.02   0.11
     5   6     0.02  -0.08  -0.06    -0.05   0.04   0.27     0.01  -0.01  -0.04
     6   6    -0.03  -0.13  -0.02    -0.04  -0.02   0.08     0.01   0.00  -0.03
     7   8     0.02  -0.12   0.04    -0.02  -0.05  -0.11     0.02   0.01   0.00
     8   8    -0.11  -0.04  -0.05    -0.04  -0.02  -0.00     0.00   0.01  -0.01
     9   6    -0.07   0.12  -0.01     0.00   0.05  -0.06    -0.02  -0.02   0.02
    10   6    -0.11   0.03   0.03     0.07  -0.01   0.00    -0.03   0.01   0.01
    11   1    -0.12   0.19  -0.11    -0.03   0.10  -0.11    -0.01  -0.04   0.05
    12   1     0.01   0.19   0.07     0.07   0.09  -0.01    -0.05  -0.04   0.00
    13   1    -0.29  -0.38   0.16    -0.02  -0.14   0.16    -0.00   0.04  -0.04
    14   1     0.29   0.07   0.10     0.28  -0.03   0.00    -0.09   0.02   0.01
    15   1    -0.37   0.29  -0.13     0.00   0.07  -0.08    -0.01  -0.01   0.02
                     10                     11                     12
                      A                      A                      A
 Frequencies --    342.9545               431.9768               556.3163
 Red. masses --      3.0829                 3.8853                 4.9246
 Frc consts  --      0.2136                 0.4272                 0.8980
 IR Inten    --     16.2547                 3.2830                 4.9371
  Atom  AN      X      Y      Z        X      Y      Z        X      Y      Z
     1   8     0.07   0.04   0.03     0.08   0.03  -0.01    -0.09  -0.05  -0.00
     2   1     0.11   0.02  -0.20     0.14   0.12   0.05    -0.22  -0.20   0.02
     3   6     0.01   0.03  -0.06    -0.13   0.08   0.01     0.23  -0.09   0.05
     4   1     0.03   0.02  -0.18    -0.15   0.09   0.09     0.24  -0.08   0.07
     5   6    -0.04  -0.06   0.12    -0.13  -0.10  -0.11     0.29   0.26  -0.03
     6   6     0.01   0.02  -0.01    -0.07   0.03   0.05    -0.01  -0.06   0.04
     7   8     0.20   0.03   0.01     0.11   0.03   0.02     0.04  -0.06   0.02
     8   8    -0.03   0.06  -0.14    -0.10   0.08   0.20    -0.15   0.06   0.05
     9   6    -0.17  -0.15   0.06    -0.06  -0.06  -0.15    -0.25   0.02  -0.13
    10   6    -0.08   0.01   0.02     0.18  -0.11  -0.08     0.00  -0.02  -0.01
    11   1    -0.11  -0.31   0.34    -0.00  -0.11  -0.14    -0.18  -0.07  -0.04
    12   1    -0.46  -0.29  -0.10     0.02  -0.11  -0.18    -0.26  -0.04  -0.19
    13   1     0.04   0.27  -0.08     0.16   0.05   0.32    -0.01   0.17   0.40
    14   1    -0.32   0.09   0.07     0.40  -0.22  -0.15     0.21  -0.12  -0.09
    15   1     0.10  -0.12   0.01     0.41  -0.25  -0.17     0.25  -0.17  -0.11
                     13                     14                     15
                      A                      A                      A
 Frequencies --    610.6311               768.1467               789.3484
 Red. masses --      7.8084                 3.3652                 1.7970
 Frc consts  --      1.7154                 1.1699                 0.6597
 IR Inten    --     11.8999                 1.0818                56.7863
  Atom  AN      X      Y      Z        X      Y      Z        X      Y      Z
     1   8    -0.06  -0.07   0.01     0.00  -0.00  -0.02    -0.00  -0.00   0.01
     2   1     0.04   0.04  -0.00     0.00  -0.01  -0.03     0.00   0.02   0.06
     3   6    -0.24   0.10  -0.05    -0.03   0.03   0.18     0.01  -0.02  -0.14
     4   1    -0.36  -0.04  -0.05     0.10  -0.15  -0.85    -0.12   0.17   0.91
     5   6    -0.09   0.49  -0.08     0.02  -0.02  -0.18     0.00   0.00  -0.03
     6   6    -0.10  -0.10  -0.02    -0.05   0.05   0.34    -0.03   0.02   0.20
     7   8     0.35  -0.07   0.06     0.01  -0.02  -0.10     0.01  -0.02  -0.05
     8   8    -0.02  -0.23   0.00     0.01  -0.01  -0.10     0.01   0.00  -0.05
     9   6     0.09  -0.03   0.07     0.02   0.01   0.00     0.02   0.01  -0.00
    10   6     0.00   0.01   0.01     0.00   0.00   0.01     0.01   0.01   0.00
    11   1    -0.06   0.17  -0.17    -0.00  -0.01   0.08    -0.00  -0.02   0.14
    12   1     0.32   0.09   0.20    -0.06  -0.02  -0.04    -0.06  -0.07  -0.08
    13   1     0.00  -0.09  -0.20     0.00  -0.04  -0.06    -0.01  -0.05  -0.03
    14   1    -0.08   0.12   0.10    -0.04  -0.02  -0.01    -0.02  -0.06  -0.06
    15   1    -0.12   0.11  -0.02    -0.06   0.03   0.07    -0.06   0.02   0.11
                     16                     17                     18
                      A                      A                      A
 Frequencies --    800.3836               881.0872               893.4306
 Red. masses --      1.2322                 1.2070                 2.5711
 Frc consts  --      0.4651                 0.5521                 1.2092
 IR Inten    --      4.3695               118.7401                23.1554
  Atom  AN      X      Y      Z        X      Y      Z        X      Y      Z
     1   8    -0.00  -0.01  -0.00    -0.04  -0.07   0.01     0.01   0.03  -0.00
     2   1     0.02   0.02  -0.01     0.31   0.36  -0.02    -0.15  -0.18   0.01
     3   6    -0.03   0.01   0.01    -0.04  -0.00  -0.00    -0.01   0.01  -0.00
     4   1    -0.01  -0.00  -0.12     0.47   0.70  -0.07    -0.26  -0.33   0.02
     5   6    -0.01   0.03   0.01     0.01   0.02  -0.00     0.00   0.05  -0.01
     6   6     0.01  -0.04  -0.04     0.01  -0.02   0.00    -0.01  -0.09   0.00
     7   8    -0.01  -0.04   0.02    -0.01  -0.03   0.00    -0.03  -0.12   0.02
     8   8    -0.00   0.04   0.01    -0.01   0.06  -0.01    -0.07   0.22  -0.03
     9   6     0.05   0.06  -0.01     0.01  -0.01   0.02     0.07  -0.01   0.10
    10   6     0.02   0.02  -0.02     0.01  -0.02  -0.01     0.10  -0.11  -0.05
    11   1    -0.01  -0.10   0.52     0.05  -0.02  -0.02     0.16  -0.05   0.02
    12   1    -0.15  -0.31  -0.36    -0.04   0.05   0.05    -0.19   0.18   0.22
    13   1    -0.06  -0.18  -0.00     0.03  -0.00  -0.08     0.18  -0.13  -0.53
    14   1     0.02  -0.32  -0.31    -0.03   0.06   0.06    -0.16   0.20   0.19
    15   1    -0.18   0.02   0.41     0.02   0.00  -0.08    -0.00   0.05  -0.27
                     19                     20                     21
                      A                      A                      A
 Frequencies --    926.9163              1021.4311              1074.3024
 Red. masses --      2.6888                 1.1179                 3.8565
 Frc consts  --      1.3611                 0.6872                 2.6224
 IR Inten    --      2.2926                44.5910                31.9263
  Atom  AN      X      Y      Z        X      Y      Z        X      Y      Z
     1   8    -0.01   0.00  -0.00    -0.05   0.01  -0.01    -0.02   0.01  -0.00
     2   1     0.10   0.14  -0.01     0.50   0.69  -0.05     0.17   0.24  -0.02
     3   6    -0.10   0.04  -0.02     0.03  -0.02   0.01     0.08  -0.03   0.02
     4   1    -0.28  -0.18  -0.00    -0.25  -0.41   0.04    -0.00  -0.17   0.03
     5   6    -0.05   0.05  -0.02     0.02  -0.01   0.00     0.04  -0.01   0.01
     6   6     0.12  -0.09   0.04     0.03   0.01   0.00    -0.13   0.01  -0.03
     7   8    -0.04  -0.14   0.01     0.00   0.01  -0.00     0.02   0.02   0.00
     8   8     0.16   0.09  -0.01    -0.01  -0.02   0.01    -0.19   0.08  -0.05
     9   6    -0.02  -0.00  -0.09    -0.03   0.02   0.02     0.28  -0.19  -0.11
    10   6    -0.13   0.05   0.07     0.02  -0.01  -0.02    -0.07   0.09   0.15
    11   1     0.32  -0.23  -0.16    -0.09   0.05   0.03     0.29  -0.16  -0.23
    12   1    -0.05  -0.01  -0.10    -0.04   0.03   0.03     0.37  -0.27  -0.18
    13   1    -0.11   0.34   0.54     0.02  -0.05  -0.08    -0.08   0.12   0.28
    14   1     0.14   0.08   0.12    -0.01  -0.02  -0.03    -0.02   0.12   0.19
    15   1     0.21  -0.13  -0.14    -0.01   0.01  -0.01    -0.07   0.06   0.27
                     22                     23                     24
                      A                      A                      A
 Frequencies --   1127.7090              1203.7944              1301.0928
 Red. masses --      2.0712                 1.7664                 3.0820
 Frc consts  --      1.5519                 1.5082                 3.0740
 IR Inten    --     23.9088                 2.9143               630.0226
  Atom  AN      X      Y      Z        X      Y      Z        X      Y      Z
     1   8    -0.00   0.00  -0.00    -0.00   0.00  -0.00     0.01  -0.00   0.00
     2   1     0.01   0.01  -0.00     0.02   0.02  -0.00    -0.07  -0.09   0.01
     3   6     0.01  -0.01   0.00     0.02  -0.01   0.00    -0.08   0.03  -0.02
     4   1     0.01  -0.02   0.00     0.02  -0.01   0.00    -0.07   0.06  -0.02
     5   6     0.00  -0.00   0.00     0.00  -0.01   0.00    -0.00   0.02  -0.00
     6   6    -0.03   0.01   0.00    -0.06   0.01  -0.01     0.35   0.03   0.04
     7   8     0.00   0.00  -0.00     0.01   0.03  -0.00    -0.04   0.01  -0.01
     8   8    -0.05   0.01  -0.05    -0.02  -0.07   0.01    -0.16  -0.02  -0.01
     9   6     0.08   0.01   0.21     0.09   0.16  -0.03     0.08  -0.05  -0.03
    10   6    -0.09   0.00  -0.17    -0.06  -0.12   0.03    -0.03  -0.05   0.01
    11   1     0.07   0.05   0.12     0.24  -0.12   0.41    -0.67   0.42   0.20
    12   1     0.17  -0.03   0.21    -0.29  -0.11  -0.33     0.09  -0.16  -0.13
    13   1    -0.12   0.18   0.45     0.10   0.27  -0.04     0.02   0.11   0.04
    14   1     0.41  -0.22  -0.32     0.02   0.25   0.35     0.02   0.15   0.20
    15   1     0.33  -0.31  -0.17     0.13  -0.08  -0.45     0.01  -0.05  -0.09
                     25                     26                     27
                      A                      A                      A
 Frequencies --   1349.8292              1403.1398              1431.9922
 Red. masses --      1.3028                 1.2972                 1.3936
 Frc consts  --      1.3986                 1.5048                 1.6837
 IR Inten    --    170.5685                44.1519                14.4773
  Atom  AN      X      Y      Z        X      Y      Z        X      Y      Z
     1   8    -0.00   0.00  -0.00    -0.00   0.00  -0.00     0.00  -0.00   0.00
     2   1     0.01   0.02  -0.00     0.01   0.01  -0.00    -0.01  -0.01   0.00
     3   6     0.02  -0.00   0.00     0.01  -0.00   0.00    -0.01   0.00  -0.00
     4   1     0.01  -0.01   0.00     0.01  -0.01   0.00    -0.01   0.01  -0.00
     5   6     0.00  -0.00   0.00    -0.00  -0.00  -0.00     0.00   0.00   0.00
     6   6    -0.08  -0.01  -0.01    -0.06   0.00  -0.01     0.06  -0.00   0.01
     7   8     0.00  -0.02   0.00     0.01  -0.02   0.00    -0.01   0.01  -0.00
     8   8     0.07   0.06  -0.01     0.05   0.02   0.01    -0.05  -0.01  -0.02
     9   6    -0.04   0.01   0.01     0.04  -0.03  -0.03    -0.08   0.06   0.07
    10   6    -0.02  -0.05   0.03     0.02  -0.05  -0.11     0.07  -0.05  -0.06
    11   1    -0.44   0.26   0.14    -0.32   0.16   0.21     0.45  -0.22  -0.24
    12   1     0.68  -0.36  -0.20    -0.20   0.22   0.16     0.37  -0.33  -0.20
    13   1     0.03   0.03  -0.07    -0.02   0.17   0.50     0.03   0.06   0.33
    14   1    -0.03   0.04   0.10    -0.14   0.36   0.25    -0.30   0.20   0.13
    15   1     0.05  -0.02  -0.19    -0.28   0.03   0.35    -0.28   0.15   0.14
                     28                     29                     30
                      A                      A                      A
 Frequencies --   1493.0424              1503.1622              1515.2058
 Red. masses --      1.0413                 1.0618                 1.0863
 Frc consts  --      1.3676                 1.4136                 1.4695
 IR Inten    --      9.7210                 3.1473                19.8365
  Atom  AN      X      Y      Z        X      Y      Z        X      Y      Z
     1   8    -0.00  -0.00  -0.00     0.00  -0.00   0.00     0.00  -0.00   0.00
     2   1     0.00   0.00  -0.00    -0.00  -0.00  -0.00    -0.00  -0.00   0.00
     3   6     0.00  -0.00   0.00    -0.00   0.00  -0.00    -0.01   0.00  -0.00
     4   1     0.00  -0.00   0.00    -0.00   0.00  -0.00    -0.01   0.00  -0.00
     5   6    -0.00  -0.00  -0.00     0.00   0.00   0.00     0.00   0.00   0.00
     6   6    -0.00   0.01  -0.00     0.02  -0.01   0.00     0.02  -0.01   0.00
     7   8    -0.00  -0.01   0.00    -0.00   0.01  -0.00    -0.00   0.01  -0.00
     8   8     0.00   0.00  -0.00    -0.02  -0.00  -0.01    -0.02  -0.00  -0.01
     9   6    -0.02  -0.01   0.02    -0.01  -0.02  -0.05    -0.05   0.01  -0.05
    10   6    -0.03  -0.04  -0.00     0.02  -0.02   0.03    -0.02   0.01  -0.02
    11   1     0.02   0.01  -0.14     0.05  -0.24   0.43     0.15  -0.29   0.37
    12   1    -0.02  -0.06  -0.03     0.30   0.30   0.29     0.39   0.20   0.19
    13   1     0.26   0.53  -0.29     0.09   0.27   0.13    -0.05  -0.19  -0.21
    14   1     0.58  -0.04   0.03    -0.14  -0.27  -0.22     0.25   0.27   0.24
    15   1    -0.35   0.13   0.26    -0.25   0.31  -0.31     0.19  -0.29   0.36
                     31                     32                     33
                      A                      A                      A
 Frequencies --   1808.5416              1971.0585              3076.3236
 Red. masses --     11.5021                 6.9827                 1.0354
 Frc consts  --     22.1659                15.9836                 5.7734
 IR Inten    --    198.4525               136.0546                 9.0776
  Atom  AN      X      Y      Z        X      Y      Z        X      Y      Z
     1   8     0.00   0.01  -0.00    -0.01  -0.04   0.00    -0.00  -0.00  -0.00
     2   1    -0.00  -0.02   0.00    -0.04  -0.07   0.01     0.00   0.00  -0.00
     3   6     0.12  -0.04   0.02    -0.37   0.13  -0.07     0.00  -0.00   0.00
     4   1     0.20  -0.03   0.03    -0.63   0.19  -0.12    -0.00   0.00  -0.00
     5   6    -0.14   0.02  -0.02     0.56  -0.16   0.10    -0.00   0.00  -0.00
     6   6     0.01   0.74  -0.12    -0.11   0.15  -0.04     0.00   0.00   0.00
     7   8     0.02  -0.50   0.09     0.00  -0.05   0.01     0.00  -0.00  -0.00
     8   8    -0.04  -0.07   0.00    -0.01  -0.01   0.00    -0.00  -0.00  -0.00
     9   6    -0.03   0.03  -0.01     0.00   0.00  -0.00     0.00   0.00  -0.00
    10   6     0.01  -0.00   0.01    -0.00   0.00   0.00    -0.02   0.02   0.04
    11   1     0.15  -0.15   0.11     0.02  -0.01   0.01     0.00   0.01   0.00
    12   1     0.17   0.05   0.01     0.01   0.01   0.00    -0.00  -0.02   0.02
    13   1    -0.01  -0.06  -0.05    -0.00  -0.01  -0.00     0.56  -0.22   0.12
    14   1    -0.04   0.00   0.00    -0.00  -0.00  -0.00     0.03   0.40  -0.44
    15   1     0.05  -0.01  -0.04     0.01  -0.00  -0.01    -0.31  -0.40  -0.14
                     34                     35                     36
                      A                      A                      A
 Frequencies --   3109.7397              3151.9819              3156.3933
 Red. masses --      1.0609                 1.1014                 1.1049
 Frc consts  --      6.0444                 6.4468                 6.4858
 IR Inten    --     16.9200                13.8617                 1.3672
  Atom  AN      X      Y      Z        X      Y      Z        X      Y      Z
     1   8    -0.00   0.00  -0.00    -0.00   0.00   0.00    -0.00   0.00  -0.00
     2   1     0.00  -0.00  -0.00     0.00   0.00  -0.00     0.00  -0.00  -0.00
     3   6     0.00  -0.00   0.00     0.00  -0.00   0.00     0.00   0.00   0.00
     4   1    -0.00   0.00   0.00    -0.00   0.00  -0.00     0.00  -0.00  -0.00
     5   6    -0.00   0.00  -0.00    -0.00   0.00  -0.00    -0.00  -0.00  -0.00
     6   6     0.00   0.00   0.00     0.00   0.00  -0.00    -0.00   0.00  -0.00
     7   8     0.00  -0.00   0.00    -0.00  -0.00   0.00    -0.00  -0.00   0.00
     8   8    -0.00   0.00  -0.00     0.00  -0.00   0.00     0.00  -0.00  -0.00
     9   6    -0.02   0.01  -0.06    -0.01  -0.02  -0.01     0.02   0.05  -0.01
    10   6     0.01  -0.01   0.01    -0.05   0.06  -0.05    -0.06  -0.04  -0.01
    11   1     0.32   0.42   0.15     0.16   0.21   0.08    -0.25  -0.33  -0.12
    12   1    -0.09  -0.54   0.61    -0.00   0.01  -0.01    -0.04  -0.23   0.26
    13   1    -0.12   0.04  -0.03     0.62  -0.23   0.12     0.34  -0.14   0.07
    14   1     0.01   0.05  -0.05    -0.05  -0.45   0.51     0.00   0.13  -0.16
    15   1    -0.01  -0.02  -0.00    -0.00   0.02  -0.01     0.41   0.54   0.19
                     37                     38                     39
                      A                      A                      A
 Frequencies --   3177.5008              3383.8996              3792.5618
 Red. masses --      1.1076                 1.1294                 1.0682
 Frc consts  --      6.5888                 7.6194                 9.0524
 IR Inten    --     13.9831                41.4654                45.2295
  Atom  AN      X      Y      Z        X      Y      Z        X      Y      Z
     1   8    -0.00  -0.00  -0.00     0.00  -0.00   0.00    -0.05   0.04  -0.01
     2   1     0.00   0.00  -0.00    -0.00  -0.00  -0.00     0.77  -0.61   0.21
     3   6     0.00  -0.00   0.00    -0.09   0.05  -0.02    -0.00  -0.00  -0.00
     4   1    -0.00   0.00  -0.00     0.79  -0.56   0.20     0.00  -0.00   0.00
     5   6    -0.00   0.00  -0.00     0.02  -0.00   0.00     0.00   0.00   0.00
     6   6     0.00  -0.00   0.00    -0.00   0.00  -0.00     0.00  -0.00   0.00
     7   8    -0.00   0.00  -0.00    -0.00   0.00  -0.00    -0.00   0.00  -0.00
     8   8     0.00   0.00   0.00     0.00  -0.00   0.00    -0.00   0.00  -0.00
     9   6    -0.04  -0.07   0.01    -0.00  -0.00  -0.00     0.00  -0.00   0.00
    10   6    -0.03  -0.05   0.01    -0.00  -0.00   0.00    -0.00  -0.00  -0.00
    11   1     0.38   0.51   0.20     0.00   0.00   0.00    -0.00   0.00  -0.00
    12   1     0.05   0.28  -0.33     0.00  -0.00  -0.00    -0.00   0.00  -0.00
    13   1     0.07  -0.03   0.02     0.00  -0.00  -0.00    -0.00   0.00   0.00
    14   1     0.02   0.23  -0.27    -0.00   0.00  -0.00     0.00   0.00  -0.00
    15   1     0.28   0.37   0.14    -0.00   0.00   0.00     0.00   0.00   0.00

 -------------------
 - Thermochemistry -
 -------------------
 Temperature   298.150 Kelvin.  Pressure   1.00000 Atm.
 Atom     1 has atomic number  8 and mass  15.99491
 Atom     2 has atomic number  1 and mass   1.00783
 Atom     3 has atomic number  6 and mass  12.00000
 Atom     4 has atomic number  1 and mass   1.00783
 Atom     5 has atomic number  6 and mass  12.00000
 Atom     6 has atomic number  6 and mass  12.00000
 Atom     7 has atomic number  8 and mass  15.99491
 Atom     8 has atomic number  8 and mass  15.99491
 Atom     9 has atomic number  6 and mass  12.00000
 Atom    10 has atomic number  6 and mass  12.00000
 Atom    11 has atomic number  1 and mass   1.00783
 Atom    12 has atomic number  1 and mass   1.00783
 Atom    13 has atomic number  1 and mass   1.00783
 Atom    14 has atomic number  1 and mass   1.00783
 Atom    15 has atomic number  1 and mass   1.00783
 Molecular mass:   115.03952 amu.
 Principal axes and moments of inertia in atomic units:
                           1         2         3
     Eigenvalues --   322.371071898.748952067.81476
           X            0.99993  -0.00989  -0.00584
           Y            0.00998   0.99982   0.01593
           Z            0.00568  -0.01599   0.99986
 This molecule is an asymmetric top.
 Rotational symmetry number  1.
 Rotational temperatures (Kelvin)      0.26868     0.04562     0.04189
 Rotational constants (GHZ):           5.59833     0.95049     0.87278
    1 imaginary frequencies ignored.
 Zero-point vibrational energy     296392.9 (Joules/Mol)
                                   70.83961 (Kcal/Mol)
 Warning -- explicit consideration of  12 degrees of freedom as
           vibrations may cause significant error
 Vibrational temperatures:     88.79   142.10   164.21   211.91   308.97
          (Kelvin)            377.73   408.31   454.90   493.44   621.52
                              800.42   878.56  1105.19  1135.70  1151.57
                             1267.69  1285.45  1333.63  1469.61  1545.68
                             1622.52  1731.99  1871.98  1942.10  2018.81
                             2060.32  2148.15  2162.72  2180.04  2602.09
                             2835.91  4426.14  4474.22  4535.00  4541.35
                             4571.71  4868.68  5456.65
 
 Zero-point correction=                           0.112890 (Hartree/Particle)
 Thermal correction to Energy=                    0.122024
 Thermal correction to Enthalpy=                  0.122968
 Thermal correction to Gibbs Free Energy=         0.077888
 Sum of electronic and zero-point Energies=           -420.096986
 Sum of electronic and thermal Energies=              -420.087852
 Sum of electronic and thermal Enthalpies=            -420.086908
 Sum of electronic and thermal Free Energies=         -420.131988
 
                     E (Thermal)             CV                S
                      KCal/Mol        Cal/Mol-Kelvin    Cal/Mol-Kelvin
 Total                   76.571             31.132             94.878
 Electronic               0.000              0.000              1.377
 Translational            0.889              2.981             40.136
 Rotational               0.889              2.981             28.628
 Vibrational             74.794             25.170             24.738
 Vibration     1          0.597              1.973              4.402
 Vibration     2          0.604              1.950              3.479
 Vibration     3          0.607              1.938              3.197
 Vibration     4          0.617              1.906              2.707
 Vibration     5          0.645              1.819              2.003
 Vibration     6          0.670              1.741              1.645
 Vibration     7          0.682              1.704              1.511
 Vibration     8          0.703              1.643              1.330
 Vibration     9          0.722              1.590              1.198
 Vibration    10          0.793              1.401              0.852
 Vibration    11          0.912              1.126              0.531
 Vibration    12          0.970              1.009              0.432
                       Q            Log10(Q)             Ln(Q)
 Total Bot       0.149219D-35        -35.826175        -82.492817
 Total V=0       0.125782D+17         16.099619         37.070743
 Vib (Bot)       0.381994D-49        -49.417943       -113.789019
 Vib (Bot)    1  0.334545D+01          0.524455          1.207602
 Vib (Bot)    2  0.207849D+01          0.317748          0.731642
 Vib (Bot)    3  0.179296D+01          0.253571          0.583870
 Vib (Bot)    4  0.137778D+01          0.139179          0.320472
 Vib (Bot)    5  0.923103D+00         -0.034750         -0.080015
 Vib (Bot)    6  0.738900D+00         -0.131414         -0.302593
 Vib (Bot)    7  0.676119D+00         -0.169977         -0.391386
 Vib (Bot)    8  0.595919D+00         -0.224813         -0.517651
 Vib (Bot)    9  0.540413D+00         -0.267274         -0.615422
 Vib (Bot)   10  0.402729D+00         -0.394987         -0.909492
 Vib (Bot)   11  0.280379D+00         -0.552255         -1.271614
 Vib (Bot)   12  0.241856D+00         -0.616444         -1.419415
 Vib (V=0)       0.321997D+03          2.507852          5.774542
 Vib (V=0)    1  0.388261D+01          0.589124          1.356508
 Vib (V=0)    2  0.263779D+01          0.421239          0.969940
 Vib (V=0)    3  0.236138D+01          0.373165          0.859244
 Vib (V=0)    4  0.196570D+01          0.293517          0.675848
 Vib (V=0)    5  0.154982D+01          0.190281          0.438138
 Vib (V=0)    6  0.139217D+01          0.143693          0.330866
 Vib (V=0)    7  0.134091D+01          0.127401          0.293352
 Vib (V=0)    8  0.127789D+01          0.106495          0.245213
 Vib (V=0)    9  0.123624D+01          0.092102          0.212073
 Vib (V=0)   10  0.114202D+01          0.057674          0.132799
 Vib (V=0)   11  0.107325D+01          0.030700          0.070689
 Vib (V=0)   12  0.105542D+01          0.023426          0.053941
 Electronic      0.200000D+01          0.301030          0.693147
 Translational   0.484981D+08          7.685724         17.697035
 Rotational      0.402729D+06          5.605013         12.906020
 ***** Axes restored to original set *****
 -------------------------------------------------------------------
 Center     Atomic                   Forces (Hartrees/Bohr)
 Number     Number              X              Y              Z
 -------------------------------------------------------------------
      1        8          -0.013785301   -0.029801414    0.003015969
      2        1          -0.000245196   -0.001286248    0.000183796
      3        6           0.018037166    0.037328768   -0.003653304
      4        1          -0.001684818   -0.000741679   -0.000114035
      5        6          -0.003161567   -0.006139498    0.000554281
      6        6           0.000613123    0.000163669    0.000048186
      7        8           0.000438117    0.000282029    0.000019125
      8        8          -0.000124650    0.000150393   -0.000050072
      9        6          -0.000055457    0.000023232   -0.000013414
     10        6          -0.000012212    0.000009690    0.000009835
     11        1          -0.000008907    0.000003961   -0.000002721
     12        1          -0.000008141    0.000004105   -0.000002182
     13        1          -0.000002316    0.000003867    0.000004954
     14        1          -0.000000542   -0.000000904   -0.000000074
     15        1           0.000000701    0.000000030   -0.000000345
 -------------------------------------------------------------------
 Cartesian Forces:  Max     0.037328768 RMS     0.007990614

 GradGradGradGradGradGradGradGradGradGradGradGradGradGradGradGradGradGrad
 Berny optimization.
 Search for a local minimum.
 Step number   1 out of a maximum of    2
 All quantities printed in internal units (Hartrees-Bohrs-Radians)
 Second derivative matrix not updated -- analytic derivatives used.
 ITU=  0
     Eigenvalues ---   -0.31303   0.00100   0.00156   0.00225   0.00313
     Eigenvalues ---    0.00435   0.00893   0.01382   0.01436   0.02294
     Eigenvalues ---    0.03224   0.03500   0.04520   0.05662   0.06375
     Eigenvalues ---    0.07671   0.08523   0.09679   0.10263   0.10863
     Eigenvalues ---    0.11410   0.14211   0.17046   0.18461   0.18933
     Eigenvalues ---    0.28466   0.29313   0.43198   0.49069   0.62131
     Eigenvalues ---    0.70216   0.76491   0.79155   0.86600   0.91013
     Eigenvalues ---    0.94002   0.99015   1.67467   2.05079
 Eigenvalue     1 is  -3.13D-01 should be greater than     0.000000 Eigenvector:
                          Y3        Y1        X3        X1        Y5
   1                    0.72010  -0.48462   0.35071  -0.27102  -0.15368
                          Y2        X4        Z3        X5        Z1
   1                   -0.08584  -0.08173  -0.07100  -0.05612   0.04341
 Angle between quadratic step and forces=  43.47 degrees.
 Linear search not attempted -- first point.
 B after Tr=    -0.001590    0.002292   -0.001236
         Rot=    1.000000   -0.000602    0.000064    0.000319 Ang=  -0.08 deg.
 Variable       Old X    -DE/DX   Delta X   Delta X   Delta X     New X
                                 (Linear)    (Quad)   (Total)
    X1        6.14381  -0.01379   0.00000  -0.00328  -0.00409   6.13972
    Y1        1.41718  -0.02980   0.00000  -0.13844  -0.14038   1.27680
    Z1        0.23724   0.00302   0.00000   0.02618   0.02727   0.26451
    X2        4.74155  -0.00025   0.00000   0.10179   0.10184   4.84339
    Y2        2.53925  -0.00129   0.00000   0.00567   0.00501   2.54427
    Z2       -0.13648   0.00018   0.00000   0.01664   0.01909  -0.11739
    X3        4.48049   0.01804   0.00000   0.05496   0.05229   4.53277
    Y3       -1.70235   0.03733   0.00000   0.11382   0.11260  -1.58975
    Z3        0.52362  -0.00365   0.00000  -0.01257  -0.01514   0.50848
    X4        6.09341  -0.00168   0.00000  -0.01554  -0.01908   6.07433
    Y4       -2.85907  -0.00074   0.00000  -0.01515  -0.01786  -2.87693
    Z4        0.92809  -0.00011   0.00000  -0.00057  -0.00449   0.92361
    X5        2.18242  -0.00316   0.00000  -0.00364  -0.00613   2.17629
    Y5       -1.41122  -0.00614   0.00000   0.03170   0.03241  -1.37881
    Z5        0.16777   0.00055   0.00000  -0.01017  -0.01279   0.15497
    X6       -0.15728   0.00061   0.00000  -0.00644  -0.00800  -0.16528
    Y6       -0.06846   0.00016   0.00000   0.03325   0.03610  -0.03235
    Z6       -0.36504   0.00005   0.00000  -0.01031  -0.01161  -0.37664
    X7       -0.20739   0.00044   0.00000  -0.03712  -0.03721  -0.24460
    Y7        2.17411   0.00028   0.00000   0.03091   0.03426   2.20837
    Z7       -0.73684   0.00002   0.00000  -0.01926  -0.01787  -0.75471
    X8       -2.13894  -0.00012   0.00000   0.00609   0.00354  -2.13541
    Y8       -1.60341   0.00015   0.00000   0.01030   0.01443  -1.58898
    Z8       -0.39257  -0.00005   0.00000   0.00256  -0.00087  -0.39344
    X9       -4.56123  -0.00006   0.00000  -0.00779  -0.00956  -4.57079
    Y9       -0.44030   0.00002   0.00000  -0.01724  -0.01098  -0.45128
    Z9       -0.87862  -0.00001   0.00000   0.00607   0.00369  -0.87492
   X10       -5.59144  -0.00001   0.00000  -0.01006  -0.01133  -5.60276
   Y10        0.80873   0.00001   0.00000  -0.01043  -0.00635   0.80238
   Z10        1.48377   0.00001   0.00000   0.00167   0.00067   1.48444
   X11       -5.74594  -0.00001   0.00000   0.00419   0.00149  -5.74444
   Y11       -2.00374   0.00000   0.00000  -0.03302  -0.02528  -2.02902
   Z11       -1.49576  -0.00000   0.00000   0.02181   0.01738  -1.47838
   X12       -4.34279  -0.00001   0.00000  -0.02748  -0.02820  -4.37099
   Y12        0.91070   0.00000   0.00000  -0.02592  -0.01792   0.89278
   Z12       -2.41918  -0.00000   0.00000  -0.00408  -0.00481  -2.42399
   X13       -7.48074  -0.00000   0.00000  -0.01690  -0.01766  -7.49840
   Y13        1.54445   0.00000   0.00000  -0.02741  -0.02167   1.52279
   Z13        1.10380   0.00000   0.00000   0.00286   0.00249   1.10630
   X14       -5.72038  -0.00000   0.00000   0.00511   0.00277  -5.71761
   Y14       -0.55712  -0.00000   0.00000  -0.00170   0.00059  -0.55653
   Z14        3.02247  -0.00000   0.00000   0.01085   0.00821   3.03068
   X15       -4.38926   0.00000   0.00000  -0.02033  -0.02067  -4.40993
   Y15        2.37731   0.00000   0.00000   0.00240   0.00503   2.38234
   Z15        2.06509  -0.00000   0.00000  -0.01230  -0.01123   2.05386
         Item               Value     Threshold  Converged?
 Maximum Force            0.037329     0.000450     NO 
 RMS     Force            0.007991     0.000300     NO 
 Maximum Displacement     0.140382     0.001800     NO 
 RMS     Displacement     0.035698     0.001200     NO 
 Predicted change in Energy=-1.371256D-02
 GradGradGradGradGradGradGradGradGradGradGradGradGradGradGradGradGradGrad


 ----------------------------------------------------------------------

 Electric dipole moment (input orientation):
 (Debye = 10**-18 statcoulomb cm , SI units = C m)
                  (au)            (Debye)         (10**-30 SI)
   Tot        0.150691D+01      0.383020D+01      0.127762D+02
   x         -0.132704D+01     -0.337300D+01     -0.112511D+02
   y         -0.712936D+00     -0.181210D+01     -0.604452D+01
   z          0.383936D-01      0.975869D-01      0.325515D+00

 Dipole polarizability, Alpha (input orientation).
 (esu units = cm**3 , SI units = C**2 m**2 J**-1)
 Alpha(0;0):
               (au)            (10**-24 esu)      (10**-40 SI)
   iso        0.761949D+02      0.112909D+02      0.125628D+02
   aniso      0.510174D+02      0.756000D+01      0.841163D+01
   xx         0.106782D+03      0.158235D+02      0.176060D+02
   yx         0.672161D+01      0.996039D+00      0.110824D+01
   yy         0.712519D+02      0.105584D+02      0.117478D+02
   zx         0.300046D+01      0.444622D+00      0.494708D+00
   zy        -0.213881D+01     -0.316939D+00     -0.352642D+00
   zz         0.505504D+02      0.749080D+01      0.833464D+01

 ----------------------------------------------------------------------

 Dipole orientation:
     8          1.13069539         -1.27604682         -6.07489684
     1          0.00390226         -0.00598755         -5.38040071
     6          2.24487601         -2.90340528         -3.12693448
     1          3.46417928         -4.27159247         -3.98977005
     6          1.25306342         -1.91050470         -1.24997740
     6         -0.33198806         -0.16231595          0.16159100
     8         -1.58274336          1.43521663         -0.86472961
     8         -0.21563322         -0.57013879          2.63221602
     6         -1.70665342          1.09328622          4.20270468
     6         -0.38482594          3.60591337          4.57919937
     1         -1.90370056          0.06045410          5.96995167
     1         -3.55897194          1.33179619          3.33191879
     1         -1.47886982          4.76888011          5.88522866
     1          1.49370164          3.31855235          5.37815547
     1         -0.21715768          4.61871559          2.79322942

 Electric dipole moment (dipole orientation):
 (Debye = 10**-18 statcoulomb cm , SI units = C m)
                  (au)            (Debye)         (10**-30 SI)
   Tot        0.150691D+01      0.383020D+01      0.127762D+02
   x          0.000000D+00      0.000000D+00      0.000000D+00
   y          0.000000D+00      0.000000D+00      0.000000D+00
   z          0.150691D+01      0.383020D+01      0.127762D+02

 Dipole polarizability, Alpha (dipole orientation).
 (esu units = cm**3 , SI units = C**2 m**2 J**-1)
 Alpha(0;0):
               (au)            (10**-24 esu)      (10**-40 SI)
   iso        0.761949D+02      0.112909D+02      0.125628D+02
   aniso      0.510174D+02      0.756000D+01      0.841163D+01
   xx         0.587958D+02      0.871265D+01      0.969413D+01
   yx        -0.115421D+02     -0.171037D+01     -0.190304D+01
   yy         0.654780D+02      0.970284D+01      0.107959D+02
   zx        -0.785653D+01     -0.116422D+01     -0.129537D+01
   zy         0.828263D+01      0.122736D+01      0.136562D+01
   zz         0.104311D+03      0.154573D+02      0.171985D+02

 ----------------------------------------------------------------------
 1\1\GINC-AJ\Freq\UM062X\6-311++G(d,p)\C5H7O3(2)\AAYUSH\16-Aug-2025\0\\
 # freq 6-311++g(d,p) m062x\\Title Card Required\\0,2\O,3.251166,0.7499
 42,0.125543\H,2.509122,1.343715,-0.072222\C,2.370972,-0.900846,0.27708
 7\H,3.224494,-1.512956,0.491126\C,1.154886,-0.746786,0.088778\C,-0.083
 228,-0.036225,-0.193169\O,-0.109746,1.150488,-0.389917\O,-1.13188,-0.8
 48489,-0.207738\C,-2.4137,-0.232996,-0.464944\C,-2.95886,0.427962,0.78
 5178\H,-3.040619,-1.060332,-0.791522\H,-2.298107,0.481921,-1.280174\H,
 -3.958637,0.81729,0.584108\H,-3.027096,-0.294815,1.599423\H,-2.322699,
 1.258016,1.092798\\Version=ES64L-G16RevA.03\State=2-A\HF=-420.2098762\
 S2=0.788886\S2-1=0.\S2A=0.750617\RMSD=3.454e-09\RMSF=7.991e-03\ZeroPoi
 nt=0.1128901\Thermal=0.122024\Dipole=-1.327042,-0.7129359,0.0383936\Di
 poleDeriv=-0.2629893,0.1915472,0.001305,-0.024648,-0.2123068,-0.042367
 3,0.0333091,-0.0168132,-0.468795,0.1186363,-0.0066814,-0.0273038,0.168
 6635,0.319094,0.0177878,-0.0549459,-0.0027974,0.3072295,-0.3044506,-0.
 4988069,0.047134,-0.2024398,-0.1945986,0.000349,-0.0064928,-0.036923,-
 0.0058304,0.2590267,-0.0044261,0.0070964,0.0083939,0.1961238,0.0020131
 ,0.0078899,-0.0006603,0.1971031,-0.4363291,0.5056314,-0.1082726,0.1723
 392,-0.236738,0.0432478,-0.0716268,0.0916411,-0.1193264,2.6330995,0.18
 20686,0.1530311,0.3055351,1.4169869,-0.1934842,0.2114514,-0.1402322,0.
 4603846,-0.9359683,0.041719,-0.0472801,0.0783943,-1.0059921,0.1522418,
 -0.0644171,0.1196656,-0.3877214,-1.9758596,-0.2769382,-0.0118999,-0.31
 41279,-0.6463287,0.0048816,-0.1293425,-0.0202369,-0.331221,1.0199592,-
 0.0646509,-0.0179226,-0.2552394,0.2948026,0.0294626,0.0717378,0.069165
 4,0.3310763,-0.0882826,-0.0109828,0.0095137,0.0492337,0.0084772,-0.045
 3175,0.0129008,-0.0909743,-0.0496173,-0.0491251,-0.0308256,-0.0186079,
 -0.0568025,-0.0311918,-0.0741529,-0.0205922,-0.0437994,0.0462496,-0.02
 01068,-0.0244677,0.0629774,0.066824,0.0257986,0.0644098,0.0034358,0.03
 04081,-0.0356735,-0.0943331,0.0613867,-0.018935,0.0741612,0.0770169,-0
 .0007757,-0.0191372,0.0167035,0.0550604,0.0886039,0.0157342,0.0022748,
 -0.0084793,-0.0165216,0.0877198,0.0339651,0.0452118,-0.0366535,0.04811
 88,-0.0803074,-0.0331104,-0.0618078,0.0053776,-0.0460158,-0.0081354,-0
 .0203587,0.0377349\Polar=106.7824257,6.7216054,71.2518741,3.0004566,-2
 .138812,50.5504337\Quadrupole=0.512535,-0.5038734,-0.0086616,-4.521509
 9,0.8785458,-0.2036132\PG=C01 [X(C5H7O3)]\NImag=1\\0.34421546,-0.26486
 129,0.15320406,0.08824622,-0.05880628,0.03468191,-0.32145474,0.2386975
 1,-0.08232139,0.31521930,0.21320415,-0.20675830,0.06227048,-0.22423691
 ,0.21363983,-0.07817016,0.06570788,-0.02398748,0.07897717,-0.06471934,
 0.02487646,0.03361821,0.13636920,-0.01509448,0.00399159,0.01970162,-0.
 00248140,0.93031625,0.07620429,0.09998804,-0.00924899,-0.00957556,-0.0
 0019258,-0.00148491,-0.51534089,0.06051501,-0.00538220,-0.00128325,-0.
 02015389,0.00230769,0.00248521,-0.00139763,0.19788615,-0.06553782,0.12
 064463,0.00100824,-0.01342421,0.00192847,-0.00096535,-0.00189165,0.000
 05388,-0.25173196,0.17217586,-0.05745646,0.26430685,-0.00039286,-0.025
 72746,0.00463520,-0.00237213,-0.00338232,0.00038147,0.19692327,-0.1240
 4624,0.04151262,-0.16477274,0.14680705,-0.00015770,0.00293320,0.002501
 00,0.00012647,0.00043927,0.00087821,-0.06148619,0.03820287,-0.04578152
 ,0.05977430,-0.04315987,0.03252707,-0.06010843,-0.10549201,0.00821287,
 0.00096490,-0.00636322,0.00118691,-0.69525712,0.27738302,-0.13433755,-
 0.01350355,-0.03086528,0.00245145,1.03266276,-0.02834123,-0.02581960,0
 .00151853,-0.00154998,-0.00210059,0.00016165,0.18789067,-0.03312898,0.
 02544210,0.00608281,0.00370908,0.00101289,-0.26848834,0.17825683,-0.00
 431234,-0.00876589,0.00770298,0.00039495,-0.00053234,0.00008698,-0.119
 92498,0.03733311,-0.05538260,-0.00351641,-0.00388084,0.00543313,0.1757
 9095,-0.05674237,0.08573222,0.00660236,0.01299622,-0.00100650,0.000968
 78,-0.00392091,0.00062020,-0.01939013,-0.00301033,-0.00228437,0.000398
 50,0.00209932,-0.00111347,-0.19835592,0.08230750,-0.03080403,0.6232257
 8,0.00535446,-0.00080440,0.00065405,-0.00800832,0.00068573,-0.00113853
 ,-0.01944399,0.00121058,-0.00270015,0.00137021,0.00204453,0.00089918,0
 .09011000,-0.07992125,0.01379063,-0.01492120,0.96144818,0.00020221,0.0
 0161073,-0.00170211,0.00132075,-0.00051342,0.00097066,0.00046162,-0.00
 040897,0.00086526,-0.00102244,0.00097006,0.00612798,-0.03215836,0.0129
 8040,-0.07499517,0.05909994,-0.12501432,0.23569070,-0.00279416,-0.0030
 1030,-0.00005249,0.00080197,0.00220950,-0.00002208,0.00428769,0.000604
 16,0.00045067,-0.00011804,-0.00071823,0.00023753,-0.00560547,0.0370862
 6,-0.00971509,-0.10776016,0.04183579,-0.01114854,0.10635484,0.00007110
 ,0.00589931,-0.00080397,0.00511131,-0.00200822,0.00080339,-0.00974061,
 -0.00353652,-0.00065494,0.00047376,0.00095245,-0.00025926,0.04419475,-
 0.05130522,0.01773996,0.01853004,-0.72104002,0.10705139,-0.01068840,0.
 85360450,-0.00049127,-0.00116785,0.00118510,-0.00053544,0.00037101,-0.
 00160077,0.00205776,0.00072438,0.00060650,0.00005035,-0.00042058,-0.00
 098732,-0.01084965,0.01674940,0.01658938,-0.00663252,0.11176499,-0.098
 16475,0.01190386,-0.13483215,0.05784576,-0.00149956,-0.00147570,0.0000
 2800,0.00079683,0.00172668,-0.00017054,-0.00556458,0.00140773,-0.00105
 175,0.00078697,0.00006373,0.00016884,-0.06056411,-0.01276435,-0.008043
 02,-0.24757718,-0.10444418,-0.00502761,0.00268156,-0.05759244,0.003425
 62,0.54125088,-0.00124800,0.00002585,-0.00019987,0.00184910,-0.0001098
 4,0.00031088,0.00476593,-0.00116368,0.00092143,-0.00005990,-0.00038644
 ,-0.00001665,0.00330941,0.01152511,0.00053364,-0.07736896,-0.18091993,
 0.00843314,-0.06143943,-0.07908796,0.00890860,0.07272225,0.37311911,-0
 .00000258,-0.00024161,-0.00012149,-0.00020164,0.00027776,0.00012097,-0
 .00143737,0.00042946,0.00059369,0.00017025,0.00001409,-0.00033897,-0.0
 0988455,-0.00177387,0.00905380,-0.01174021,0.00402402,-0.06918051,0.00
 552933,0.00981970,0.02976043,0.04706100,-0.03634920,0.09649175,0.00056
 134,0.00047383,0.00006561,-0.00035439,-0.00068182,0.00000628,0.0004638
 6,-0.00014327,0.00004901,-0.00029466,0.00004091,-0.00006249,0.00200667
 ,-0.00153612,0.00064672,-0.06417832,-0.01226692,-0.00915718,0.00459004
 ,0.01698360,-0.00173783,-0.14931105,0.03162225,-0.01957655,0.48388685,
 -0.00008501,-0.00010072,0.00000850,0.00009040,0.00027612,-0.00006665,-
 0.00132961,0.00047842,-0.00018727,0.00006832,0.00003625,-0.00005038,-0
 .00531313,-0.00152139,0.00004449,-0.01286862,0.02627210,-0.00620471,-0
 .00302151,-0.00830885,-0.00006392,0.05347320,-0.11806391,0.01904555,0.
 10139949,0.59921829,0.00007761,0.00005330,-0.00012871,-0.00004751,-0.0
 0008574,0.00009205,0.00007056,-0.00006270,0.00001558,-0.00000095,-0.00
 004410,-0.00036835,-0.00040318,0.00077482,0.00609507,-0.00910610,-0.00
 899616,0.00046872,-0.00042779,0.00362015,-0.00630313,-0.02314712,0.017
 22987,-0.07286347,0.00666395,-0.02371368,0.55979977,-0.00007423,-0.000
 11809,0.00001188,0.00002186,0.00012812,-0.00000975,-0.00024124,0.00007
 035,-0.00008614,0.00004695,0.00001274,0.00012339,-0.00053677,-0.000331
 11,-0.00151095,0.00333411,0.00741073,0.00208703,-0.00007181,-0.0025081
 1,0.00109153,-0.03370373,0.02169294,0.02809286,-0.08568460,0.00802820,
 0.02816131,0.57362520,0.00007919,0.00002954,-0.00003095,-0.00005376,-0
 .00003338,0.00004723,0.00003494,-0.00002183,-0.00002532,-0.00000824,0.
 00000652,-0.00003995,0.00044057,0.00005280,0.00074771,-0.00194323,0.00
 024593,0.00032621,0.00139573,0.00018220,-0.00173455,0.01652947,-0.0082
 8673,-0.01081254,0.01095086,-0.10553913,-0.04587685,0.01810718,0.57096
 000,-0.00003814,-0.00006830,0.00001383,0.00000451,0.00004786,-0.000025
 93,-0.00016534,0.00009001,-0.00001647,0.00002082,-0.00000265,0.0000531
 1,0.00006812,-0.00025329,-0.00062821,0.00195357,0.00462304,0.00050506,
 0.00079298,-0.00240164,-0.00025494,-0.00479279,0.00166951,0.01051695,0
 .03923227,-0.05038824,-0.18507300,0.03186743,-0.03377454,0.52554718,-0
 .00007609,-0.00008710,0.00000084,0.00002584,0.00009537,-0.00000841,-0.
 00040535,0.00016839,-0.00005712,0.00003737,-0.00000935,-0.00001803,-0.
 00135265,-0.00044915,0.00019882,-0.00125109,0.00546853,-0.00286160,0.0
 0052852,-0.00117642,0.00030692,-0.03630324,-0.02125722,-0.00983258,-0.
 13120692,-0.11682729,-0.04361884,0.01004748,0.01066224,0.00394235,0.15
 976362,-0.00002468,0.00000587,0.00001367,0.00002379,-0.00000700,-0.000
 01467,0.00019652,-0.00010165,0.00004592,-0.00000194,-0.00000474,0.0000
 2667,0.00063845,0.00027680,-0.00037320,0.00236656,-0.00347939,0.001577
 28,-0.00141757,0.00179712,-0.00070967,0.01799072,0.01338201,0.00652246
 ,-0.13018423,-0.21953280,-0.06202044,-0.00683510,-0.00957503,-0.003160
 37,0.12600733,0.22934781,0.00001289,0.00000104,0.00000497,-0.00001588,
 -0.00001148,-0.00000801,-0.00005803,0.00004443,-0.00002862,0.00000028,
 -0.00000874,-0.00001765,-0.00034374,-0.00003617,0.00022625,0.00061038,
 0.00310742,-0.00069641,0.00139145,-0.00090368,0.00081244,-0.00834556,-
 0.00447885,-0.00126352,-0.04431150,-0.05846821,-0.07567413,-0.01551075
 ,-0.02298633,-0.00842356,0.05008370,0.06741320,0.07782020,-0.00000507,
 -0.00005966,0.00000535,-0.00002389,0.00003464,-0.00001030,-0.00008611,
 0.00004173,-0.00005746,0.00004248,-0.00000613,-0.00005693,-0.00032088,
 0.00006307,0.00105520,0.00382190,0.00708406,-0.00215923,-0.00110974,-0
 .00354703,0.00009344,-0.01349045,0.02668371,-0.02899673,-0.05500768,-0
 .03043746,0.03164036,0.00001969,-0.00873472,0.00922011,-0.00006408,-0.
 01077073,0.01426444,0.06609410,0.00007407,0.00006804,-0.00002422,-0.00
 001800,-0.00004290,0.00003128,-0.00001337,-0.00000360,-0.00005069,-0.0
 0001838,0.00000656,0.00000379,0.00037593,-0.00015982,0.00035962,-0.003
 77860,-0.00149941,-0.00029523,-0.00131379,0.00069355,-0.00110582,0.010
 15461,-0.01150960,0.01044683,-0.02167629,-0.16750554,0.13270981,0.0011
 9140,0.01220629,-0.01339643,-0.00292423,-0.01335938,0.01737456,0.01742
 785,0.18114649,0.00002696,0.00000623,0.00000580,-0.00003160,-0.0000112
 2,-0.00000955,0.00001208,-0.00000309,0.00001359,0.00000082,0.00001074,
 -0.00000694,-0.00004463,-0.00018481,-0.00006716,0.00158908,0.00417962,
 0.00027090,0.00148531,-0.00199427,0.00060663,-0.00645810,0.00383921,-0
 .00280441,0.02322864,0.13049306,-0.20097416,0.00453744,0.01729357,-0.0
 2000108,-0.00002106,-0.00714470,0.00951140,-0.02600049,-0.14390997,0.2
 1518020,-0.00004476,-0.00004839,0.00001441,0.00002817,0.00005911,-0.00
 001979,-0.00004409,0.00000872,0.00000002,0.00002626,-0.00001122,0.0000
 1242,-0.00017040,0.00004789,-0.00026281,0.00172335,0.00063561,-0.00014
 698,-0.00037085,-0.00024042,0.00048343,-0.00083093,0.00063497,0.002688
 89,-0.01066412,0.00236988,-0.00460198,-0.27536732,0.08929476,-0.046307
 53,0.00036638,0.00022402,0.00017928,0.00012306,-0.00030656,0.00032404,
 0.29749427,0.00001953,0.00002657,0.00000321,0.00000082,-0.00001982,-0.
 00000507,0.00002656,-0.00000461,0.00002358,-0.00001268,-0.00000121,-0.
 00000818,0.00014742,0.00004608,0.00005819,-0.00124909,-0.00249608,-0.0
 0032239,-0.00033473,0.00111310,0.00035426,0.00395567,-0.00027959,-0.00
 319983,0.01145882,-0.00563964,0.00562212,0.08838721,-0.08007832,0.0169
 9901,-0.00049489,-0.00005356,0.00039456,-0.00010070,0.00040015,-0.0000
 1219,-0.09845116,0.08381341,0.00002099,0.00004754,0.00001270,-0.000001
 31,-0.00003191,-0.00000968,0.00011351,-0.00006102,0.00001027,-0.000008
 91,-0.00000356,-0.00003327,0.00021084,0.00016558,0.00041967,-0.0013670
 3,-0.00264778,-0.00046614,-0.00001453,0.00116144,-0.00015053,0.0066891
 1,-0.00333439,-0.00468008,0.02376552,-0.00739038,0.00845762,-0.0480551
 2,0.01811416,-0.05758616,-0.00081184,-0.00003582,0.00103359,-0.0003894
 3,0.00113427,0.00055558,0.05019030,-0.01814360,0.05888824,0.00000234,0
 .00000802,-0.00002124,0.00001059,-0.00002196,0.00001398,0.00001664,0.0
 0001349,0.00000751,-0.00001739,-0.00000078,0.00000679,0.00001373,0.000
 04348,-0.00003364,-0.00090234,-0.00149135,0.00026743,-0.00034014,0.000
 87052,0.00007648,0.00198292,-0.00080779,-0.00068824,-0.00277798,-0.007
 60422,0.01037714,-0.04810741,-0.01215769,0.01076469,0.00019464,0.00024
 115,-0.00079449,-0.00018042,0.00123205,0.00214246,0.00351788,0.0196846
 4,-0.02289515,0.04743560,-0.00002397,-0.00002085,-0.00002173,0.0000127
 2,0.00000585,0.00001554,0.00000367,0.00000698,0.00000022,0.00000139,-0
 .00000144,0.00001361,-0.00007569,0.00007178,-0.00012234,0.00029428,-0.
 00026708,0.00034468,-0.00037092,0.00032595,0.00024276,-0.00194270,0.00
 086506,0.00065047,0.00171022,0.01152057,-0.01419412,-0.01202040,-0.172
 09610,0.13681771,-0.00044075,0.00092601,0.00069821,0.00186628,-0.00104
 768,-0.00300581,-0.00170445,-0.00766808,0.00686931,0.01177002,0.182143
 05,0.00000712,0.00000874,0.00001076,-0.00000749,-0.00000582,-0.0000082
 6,0.00003420,-0.00002919,0.00000736,-0.00000050,0.00000706,-0.00000189
 ,0.00008519,0.00001040,-0.00003409,0.00021979,0.00037090,-0.00014877,-
 0.00007124,-0.00022385,0.00018845,-0.00127045,0.00007609,0.00284174,0.
 00120545,0.02012742,-0.02378003,0.01223550,0.13393170,-0.19617653,-0.0
 0043175,0.00000605,0.00089081,0.00196987,-0.00366245,-0.00326943,0.000
 31749,0.00233433,-0.00376575,-0.01471607,-0.14613046,0.21512653,0.0000
 4910,0.00003196,-0.00001756,-0.00003147,-0.00004274,0.00003402,0.00002
 635,-0.00000770,0.00001197,-0.00002269,0.00000876,-0.00000638,0.000127
 26,-0.00006139,0.00003663,-0.00065962,0.00130656,0.00024294,-0.0010742
 5,-0.00074163,0.00075733,0.00134568,-0.00109925,-0.00118189,0.00797094
 ,0.01205733,0.00436252,-0.14330817,-0.12459728,-0.04656305,-0.00030442
 ,0.00154569,0.00283753,0.00018708,-0.00040670,-0.00079096,-0.01578688,
 -0.02303740,-0.00744696,-0.00084866,0.00092032,0.00042290,0.15232975,-
 0.00002975,-0.00001594,0.00003237,0.00002900,0.00004741,-0.00003016,-0
 .00004392,0.00000066,0.00000836,0.00001739,-0.00001258,0.00000279,-0.0
 0000188,0.00001838,-0.00019037,0.00046703,-0.00147949,-0.00053485,-0.0
 0081657,0.00071861,0.00091915,0.00019532,0.00089053,0.00114670,-0.0081
 5134,-0.01158975,-0.00501627,-0.12321605,-0.20805275,-0.05680168,0.001
 26454,0.00037793,-0.00213996,0.00045511,0.00060685,0.00044363,0.007487
 25,0.01084160,0.00415614,-0.01177959,-0.01476402,-0.00682093,0.1341234
 8,0.22241255,-0.00003962,-0.00003549,-0.00002538,0.00003071,0.00001967
 ,0.00002197,0.00001190,0.00001244,0.00000385,0.00000649,-0.00001090,0.
 00001541,0.00001532,0.00017474,-0.00023224,-0.00003873,-0.00291691,0.0
 0045460,-0.00033939,0.00187773,-0.00013325,0.00093434,0.00245658,0.001
 87314,-0.02001789,-0.02318558,-0.00976382,-0.04303566,-0.05517957,-0.0
 6845024,0.00312861,-0.00214637,-0.00418777,-0.00057820,0.00038465,0.00
 098863,-0.00287119,-0.00409799,-0.00268605,0.01549235,0.01782193,0.008
 11910,0.04730095,0.06482508,0.07400205\\0.01378530,0.02980141,-0.00301
 597,0.00024520,0.00128625,-0.00018380,-0.01803717,-0.03732877,0.003653
 30,0.00168482,0.00074168,0.00011404,0.00316157,0.00613950,-0.00055428,
 -0.00061312,-0.00016367,-0.00004819,-0.00043812,-0.00028203,-0.0000191
 2,0.00012465,-0.00015039,0.00005007,0.00005546,-0.00002323,0.00001341,
 0.00001221,-0.00000969,-0.00000984,0.00000891,-0.00000396,0.00000272,0
 .00000814,-0.00000410,0.00000218,0.00000232,-0.00000387,-0.00000495,0.
 00000054,0.00000090,0.00000007,-0.00000070,-0.00000003,0.00000034\\\@


       THE DEATH-KNELL OF THE ATOM

 SO THE ATOMS IN TURN, WE NOW CLEARLY DISCERN,
 FLY TO BITS WITH THE UTMOST FACILITY;
 THEY WEND ON THEIR WAY, AND, IN SPLITTING, DISPLAY
 AN ABSOLUTE LACK OF STABILITY.

          SIR WM. RAMSAY, 1905
 Job cpu time:       0 days  0 hours 51 minutes 24.7 seconds.
 Elapsed time:       0 days  0 hours  2 minutes  8.8 seconds.
 File lengths (MBytes):  RWF=    153 Int=      0 D2E=      0 Chk=      6 Scr=      1
 Normal termination of Gaussian 16 at Sat Aug 16 17:18:42 2025.
