 Entering Gaussian System, Link 0=g16
 Initial command:
 /opt/g16/l1.exe "/home/aayush/scratches/g16/Gau-36544.inp" -scrdir="/home/aayush/scratches/g16/"
 Entering Link 1 = /opt/g16/l1.exe PID=     36547.
  
 Copyright (c) 1988,1990,1992,1993,1995,1998,2003,2009,2016,
            Gaussian, Inc.  All Rights Reserved.
  
 This is part of the Gaussian(R) 16 program.  It is based on
 the Gaussian(R) 09 system (copyright 2009, Gaussian, Inc.),
 the Gaussian(R) 03 system (copyright 2003, Gaussian, Inc.),
 the Gaussian(R) 98 system (copyright 1998, Gaussian, Inc.),
 the Gaussian(R) 94 system (copyright 1995, Gaussian, Inc.),
 the Gaussian 92(TM) system (copyright 1992, Gaussian, Inc.),
 the Gaussian 90(TM) system (copyright 1990, Gaussian, Inc.),
 the Gaussian 88(TM) system (copyright 1988, Gaussian, Inc.),
 the Gaussian 86(TM) system (copyright 1986, Carnegie Mellon
 University), and the Gaussian 82(TM) system (copyright 1983,
 Carnegie Mellon University). Gaussian is a federally registered
 trademark of Gaussian, Inc.
  
 This software contains proprietary and confidential information,
 including trade secrets, belonging to Gaussian, Inc.
  
 This software is provided under written license and may be
 used, copied, transmitted, or stored only in accord with that
 written license.
  
 The following legend is applicable only to US Government
 contracts under FAR:
  
                    RESTRICTED RIGHTS LEGEND
  
 Use, reproduction and disclosure by the US Government is
 subject to restrictions as set forth in subparagraphs (a)
 and (c) of the Commercial Computer Software - Restricted
 Rights clause in FAR 52.227-19.
  
 Gaussian, Inc.
 340 Quinnipiac St., Bldg. 40, Wallingford CT 06492
  
  
 ---------------------------------------------------------------
 Warning -- This program may not be used in any manner that
 competes with the business of Gaussian, Inc. or will provide
 assistance to any competitor of Gaussian, Inc.  The licensee
 of this program is prohibited from giving any competitor of
 Gaussian, Inc. access to this program.  By using this program,
 the user acknowledges that Gaussian, Inc. is engaged in the
 business of creating and licensing software in the field of
 computational chemistry and represents and warrants to the
 licensee that it is not a competitor of Gaussian, Inc. and that
 it will not use this program in any manner prohibited above.
 ---------------------------------------------------------------
  

 Cite this work as:
 Gaussian 16, Revision A.03,
 M. J. Frisch, G. W. Trucks, H. B. Schlegel, G. E. Scuseria, 
 M. A. Robb, J. R. Cheeseman, G. Scalmani, V. Barone, 
 G. A. Petersson, H. Nakatsuji, X. Li, M. Caricato, A. V. Marenich, 
 J. Bloino, B. G. Janesko, R. Gomperts, B. Mennucci, H. P. Hratchian, 
 J. V. Ortiz, A. F. Izmaylov, J. L. Sonnenberg, D. Williams-Young, 
 F. Ding, F. Lipparini, F. Egidi, J. Goings, B. Peng, A. Petrone, 
 T. Henderson, D. Ranasinghe, V. G. Zakrzewski, J. Gao, N. Rega, 
 G. Zheng, W. Liang, M. Hada, M. Ehara, K. Toyota, R. Fukuda, 
 J. Hasegawa, M. Ishida, T. Nakajima, Y. Honda, O. Kitao, H. Nakai, 
 T. Vreven, K. Throssell, J. A. Montgomery, Jr., J. E. Peralta, 
 F. Ogliaro, M. J. Bearpark, J. J. Heyd, E. N. Brothers, K. N. Kudin, 
 V. N. Staroverov, T. A. Keith, R. Kobayashi, J. Normand, 
 K. Raghavachari, A. P. Rendell, J. C. Burant, S. S. Iyengar, 
 J. Tomasi, M. Cossi, J. M. Millam, M. Klene, C. Adamo, R. Cammi, 
 J. W. Ochterski, R. L. Martin, K. Morokuma, O. Farkas, 
 J. B. Foresman, and D. J. Fox, Gaussian, Inc., Wallingford CT, 2016.
 
 ******************************************
 Gaussian 16:  ES64L-G16RevA.03 25-Dec-2016
                23-Jun-2025 
 ******************************************
 %nprocshared=24
 Will use up to   24 processors via shared memory.
 %mem=12GB
 %chk=ethyl_propiolate_ts1.chk
 --------------------------
 # freq 6-311++g(d,p) m062x
 --------------------------
 1/10=4,30=1,38=1/1,3;
 2/12=2,17=6,18=5,40=1/2;
 3/5=4,6=6,7=1111,11=2,25=1,30=1,71=2,74=-55,140=1/1,2,3;
 4//1;
 5/5=2,38=5,98=1/2;
 8/6=4,10=90,11=11/1;
 11/6=1,8=1,9=11,15=111,16=1/1,2,10;
 10/6=1/2;
 6/7=2,8=2,9=2,10=2,28=1/1;
 7/8=1,10=1,25=1/1,2,3,16;
 1/10=4,30=1/3;
 99//99;
 -------------------
 Title Card Required
 -------------------
 Symbolic Z-matrix:
 Charge =  0 Multiplicity = 2
 O                     3.41241   0.89249   0.11101 
 H                     2.60099   1.39881  -0.07473 
 C                     2.32496  -1.18604   0.27303 
 H                     3.2899   -1.5952    0.46162 
 C                     1.22167  -0.76093   0.06353 
 C                    -0.01064  -0.04038  -0.20715 
 O                    -0.02972   1.15029  -0.38504 
 O                    -1.06622  -0.84365  -0.2357 
 C                    -2.34256  -0.21542  -0.48334 
 C                    -2.88419   0.42845   0.77731 
 H                    -2.97533  -1.03271  -0.8239 
 H                    -2.22199   0.51249  -1.28632 
 H                    -3.88108   0.82837   0.5826 
 H                    -2.95769  -0.30738   1.57933 
 H                    -2.24189   1.24842   1.0989 
 

 GradGradGradGradGradGradGradGradGradGradGradGradGradGradGradGradGradGrad
 Berny optimization.
 Initialization pass.
 Trust Radius=3.00D-01 FncErr=1.00D-07 GrdErr=1.00D-07 EigMax=2.50D+02 EigMin=1.00D-04
 Number of steps in this run=      2 maximum allowed number of steps=      2.
 GradGradGradGradGradGradGradGradGradGradGradGradGradGradGradGradGradGrad

                          Input orientation:                          
 ---------------------------------------------------------------------
 Center     Atomic      Atomic             Coordinates (Angstroms)
 Number     Number       Type             X           Y           Z
 ---------------------------------------------------------------------
      1          8           0        3.412406    0.892494    0.111010
      2          1           0        2.600990    1.398807   -0.074731
      3          6           0        2.324959   -1.186035    0.273028
      4          1           0        3.289900   -1.595199    0.461619
      5          6           0        1.221670   -0.760927    0.063532
      6          6           0       -0.010639   -0.040382   -0.207145
      7          8           0       -0.029724    1.150292   -0.385044
      8          8           0       -1.066223   -0.843654   -0.235697
      9          6           0       -2.342562   -0.215417   -0.483335
     10          6           0       -2.884191    0.428450    0.777312
     11          1           0       -2.975330   -1.032707   -0.823900
     12          1           0       -2.221988    0.512487   -1.286321
     13          1           0       -3.881076    0.828371    0.582604
     14          1           0       -2.957694   -0.307375    1.579333
     15          1           0       -2.241888    1.248419    1.098898
 ---------------------------------------------------------------------
                    Distance matrix (angstroms):
                    1          2          3          4          5
     1  O    0.000000
     2  H    0.974294   0.000000
     3  C    2.351398   2.622697   0.000000
     4  H    2.515264   3.118708   1.064938   0.000000
     5  C    2.745065   2.566338   1.200771   2.265405   0.000000
     6  C    3.562123   2.984863   2.645393   3.709213   1.452941
     7  O    3.487232   2.660585   3.381718   4.390269   2.328082
     8  O    4.815863   4.301510   3.446178   4.475140   2.308860
     9  C    5.890702   5.216453   4.827001   5.875488   3.646971
    10  C    6.348734   5.635138   5.476870   6.504938   4.333843
    11  H    6.736737   6.129344   5.414778   6.420441   4.298396
    12  H    5.817502   5.051201   5.098164   6.154555   3.911837
    13  H    7.308994   6.540234   6.532116   7.570418   5.369667
    14  H    6.646340   6.045325   5.512250   6.476126   4.468830
    15  H    5.750969   4.985327   5.240679   6.252437   4.135902
                    6          7          8          9         10
     6  C    0.000000
     7  O    1.204042   0.000000
     8  O    1.326770   2.252211   0.000000
     9  C    2.354736   2.687758   1.443969   0.000000
    10  C    3.073477   3.165456   2.439148   1.515638   0.000000
    11  H    3.186611   3.692516   2.006592   1.088275   2.169600
    12  H    2.521973   2.454611   2.068507   1.090490   2.168907
    13  H    4.044591   3.984079   3.374712   2.143069   1.091617
    14  H    3.456577   3.815308   2.675741   2.154401   1.090907
    15  H    2.888811   2.665592   2.745925   2.157872   1.090101
                   11         12         13         14         15
    11  H    0.000000
    12  H    1.780163   0.000000
    13  H    2.502447   2.518975   0.000000
    14  H    2.510368   3.070083   1.770882   0.000000
    15  H    3.072235   2.496250   1.769163   1.778677   0.000000
 Stoichiometry    C5H7O3(2)
 Framework group  C1[X(C5H7O3)]
 Deg. of freedom    39
 Full point group                 C1      NOp   1
 Largest Abelian subgroup         C1      NOp   1
 Largest concise Abelian subgroup C1      NOp   1
                         Standard orientation:                         
 ---------------------------------------------------------------------
 Center     Atomic      Atomic             Coordinates (Angstroms)
 Number     Number       Type             X           Y           Z
 ---------------------------------------------------------------------
      1          8           0        3.412406    0.892494    0.111010
      2          1           0        2.600990    1.398807   -0.074731
      3          6           0        2.324959   -1.186035    0.273028
      4          1           0        3.289900   -1.595199    0.461619
      5          6           0        1.221670   -0.760927    0.063532
      6          6           0       -0.010639   -0.040382   -0.207145
      7          8           0       -0.029724    1.150292   -0.385044
      8          8           0       -1.066223   -0.843654   -0.235697
      9          6           0       -2.342562   -0.215417   -0.483335
     10          6           0       -2.884191    0.428450    0.777312
     11          1           0       -2.975330   -1.032707   -0.823900
     12          1           0       -2.221988    0.512487   -1.286321
     13          1           0       -3.881076    0.828371    0.582604
     14          1           0       -2.957694   -0.307375    1.579333
     15          1           0       -2.241888    1.248419    1.098898
 ---------------------------------------------------------------------
 Rotational constants (GHZ):           4.9720134           0.9452980           0.8520489
 Standard basis: 6-311++G(d,p) (5D, 7F)
 There are   233 symmetry adapted cartesian basis functions of A   symmetry.
 There are   225 symmetry adapted basis functions of A   symmetry.
   225 basis functions,   351 primitive gaussians,   233 cartesian basis functions
    31 alpha electrons       30 beta electrons
       nuclear repulsion energy       346.7050077449 Hartrees.
 NAtoms=   15 NActive=   15 NUniq=   15 SFac= 1.00D+00 NAtFMM=   60 NAOKFM=F Big=F
 Integral buffers will be    131072 words long.
 Raffenetti 2 integral format.
 Two-electron integral symmetry is turned on.
 One-electron integrals computed using PRISM.
 NBasis=   225 RedAO= T EigKep=  1.03D-06  NBF=   225
 NBsUse=   225 1.00D-06 EigRej= -1.00D+00 NBFU=   225
 ExpMin= 3.60D-02 ExpMax= 8.59D+03 ExpMxC= 1.30D+03 IAcc=3 IRadAn=         5 AccDes= 0.00D+00
 Harris functional with IExCor= 1009 and IRadAn=       5 diagonalized for initial guess.
 HarFok:  IExCor= 1009 AccDes= 0.00D+00 IRadAn=         5 IDoV= 1 UseB2=F ITyADJ=14
 ICtDFT=  3500011 ScaDFX=  1.000000  1.000000  1.000000  1.000000
 FoFCou: FMM=F IPFlag=           0 FMFlag=      100000 FMFlg1=           0
         NFxFlg=           0 DoJE=T BraDBF=F KetDBF=T FulRan=T
         wScrn=  0.000000 ICntrl=       500 IOpCl=  0 I1Cent=   200000004 NGrid=           0
         NMat0=    1 NMatS0=      1 NMatT0=    0 NMatD0=    1 NMtDS0=    0 NMtDT0=    0
 Petite list used in FoFCou.
 Initial guess <Sx>= 0.0000 <Sy>= 0.0000 <Sz>= 0.5000 <S**2>= 0.7500 S= 0.5000
 Requested convergence on RMS density matrix=1.00D-08 within 128 cycles.
 Requested convergence on MAX density matrix=1.00D-06.
 Requested convergence on             energy=1.00D-06.
 No special actions if energy rises.
 Restarting incremental Fock formation.
 SCF Done:  E(UM062X) =  -420.211043617     A.U. after   24 cycles
            NFock= 24  Conv=0.28D-08     -V/T= 2.0032
 <Sx>= 0.0000 <Sy>= 0.0000 <Sz>= 0.5000 <S**2>= 0.7560 S= 0.5030
 <L.S>=  0.00000000000    
 Annihilation of the first spin contaminant:
 S**2 before annihilation     0.7560,   after     0.7500
 DoSCS=F DFT=T ScalE2(SS,OS)=  1.000000  1.000000
 Range of M.O.s used for correlation:     1   225
 NBasis=   225 NAE=    31 NBE=    30 NFC=     0 NFV=     0
 NROrb=    225 NOA=    31 NOB=    30 NVA=   194 NVB=   195

 **** Warning!!: The largest alpha MO coefficient is  0.28933618D+03


 **** Warning!!: The largest beta MO coefficient is  0.24651155D+03

 Symmetrizing basis deriv contribution to polar:
 IMax=3 JMax=2 DiffMx= 0.00D+00
 G2DrvN: will do    16 centers at a time, making    1 passes.
 Calling FoFCou, ICntrl=  3107 FMM=F I1Cent=   0 AccDes= 0.00D+00.
 End of G2Drv F.D. properties file   721 does not exist.
 End of G2Drv F.D. properties file   722 does not exist.
 End of G2Drv F.D. properties file   788 does not exist.
          IDoAtm=111111111111111
          Differentiating once with respect to electric field.
                with respect to dipole field.
          Differentiating once with respect to nuclear coordinates.
 Keep R1 and R2 ints in memory in canonical form, NReq=671901991.
          There are    48 degrees of freedom in the 1st order CPHF.  IDoFFX=6 NUNeed=     3.
     45 vectors produced by pass  0 Test12= 2.47D-14 2.08D-09 XBig12= 9.82D+01 3.54D+00.
 AX will form    45 AO Fock derivatives at one time.
     45 vectors produced by pass  1 Test12= 2.47D-14 2.08D-09 XBig12= 2.16D+01 9.46D-01.
     45 vectors produced by pass  2 Test12= 2.47D-14 2.08D-09 XBig12= 7.76D-01 1.27D-01.
     45 vectors produced by pass  3 Test12= 2.47D-14 2.08D-09 XBig12= 1.02D-02 2.13D-02.
     45 vectors produced by pass  4 Test12= 2.47D-14 2.08D-09 XBig12= 1.08D-04 1.17D-03.
     45 vectors produced by pass  5 Test12= 2.47D-14 2.08D-09 XBig12= 1.15D-06 1.37D-04.
     37 vectors produced by pass  6 Test12= 2.47D-14 2.08D-09 XBig12= 8.99D-09 9.39D-06.
     20 vectors produced by pass  7 Test12= 2.47D-14 2.08D-09 XBig12= 4.59D-11 6.45D-07.
      4 vectors produced by pass  8 Test12= 2.47D-14 2.08D-09 XBig12= 3.11D-13 5.21D-08.
      2 vectors produced by pass  9 Test12= 2.47D-14 2.08D-09 XBig12= 4.90D-15 7.20D-09.
      2 vectors produced by pass 10 Test12= 2.47D-14 2.08D-09 XBig12= 1.35D-15 6.21D-09.
      1 vectors produced by pass 11 Test12= 2.47D-14 2.08D-09 XBig12= 3.39D-16 2.57D-09.
 InvSVY:  IOpt=1 It=  1 EMax= 1.07D-14
 Solved reduced A of dimension   336 with    48 vectors.
 Isotropic polarizability for W=    0.000000       70.87 Bohr**3.
 End of Minotr F.D. properties file   721 does not exist.
 End of Minotr F.D. properties file   722 does not exist.
 End of Minotr F.D. properties file   788 does not exist.

 **********************************************************************

            Population analysis using the SCF density.

 **********************************************************************

 Orbital symmetries:
 Alpha Orbitals:
       Occupied  (A) (A) (A) (A) (A) (A) (A) (A) (A) (A) (A) (A)
                 (A) (A) (A) (A) (A) (A) (A) (A) (A) (A) (A) (A)
                 (A) (A) (A) (A) (A) (A) (A)
       Virtual   (A) (A) (A) (A) (A) (A) (A) (A) (A) (A) (A) (A)
                 (A) (A) (A) (A) (A) (A) (A) (A) (A) (A) (A) (A)
                 (A) (A) (A) (A) (A) (A) (A) (A) (A) (A) (A) (A)
                 (A) (A) (A) (A) (A) (A) (A) (A) (A) (A) (A) (A)
                 (A) (A) (A) (A) (A) (A) (A) (A) (A) (A) (A) (A)
                 (A) (A) (A) (A) (A) (A) (A) (A) (A) (A) (A) (A)
                 (A) (A) (A) (A) (A) (A) (A) (A) (A) (A) (A) (A)
                 (A) (A) (A) (A) (A) (A) (A) (A) (A) (A) (A) (A)
                 (A) (A) (A) (A) (A) (A) (A) (A) (A) (A) (A) (A)
                 (A) (A) (A) (A) (A) (A) (A) (A) (A) (A) (A) (A)
                 (A) (A) (A) (A) (A) (A) (A) (A) (A) (A) (A) (A)
                 (A) (A) (A) (A) (A) (A) (A) (A) (A) (A) (A) (A)
                 (A) (A) (A) (A) (A) (A) (A) (A) (A) (A) (A) (A)
                 (A) (A) (A) (A) (A) (A) (A) (A) (A) (A) (A) (A)
                 (A) (A) (A) (A) (A) (A) (A) (A) (A) (A) (A) (A)
                 (A) (A) (A) (A) (A) (A) (A) (A) (A) (A) (A) (A)
                 (A) (A)
 Beta  Orbitals:
       Occupied  (A) (A) (A) (A) (A) (A) (A) (A) (A) (A) (A) (A)
                 (A) (A) (A) (A) (A) (A) (A) (A) (A) (A) (A) (A)
                 (A) (A) (A) (A) (A) (A)
       Virtual   (A) (A) (A) (A) (A) (A) (A) (A) (A) (A) (A) (A)
                 (A) (A) (A) (A) (A) (A) (A) (A) (A) (A) (A) (A)
                 (A) (A) (A) (A) (A) (A) (A) (A) (A) (A) (A) (A)
                 (A) (A) (A) (A) (A) (A) (A) (A) (A) (A) (A) (A)
                 (A) (A) (A) (A) (A) (A) (A) (A) (A) (A) (A) (A)
                 (A) (A) (A) (A) (A) (A) (A) (A) (A) (A) (A) (A)
                 (A) (A) (A) (A) (A) (A) (A) (A) (A) (A) (A) (A)
                 (A) (A) (A) (A) (A) (A) (A) (A) (A) (A) (A) (A)
                 (A) (A) (A) (A) (A) (A) (A) (A) (A) (A) (A) (A)
                 (A) (A) (A) (A) (A) (A) (A) (A) (A) (A) (A) (A)
                 (A) (A) (A) (A) (A) (A) (A) (A) (A) (A) (A) (A)
                 (A) (A) (A) (A) (A) (A) (A) (A) (A) (A) (A) (A)
                 (A) (A) (A) (A) (A) (A) (A) (A) (A) (A) (A) (A)
                 (A) (A) (A) (A) (A) (A) (A) (A) (A) (A) (A) (A)
                 (A) (A) (A) (A) (A) (A) (A) (A) (A) (A) (A) (A)
                 (A) (A) (A) (A) (A) (A) (A) (A) (A) (A) (A) (A)
                 (A) (A) (A)
 The electronic state is 2-A.
 Alpha  occ. eigenvalues --  -19.69356 -19.66574 -19.64302 -10.71693 -10.61380
 Alpha  occ. eigenvalues --  -10.58140 -10.57311 -10.54453  -1.26750  -1.17432
 Alpha  occ. eigenvalues --   -1.12172  -0.91270  -0.87855  -0.78867  -0.71413
 Alpha  occ. eigenvalues --   -0.65416  -0.61800  -0.59550  -0.57460  -0.54452
 Alpha  occ. eigenvalues --   -0.54158  -0.50197  -0.49266  -0.47544  -0.46075
 Alpha  occ. eigenvalues --   -0.42853  -0.42009  -0.40272  -0.39481  -0.37617
 Alpha  occ. eigenvalues --   -0.35609
 Alpha virt. eigenvalues --   -0.02277  -0.00428   0.00849   0.01471   0.01911
 Alpha virt. eigenvalues --    0.02702   0.03978   0.04906   0.05315   0.05858
 Alpha virt. eigenvalues --    0.06638   0.07373   0.08105   0.08908   0.10260
 Alpha virt. eigenvalues --    0.10927   0.11728   0.12220   0.12670   0.13002
 Alpha virt. eigenvalues --    0.13947   0.14459   0.14655   0.15342   0.15570
 Alpha virt. eigenvalues --    0.16184   0.17635   0.17989   0.19256   0.19845
 Alpha virt. eigenvalues --    0.20403   0.21560   0.21949   0.23523   0.24017
 Alpha virt. eigenvalues --    0.24546   0.26069   0.27571   0.28114   0.29358
 Alpha virt. eigenvalues --    0.30493   0.30607   0.30889   0.32634   0.33248
 Alpha virt. eigenvalues --    0.33578   0.35015   0.35091   0.37235   0.38470
 Alpha virt. eigenvalues --    0.40613   0.42355   0.44986   0.46392   0.49527
 Alpha virt. eigenvalues --    0.50071   0.52121   0.54922   0.56128   0.58050
 Alpha virt. eigenvalues --    0.61448   0.62174   0.63666   0.65403   0.66782
 Alpha virt. eigenvalues --    0.67364   0.68252   0.69133   0.71048   0.72705
 Alpha virt. eigenvalues --    0.73261   0.75040   0.75358   0.77882   0.79679
 Alpha virt. eigenvalues --    0.85587   0.88300   0.91532   0.95931   1.01145
 Alpha virt. eigenvalues --    1.04301   1.05692   1.07421   1.08116   1.11280
 Alpha virt. eigenvalues --    1.12973   1.14740   1.16914   1.18594   1.19625
 Alpha virt. eigenvalues --    1.21677   1.23904   1.26647   1.31363   1.33998
 Alpha virt. eigenvalues --    1.34407   1.34824   1.38243   1.40174   1.40954
 Alpha virt. eigenvalues --    1.43884   1.46974   1.49208   1.51058   1.52253
 Alpha virt. eigenvalues --    1.57421   1.59123   1.59741   1.61379   1.63914
 Alpha virt. eigenvalues --    1.65692   1.67054   1.69033   1.72462   1.73476
 Alpha virt. eigenvalues --    1.76430   1.81688   1.83989   1.84489   1.85701
 Alpha virt. eigenvalues --    1.92309   1.96789   1.99695   2.02242   2.04670
 Alpha virt. eigenvalues --    2.09614   2.11641   2.12617   2.21085   2.30866
 Alpha virt. eigenvalues --    2.34840   2.41319   2.47250   2.50660   2.53469
 Alpha virt. eigenvalues --    2.54869   2.57936   2.61174   2.62161   2.64246
 Alpha virt. eigenvalues --    2.64991   2.67732   2.71117   2.71439   2.72872
 Alpha virt. eigenvalues --    2.79048   2.82069   2.86078   2.86251   2.90659
 Alpha virt. eigenvalues --    2.93690   2.94241   2.97415   2.99897   3.03107
 Alpha virt. eigenvalues --    3.06685   3.10428   3.13858   3.17406   3.17447
 Alpha virt. eigenvalues --    3.23086   3.25346   3.30361   3.35665   3.38141
 Alpha virt. eigenvalues --    3.42885   3.54521   3.65332   3.72627   3.84300
 Alpha virt. eigenvalues --    3.85574   3.87293   3.90429   4.03850   4.14654
 Alpha virt. eigenvalues --    4.17524   4.27591   5.04755   5.10420   5.12859
 Alpha virt. eigenvalues --    5.16085   5.32112   5.44640   5.54911   5.72198
 Alpha virt. eigenvalues --    5.94232  23.62742  23.92899  23.94235  24.05565
 Alpha virt. eigenvalues --   25.14911  49.93006  49.99038  50.10934
  Beta  occ. eigenvalues --  -19.69351 -19.64999 -19.64292 -10.71700 -10.61379
  Beta  occ. eigenvalues --  -10.58138 -10.57223 -10.54453  -1.26732  -1.17399
  Beta  occ. eigenvalues --   -1.04429  -0.91059  -0.87644  -0.78818  -0.71340
  Beta  occ. eigenvalues --   -0.65389  -0.61608  -0.59503  -0.57417  -0.54358
  Beta  occ. eigenvalues --   -0.51114  -0.50157  -0.47516  -0.46110  -0.42839
  Beta  occ. eigenvalues --   -0.40648  -0.39579  -0.39155  -0.37225  -0.36693
  Beta virt. eigenvalues --   -0.07892  -0.02242  -0.00394   0.00990   0.01474
  Beta virt. eigenvalues --    0.02061   0.02832   0.04224   0.05157   0.05682
  Beta virt. eigenvalues --    0.05955   0.06733   0.07388   0.08242   0.09106
  Beta virt. eigenvalues --    0.10460   0.11089   0.11871   0.12351   0.12733
  Beta virt. eigenvalues --    0.13197   0.14120   0.14482   0.14755   0.15576
  Beta virt. eigenvalues --    0.15685   0.16319   0.17740   0.18098   0.19438
  Beta virt. eigenvalues --    0.19847   0.20363   0.21893   0.22226   0.23451
  Beta virt. eigenvalues --    0.24071   0.24731   0.26135   0.27520   0.27851
  Beta virt. eigenvalues --    0.29427   0.30258   0.30632   0.30853   0.32658
  Beta virt. eigenvalues --    0.33417   0.33707   0.35026   0.35128   0.37508
  Beta virt. eigenvalues --    0.38553   0.40579   0.42422   0.45051   0.46468
  Beta virt. eigenvalues --    0.49547   0.50082   0.52199   0.54995   0.56168
  Beta virt. eigenvalues --    0.58122   0.61601   0.62683   0.63826   0.65617
  Beta virt. eigenvalues --    0.66868   0.67342   0.68309   0.69365   0.71049
  Beta virt. eigenvalues --    0.72817   0.73296   0.75100   0.75491   0.77913
  Beta virt. eigenvalues --    0.79833   0.85831   0.88428   0.91672   0.95954
  Beta virt. eigenvalues --    1.01148   1.05142   1.07438   1.07764   1.09268
  Beta virt. eigenvalues --    1.11469   1.13955   1.14832   1.17099   1.18755
  Beta virt. eigenvalues --    1.19758   1.21757   1.23938   1.26953   1.32367
  Beta virt. eigenvalues --    1.34058   1.34599   1.34911   1.39118   1.40359
  Beta virt. eigenvalues --    1.41168   1.43975   1.48457   1.49554   1.51266
  Beta virt. eigenvalues --    1.52865   1.57479   1.59175   1.59756   1.61438
  Beta virt. eigenvalues --    1.63990   1.65996   1.67116   1.69051   1.72565
  Beta virt. eigenvalues --    1.73605   1.77062   1.81885   1.84045   1.84533
  Beta virt. eigenvalues --    1.85730   1.92391   1.96818   1.99745   2.02348
  Beta virt. eigenvalues --    2.04708   2.09662   2.12610   2.13104   2.21108
  Beta virt. eigenvalues --    2.30876   2.34852   2.41376   2.47420   2.50663
  Beta virt. eigenvalues --    2.53478   2.54910   2.57938   2.61196   2.62162
  Beta virt. eigenvalues --    2.64320   2.65027   2.67914   2.71160   2.71562
  Beta virt. eigenvalues --    2.72908   2.79240   2.82403   2.87153   2.90658
  Beta virt. eigenvalues --    2.91083   2.94074   2.97118   2.99517   3.01472
  Beta virt. eigenvalues --    3.03208   3.07583   3.10972   3.14144   3.19197
  Beta virt. eigenvalues --    3.19761   3.24297   3.25434   3.30383   3.35727
  Beta virt. eigenvalues --    3.38274   3.42900   3.54603   3.65390   3.72688
  Beta virt. eigenvalues --    3.84303   3.85579   3.90442   3.90978   4.03863
  Beta virt. eigenvalues --    4.14688   4.17668   4.27606   5.06310   5.12870
  Beta virt. eigenvalues --    5.16106   5.19674   5.32225   5.44662   5.57161
  Beta virt. eigenvalues --    5.72235   5.94247  23.62762  23.92902  23.94244
  Beta virt. eigenvalues --   24.05566  25.14983  49.92534  49.99037  50.10924
          Condensed to atoms (all electrons):
               1          2          3          4          5          6
     1  O    8.049109   0.270759   0.154877  -0.007212  -0.084149  -0.112898
     2  H    0.270759   0.461788  -0.039420  -0.000407   0.030976   0.015567
     3  C    0.154877  -0.039420  36.372093   0.810537 -13.091714 -16.403309
     4  H   -0.007212  -0.000407   0.810537   0.423881  -0.326054  -0.081639
     5  C   -0.084149   0.030976 -13.091714  -0.326054  19.426094  -2.211030
     6  C   -0.112898   0.015567 -16.403309  -0.081639  -2.211030  25.643546
     7  O    0.002400   0.008580   0.512757  -0.000191   0.390487  -0.564264
     8  O   -0.001660   0.000504   0.092048  -0.001920  -0.203535  -0.122902
     9  C    0.001145  -0.000574   0.021591   0.000396  -0.271434   0.126243
    10  C   -0.000569  -0.000303   0.071633   0.000848  -0.055259  -0.163152
    11  H    0.000040  -0.000018  -0.001786   0.000013   0.008269   0.012191
    12  H   -0.000282   0.000049  -0.024638  -0.000187  -0.032932   0.036153
    13  H   -0.000005  -0.000038   0.005775   0.000016   0.010537  -0.019145
    14  H   -0.000045   0.000035  -0.016199  -0.000062  -0.006896   0.031806
    15  H    0.000141  -0.000172   0.008274  -0.000034  -0.019864  -0.012376
               7          8          9         10         11         12
     1  O    0.002400  -0.001660   0.001145  -0.000569   0.000040  -0.000282
     2  H    0.008580   0.000504  -0.000574  -0.000303  -0.000018   0.000049
     3  C    0.512757   0.092048   0.021591   0.071633  -0.001786  -0.024638
     4  H   -0.000191  -0.001920   0.000396   0.000848   0.000013  -0.000187
     5  C    0.390487  -0.203535  -0.271434  -0.055259   0.008269  -0.032932
     6  C   -0.564264  -0.122902   0.126243  -0.163152   0.012191   0.036153
     7  O    8.080984  -0.127084   0.029380  -0.064534   0.001540  -0.021587
     8  O   -0.127084   8.288988   0.164865  -0.030761  -0.090759  -0.004074
     9  C    0.029380   0.164865   5.372859   0.052562   0.435324   0.404851
    10  C   -0.064534  -0.030761   0.052562   5.458607  -0.052653  -0.017363
    11  H    0.001540  -0.090759   0.435324  -0.052653   0.522047  -0.035432
    12  H   -0.021587  -0.004074   0.404851  -0.017363  -0.035432   0.508652
    13  H   -0.000296   0.017470  -0.042525   0.396125   0.000692  -0.004331
    14  H    0.000969  -0.007594  -0.034513   0.416320  -0.010450   0.004185
    15  H    0.004314  -0.017187  -0.000524   0.390486   0.009737  -0.010543
              13         14         15
     1  O   -0.000005  -0.000045   0.000141
     2  H   -0.000038   0.000035  -0.000172
     3  C    0.005775  -0.016199   0.008274
     4  H    0.000016  -0.000062  -0.000034
     5  C    0.010537  -0.006896  -0.019864
     6  C   -0.019145   0.031806  -0.012376
     7  O   -0.000296   0.000969   0.004314
     8  O    0.017470  -0.007594  -0.017187
     9  C   -0.042525  -0.034513  -0.000524
    10  C    0.396125   0.416320   0.390486
    11  H    0.000692  -0.010450   0.009737
    12  H   -0.004331   0.004185  -0.010543
    13  H    0.528952  -0.031728  -0.030388
    14  H   -0.031728   0.535203  -0.048633
    15  H   -0.030388  -0.048633   0.542730
          Atomic-Atomic Spin Densities.
               1          2          3          4          5          6
     1  O    0.990688   0.008456   0.124696   0.004579  -0.129238  -0.062455
     2  H    0.008456  -0.030972  -0.028267  -0.000584   0.009054   0.025134
     3  C    0.124696  -0.028267  -0.092979   0.021296   0.215424  -0.293732
     4  H    0.004579  -0.000584   0.021296   0.005673  -0.016679  -0.006253
     5  C   -0.129238   0.009054   0.215424  -0.016679   0.029850  -0.021122
     6  C   -0.062455   0.025134  -0.293732  -0.006253  -0.021122   0.404372
     7  O    0.003446  -0.000650   0.038014   0.000485  -0.002008  -0.049870
     8  O   -0.000216  -0.000048   0.005601  -0.000192  -0.010944   0.012334
     9  C    0.000664  -0.000404   0.012258   0.000111  -0.000354  -0.021044
    10  C    0.000427  -0.000328   0.014845   0.000153   0.006876  -0.022801
    11  H   -0.000003   0.000004   0.000040  -0.000002  -0.001700   0.001624
    12  H   -0.000152   0.000143  -0.004247  -0.000046  -0.001922   0.007873
    13  H    0.000028  -0.000054   0.001625   0.000012   0.001438  -0.004230
    14  H   -0.000053   0.000055  -0.002628  -0.000026  -0.001346   0.005043
    15  H    0.000015  -0.000012  -0.000326  -0.000001  -0.000862   0.001004
               7          8          9         10         11         12
     1  O    0.003446  -0.000216   0.000664   0.000427  -0.000003  -0.000152
     2  H   -0.000650  -0.000048  -0.000404  -0.000328   0.000004   0.000143
     3  C    0.038014   0.005601   0.012258   0.014845   0.000040  -0.004247
     4  H    0.000485  -0.000192   0.000111   0.000153  -0.000002  -0.000046
     5  C   -0.002008  -0.010944  -0.000354   0.006876  -0.001700  -0.001922
     6  C   -0.049870   0.012334  -0.021044  -0.022801   0.001624   0.007873
     7  O    0.013333  -0.000835  -0.000434   0.001141  -0.000142  -0.000125
     8  O   -0.000835  -0.003284   0.001488  -0.001979  -0.000021   0.000033
     9  C   -0.000434   0.001488   0.006559   0.002092   0.000179  -0.001016
    10  C    0.001141  -0.001979   0.002092   0.001546  -0.000323  -0.000908
    11  H   -0.000142  -0.000021   0.000179  -0.000323   0.000120   0.000204
    12  H   -0.000125   0.000033  -0.001016  -0.000908   0.000204   0.000409
    13  H    0.000006   0.000011   0.000454   0.000739  -0.000095  -0.000309
    14  H   -0.000068  -0.000014  -0.000356  -0.000981   0.000095   0.000191
    15  H   -0.000065   0.000079   0.000074   0.000046   0.000003   0.000015
              13         14         15
     1  O    0.000028  -0.000053   0.000015
     2  H   -0.000054   0.000055  -0.000012
     3  C    0.001625  -0.002628  -0.000326
     4  H    0.000012  -0.000026  -0.000001
     5  C    0.001438  -0.001346  -0.000862
     6  C   -0.004230   0.005043   0.001004
     7  O    0.000006  -0.000068  -0.000065
     8  O    0.000011  -0.000014   0.000079
     9  C    0.000454  -0.000356   0.000074
    10  C    0.000739  -0.000981   0.000046
    11  H   -0.000095   0.000095   0.000003
    12  H   -0.000309   0.000191   0.000015
    13  H    0.000789  -0.000426  -0.000004
    14  H   -0.000426   0.000468   0.000008
    15  H   -0.000004   0.000008  -0.000004
 Mulliken charges and spin densities:
               1          2
     1  O   -0.271651   0.940880
     2  H    0.252675  -0.018472
     3  C   -2.472520   0.011621
     4  H    0.182014   0.008526
     5  C    2.436504   0.076466
     6  C   -0.174790  -0.024123
     7  O   -0.253454   0.002228
     8  O    0.043599   0.002012
     9  C   -0.259645   0.000270
    10  C   -0.401987   0.000545
    11  H    0.201246  -0.000015
    12  H    0.197479   0.000144
    13  H    0.168888  -0.000016
    14  H    0.167601  -0.000037
    15  H    0.184040  -0.000029
 Sum of Mulliken charges =  -0.00000   1.00000
 Mulliken charges and spin densities with hydrogens summed into heavy atoms:
               1          2
     1  O   -0.018976   0.922407
     3  C   -2.290506   0.020147
     5  C    2.436504   0.076466
     6  C   -0.174790  -0.024123
     7  O   -0.253454   0.002228
     8  O    0.043599   0.002012
     9  C    0.139080   0.000399
    10  C    0.118543   0.000463
 APT charges:
               1
     1  O   -0.275215
     2  H    0.301957
     3  C   -0.188986
     4  H    0.244460
     5  C   -0.343462
     6  C    1.503404
     7  O   -0.796473
     8  O   -0.975609
     9  C    0.541961
    10  C   -0.041729
    11  H   -0.011793
    12  H   -0.011011
    13  H    0.011703
    14  H    0.011316
    15  H    0.029477
 Sum of APT charges =  -0.00000
 APT charges with hydrogens summed into heavy atoms:
               1
     1  O    0.026742
     3  C    0.055473
     5  C   -0.343462
     6  C    1.503404
     7  O   -0.796473
     8  O   -0.975609
     9  C    0.519157
    10  C    0.010768
 Electronic spatial extent (au):  <R**2>=           1335.8043
 Charge=              0.0000 electrons
 Dipole moment (field-independent basis, Debye):
    X=             -2.7026    Y=             -1.1177    Z=              0.0482  Tot=              2.9250
 Quadrupole moment (field-independent basis, Debye-Ang):
   XX=            -43.9244   YY=            -48.3745   ZZ=            -47.7703
   XY=             -4.3879   XZ=              1.1351   YZ=             -0.2192
 Traceless Quadrupole moment (field-independent basis, Debye-Ang):
   XX=              2.7653   YY=             -1.6847   ZZ=             -1.0806
   XY=             -4.3879   XZ=              1.1351   YZ=             -0.2192
 Octapole moment (field-independent basis, Debye-Ang**2):
  XXX=            -36.8915  YYY=              7.7106  ZZZ=             -3.6359  XYY=             11.9193
  XXY=            -17.9276  XXZ=             -0.8752  XZZ=             -3.9994  YZZ=              1.4212
  YYZ=              1.0351  XYZ=             -4.3787
 Hexadecapole moment (field-independent basis, Debye-Ang**3):
 XXXX=          -1388.3557 YYYY=           -244.4666 ZZZZ=           -114.6381 XXXY=            -67.6238
 XXXZ=             20.7328 YYYX=             19.6061 YYYZ=             -0.6058 ZZZX=              2.2679
 ZZZY=             -2.0009 XXYY=           -227.9059 XXZZ=           -254.5153 YYZZ=            -60.8768
 XXYZ=            -13.4074 YYXZ=              3.7608 ZZXY=              4.4278
 N-N= 3.467050077449D+02 E-N=-1.677912448750D+03  KE= 4.188688608284D+02
  Exact polarizability:  96.162  -3.603  65.916   3.346  -2.200  50.522
 Approx polarizability: 100.289  -7.062  82.694   6.516  -4.900  58.193
                          Isotropic Fermi Contact Couplings
        Atom                 a.u.       MegaHertz       Gauss      10(-4) cm-1
     1  O(17)              0.13004     -78.83014     -28.12856     -26.29491
     2  H(1)              -0.01522     -68.02875     -24.27435     -22.69195
     3  C(13)              0.01651      18.55678       6.62152       6.18988
     4  H(1)               0.00300      13.42070       4.78884       4.47666
     5  C(13)              0.01991      22.38755       7.98843       7.46768
     6  C(13)             -0.00500      -5.61778      -2.00456      -1.87389
     7  O(17)              0.00103      -0.62157      -0.22179      -0.20733
     8  O(17)              0.00562      -3.40754      -1.21590      -1.13663
     9  C(13)              0.00058       0.64708       0.23090       0.21584
    10  C(13)             -0.00001      -0.00622      -0.00222      -0.00207
    11  H(1)               0.00000       0.01704       0.00608       0.00569
    12  H(1)              -0.00000      -0.01736      -0.00619      -0.00579
    13  H(1)               0.00001       0.05977       0.02133       0.01994
    14  H(1)               0.00000       0.01805       0.00644       0.00602
    15  H(1)              -0.00000      -0.00989      -0.00353      -0.00330
 --------------------------------------------------------
       Center         ----  Spin Dipole Couplings  ----
                      3XX-RR        3YY-RR        3ZZ-RR
 --------------------------------------------------------
     1   Atom       -0.155132      1.961636     -1.806505
     2   Atom        0.096566      0.018564     -0.115130
     3   Atom        0.010654      0.016418     -0.027073
     4   Atom       -0.008460      0.016606     -0.008145
     5   Atom       -0.013068      0.076166     -0.063098
     6   Atom        0.007753     -0.001995     -0.005758
     7   Atom        0.010325     -0.005741     -0.004585
     8   Atom        0.005739     -0.003002     -0.002737
     9   Atom        0.002565     -0.001202     -0.001363
    10   Atom        0.001299     -0.000620     -0.000680
    11   Atom        0.001123     -0.000500     -0.000623
    12   Atom        0.001495     -0.000779     -0.000716
    13   Atom        0.000847     -0.000412     -0.000436
    14   Atom        0.001049     -0.000571     -0.000479
    15   Atom        0.001530     -0.000739     -0.000791
 --------------------------------------------------------
                        XY            XZ            YZ
 --------------------------------------------------------
     1   Atom        2.511386     -0.152577     -0.229279
     2   Atom       -0.093123      0.044106     -0.034356
     3   Atom       -0.000390      0.005346     -0.006575
     4   Atom       -0.001690      0.000284     -0.003959
     5   Atom        0.103364     -0.008569     -0.006704
     6   Atom        0.000843      0.001689     -0.000485
     7   Atom       -0.014242      0.004231     -0.001841
     8   Atom       -0.001788      0.001390     -0.000279
     9   Atom       -0.000151      0.000439     -0.000022
    10   Atom       -0.000070     -0.000293      0.000038
    11   Atom        0.000410      0.000321      0.000082
    12   Atom       -0.000081      0.000722     -0.000119
    13   Atom       -0.000080     -0.000098      0.000013
    14   Atom        0.000170     -0.000465     -0.000032
    15   Atom       -0.000368     -0.000512      0.000108
 --------------------------------------------------------


 ---------------------------------------------------------------------------------
              Anisotropic Spin Dipole Couplings in Principal Axis System
 ---------------------------------------------------------------------------------

       Atom             a.u.   MegaHertz   Gauss  10(-4) cm-1        Axes

              Baa    -1.8221   131.846    47.046    43.979  0.8231 -0.5347  0.1914
     1 O(17)  Bbb    -1.8204   131.720    47.001    43.937 -0.1323  0.1473  0.9802
              Bcc     3.6425  -263.566   -94.047   -87.916  0.5523  0.8321 -0.0505
 
              Baa    -0.1263   -67.363   -24.037   -22.470 -0.1324  0.1474  0.9802
     2 H(1)   Bbb    -0.0432   -23.047    -8.224    -7.688  0.5642  0.8242 -0.0477
              Bcc     0.1695    90.411    32.261    30.158  0.8149 -0.5467  0.1923
 
              Baa    -0.0287    -3.857    -1.376    -1.286 -0.1317  0.1417  0.9811
     3 C(13)  Bbb     0.0111     1.494     0.533     0.498  0.9747  0.1991  0.1021
              Bcc     0.0176     2.362     0.843     0.788 -0.1808  0.9697 -0.1643
 
              Baa    -0.0088    -4.677    -1.669    -1.560 -0.1053  0.1465  0.9836
     4 H(1)   Bbb    -0.0086    -4.573    -1.632    -1.526  0.9922  0.0814  0.0941
              Bcc     0.0173     9.250     3.301     3.086 -0.0663  0.9859 -0.1539
 
              Baa    -0.0817   -10.963    -3.912    -3.657  0.8253 -0.5324  0.1883
     5 C(13)  Bbb    -0.0629    -8.446    -3.014    -2.817 -0.1307  0.1444  0.9809
              Bcc     0.1446    19.410     6.926     6.474  0.5494  0.8341 -0.0496
 
              Baa    -0.0061    -0.812    -0.290    -0.271 -0.1289  0.1440  0.9811
     6 C(13)  Bbb    -0.0020    -0.264    -0.094    -0.088 -0.0590  0.9865 -0.1526
              Bcc     0.0080     1.076     0.384     0.359  0.9899  0.0776  0.1186
 
              Baa    -0.0141     1.020     0.364     0.340  0.5108  0.8575 -0.0612
     7 O(17)  Bbb    -0.0054     0.392     0.140     0.131 -0.1301  0.1475  0.9805
              Bcc     0.0195    -1.412    -0.504    -0.471  0.8498 -0.4929  0.1868
 
              Baa    -0.0034     0.243     0.087     0.081  0.1909  0.9815  0.0139
     8 O(17)  Bbb    -0.0030     0.214     0.076     0.071 -0.1545  0.0161  0.9879
              Bcc     0.0063    -0.457    -0.163    -0.152  0.9694 -0.1907  0.1547
 
              Baa    -0.0014    -0.189    -0.068    -0.063 -0.1087  0.0281  0.9937
     9 C(13)  Bbb    -0.0012    -0.162    -0.058    -0.054  0.0427  0.9988 -0.0236
              Bcc     0.0026     0.352     0.125     0.117  0.9932 -0.0399  0.1097
 
              Baa    -0.0007    -0.098    -0.035    -0.033  0.1303 -0.2476  0.9600
    10 C(13)  Bbb    -0.0006    -0.083    -0.029    -0.028  0.0722  0.9681  0.2399
              Bcc     0.0013     0.180     0.064     0.060  0.9888 -0.0380 -0.1441
 
              Baa    -0.0007    -0.363    -0.130    -0.121 -0.1526 -0.0978  0.9834
    11 H(1)   Bbb    -0.0006    -0.318    -0.114    -0.106 -0.2418  0.9685  0.0588
              Bcc     0.0013     0.682     0.243     0.227  0.9583  0.2288  0.1714
 
              Baa    -0.0010    -0.520    -0.185    -0.173 -0.2398  0.4322  0.8693
    12 H(1)   Bbb    -0.0007    -0.395    -0.141    -0.132  0.1628  0.9007 -0.4028
              Bcc     0.0017     0.915     0.326     0.305  0.9571 -0.0449  0.2864
 
              Baa    -0.0004    -0.237    -0.085    -0.079  0.0593 -0.2347  0.9703
    13 H(1)   Bbb    -0.0004    -0.222    -0.079    -0.074  0.0795  0.9700  0.2297
              Bcc     0.0009     0.459     0.164     0.153  0.9951 -0.0635 -0.0762
 
              Baa    -0.0006    -0.329    -0.117    -0.110  0.2827 -0.4458  0.8493
    14 H(1)   Bbb    -0.0006    -0.309    -0.110    -0.103  0.0371  0.8899  0.4547
              Bcc     0.0012     0.638     0.228     0.213  0.9585  0.0971 -0.2681
 
              Baa    -0.0009    -0.484    -0.173    -0.161  0.1606 -0.2613  0.9518
    15 H(1)   Bbb    -0.0008    -0.422    -0.151    -0.141  0.2011  0.9528  0.2276
              Bcc     0.0017     0.906     0.323     0.302  0.9663 -0.1549 -0.2055
 

 ---------------------------------------------------------------------------------

 Calling FoFJK, ICntrl=    100127 FMM=F ISym2X=0 I1Cent= 0 IOpClX= 1 NMat=1 NMatS=1 NMatT=0.
 Full mass-weighted force constant matrix:
 Low frequencies ---  -64.4537  -49.5570   -5.3764   -0.0010   -0.0002    0.0004
 Low frequencies ---    7.1078   23.5649   79.3107
 ******    2 imaginary frequencies (negative Signs) ****** 
 Diagonal vibrational polarizability:
       41.5610565      25.4774738      77.1221161
 Harmonic frequencies (cm**-1), IR intensities (KM/Mole), Raman scattering
 activities (A**4/AMU), depolarization ratios for plane and unpolarized
 incident light, reduced masses (AMU), force constants (mDyne/A),
 and normal coordinates:
                      1                      2                      3
                      A                      A                      A
 Frequencies --    -45.2600               -35.8507                78.5192
 Red. masses --      6.9463                 6.6869                 3.8671
 Frc consts  --      0.0084                 0.0051                 0.0140
 IR Inten    --      1.0673                 1.0362                 2.7667
  Atom  AN      X      Y      Z        X      Y      Z        X      Y      Z
     1   8     0.42  -0.22  -0.14     0.18  -0.03   0.37     0.05   0.01  -0.03
     2   1     0.52  -0.01  -0.01     0.27   0.03   0.11     0.03   0.02   0.06
     3   6    -0.07   0.12   0.11     0.00   0.06  -0.20     0.07  -0.01  -0.22
     4   1    -0.10   0.05   0.16    -0.00   0.03  -0.24     0.10  -0.02  -0.41
     5   6    -0.04   0.18   0.07     0.00   0.07  -0.16     0.03  -0.01  -0.00
     6   6    -0.07   0.11   0.03    -0.05   0.01  -0.12    -0.01  -0.02   0.14
     7   8    -0.16   0.11   0.06    -0.11  -0.02  -0.28    -0.05  -0.01   0.21
     8   8    -0.00   0.02  -0.03    -0.02  -0.04   0.11     0.01  -0.04   0.15
     9   6    -0.05  -0.07  -0.04    -0.07  -0.12   0.13     0.02  -0.09  -0.03
    10   6    -0.13  -0.18  -0.02     0.04   0.10   0.07    -0.10   0.15  -0.21
    11   1     0.03  -0.10  -0.10    -0.08  -0.20   0.34     0.05  -0.15   0.06
    12   1    -0.08  -0.01   0.00    -0.17  -0.26  -0.01     0.08  -0.23  -0.16
    13   1    -0.16  -0.25  -0.02     0.01   0.03   0.09    -0.10   0.08  -0.38
    14   1    -0.10  -0.23  -0.06     0.14   0.24   0.21    -0.16   0.31  -0.07
    15   1    -0.20  -0.15   0.04     0.04   0.17  -0.15    -0.16   0.24  -0.32
                      4                      5                      6
                      A                      A                      A
 Frequencies --    116.1873               170.4067               227.7508
 Red. masses --      3.4698                 3.6285                 1.6336
 Frc consts  --      0.0276                 0.0621                 0.0499
 IR Inten    --      1.9503                 4.5131                 2.1647
  Atom  AN      X      Y      Z        X      Y      Z        X      Y      Z
     1   8     0.02   0.01  -0.01     0.19   0.16   0.00    -0.08  -0.11   0.01
     2   1     0.01   0.05   0.14     0.13   0.06  -0.02    -0.02  -0.02  -0.00
     3   6    -0.03   0.06   0.08     0.06   0.12   0.00     0.04   0.09  -0.02
     4   1    -0.03   0.10   0.15     0.13   0.29   0.00     0.03   0.07  -0.05
     5   6    -0.03   0.01  -0.01    -0.04  -0.14   0.00     0.02   0.07   0.02
     6   6    -0.06  -0.04  -0.02    -0.05  -0.16   0.00    -0.01   0.01   0.01
     7   8    -0.12  -0.02   0.15     0.03  -0.15   0.01    -0.07   0.01  -0.01
     8   8    -0.01  -0.10  -0.20    -0.13  -0.06  -0.02     0.03  -0.03   0.02
     9   6    -0.03  -0.07  -0.01    -0.05   0.13  -0.02     0.04  -0.01  -0.01
    10   6     0.25   0.14   0.00    -0.04   0.04   0.03     0.06   0.00  -0.01
    11   1    -0.14  -0.09   0.23    -0.13   0.26  -0.17     0.02   0.01  -0.02
    12   1    -0.17  -0.19  -0.15     0.10   0.22   0.08     0.08  -0.01   0.01
    13   1     0.19   0.08   0.17     0.11   0.39  -0.05     0.29   0.52  -0.16
    14   1     0.45   0.28   0.15    -0.39  -0.09  -0.13    -0.46  -0.09  -0.14
    15   1     0.30   0.21  -0.29     0.16  -0.22   0.28     0.37  -0.34   0.26
                      7                      8                      9
                      A                      A                      A
 Frequencies --    246.3933               265.3148               270.5849
 Red. masses --      3.3928                 1.4191                 2.0699
 Frc consts  --      0.1214                 0.0589                 0.0893
 IR Inten    --      1.2833                90.7084                27.9580
  Atom  AN      X      Y      Z        X      Y      Z        X      Y      Z
     1   8    -0.10  -0.20   0.01     0.01  -0.00  -0.04     0.01  -0.00  -0.03
     2   1    -0.04  -0.09   0.07    -0.12   0.15   0.91    -0.10   0.13   0.81
     3   6     0.16   0.31  -0.00    -0.00  -0.01   0.07     0.00  -0.00  -0.11
     4   1     0.21   0.44   0.03    -0.03   0.00   0.22     0.04  -0.03  -0.37
     5   6     0.02  -0.04  -0.03     0.03  -0.02  -0.14    -0.05   0.03   0.24
     6   6     0.00  -0.05  -0.01     0.02  -0.00  -0.05    -0.02   0.00   0.06
     7   8     0.07  -0.05   0.01     0.01   0.01   0.01     0.00  -0.02  -0.09
     8   8    -0.04   0.01  -0.01     0.01   0.00   0.03    -0.02  -0.00  -0.02
     9   6    -0.02   0.06  -0.00    -0.00  -0.02   0.04     0.00   0.03  -0.04
    10   6    -0.06   0.01   0.01    -0.05   0.02  -0.00     0.06  -0.03   0.01
    11   1    -0.03   0.08  -0.05     0.01  -0.04   0.05    -0.01   0.05  -0.07
    12   1     0.01   0.09   0.03    -0.02  -0.04   0.02     0.03   0.05  -0.01
    13   1    -0.24  -0.38   0.12    -0.00   0.08  -0.09     0.01  -0.09   0.12
    14   1     0.33   0.06   0.09    -0.16   0.04   0.00     0.19  -0.05  -0.01
    15   1    -0.31   0.27  -0.16    -0.02  -0.01   0.04     0.03   0.01  -0.04
                     10                     11                     12
                      A                      A                      A
 Frequencies --    339.1324               423.6385               559.6840
 Red. masses --      2.9433                 4.0118                 4.3703
 Frc consts  --      0.1994                 0.4242                 0.8066
 IR Inten    --     15.2298                 1.9545                 1.1138
  Atom  AN      X      Y      Z        X      Y      Z        X      Y      Z
     1   8     0.01  -0.00   0.00     0.02   0.01  -0.00    -0.02  -0.01  -0.00
     2   1    -0.02  -0.06  -0.01    -0.02  -0.04   0.04     0.06   0.11  -0.00
     3   6     0.02   0.05  -0.03    -0.11   0.09  -0.00     0.19  -0.12   0.05
     4   1     0.05   0.10  -0.11    -0.09   0.19   0.09     0.14  -0.26   0.08
     5   6    -0.05  -0.06   0.09    -0.16  -0.10  -0.13     0.29   0.16  -0.01
     6   6     0.02   0.05  -0.01    -0.06   0.05   0.05     0.00  -0.04   0.04
     7   8     0.21   0.05   0.02     0.11   0.05   0.02    -0.02  -0.05   0.00
     8   8    -0.01   0.08  -0.12    -0.07   0.08   0.23    -0.15   0.09   0.05
     9   6    -0.16  -0.17   0.06    -0.02  -0.06  -0.15    -0.26   0.03  -0.14
    10   6    -0.07   0.00   0.02     0.19  -0.11  -0.09     0.00  -0.02  -0.01
    11   1    -0.08  -0.35   0.34     0.04  -0.11  -0.15    -0.18  -0.08  -0.02
    12   1    -0.45  -0.31  -0.12     0.07  -0.10  -0.17    -0.30  -0.05  -0.21
    13   1     0.07   0.29  -0.09     0.18   0.02   0.30    -0.01   0.17   0.44
    14   1    -0.34   0.07   0.06     0.40  -0.22  -0.16     0.23  -0.14  -0.10
    15   1     0.14  -0.15   0.01     0.41  -0.25  -0.17     0.27  -0.19  -0.11
                     13                     14                     15
                      A                      A                      A
 Frequencies --    596.7985               626.7301               762.2647
 Red. masses --      1.1128                 5.3246                 1.2053
 Frc consts  --      0.2335                 1.2322                 0.4126
 IR Inten    --    159.0306                46.9482                45.3235
  Atom  AN      X      Y      Z        X      Y      Z        X      Y      Z
     1   8    -0.04  -0.02  -0.00     0.01   0.01  -0.00    -0.00  -0.01   0.00
     2   1     0.52   0.85  -0.07    -0.31  -0.49   0.04    -0.01  -0.03   0.00
     3   6    -0.03  -0.00  -0.00    -0.18   0.06  -0.03    -0.05  -0.11   0.02
     4   1    -0.04  -0.01  -0.00    -0.33  -0.26  -0.01     0.40   0.90  -0.12
     5   6    -0.01   0.03  -0.01     0.01   0.42  -0.05     0.02   0.05  -0.01
     6   6    -0.00  -0.02   0.00    -0.08  -0.09  -0.01    -0.01   0.00  -0.00
     7   8     0.05  -0.02   0.01     0.27  -0.08   0.05     0.01   0.00   0.00
     8   8    -0.01  -0.02  -0.00    -0.06  -0.19   0.01    -0.00  -0.01   0.00
     9   6     0.01  -0.00   0.01     0.00  -0.02   0.02    -0.00  -0.00   0.00
    10   6    -0.00   0.00   0.00    -0.00   0.01   0.01     0.00  -0.00   0.00
    11   1    -0.01   0.02  -0.01    -0.11   0.15  -0.16    -0.00   0.01  -0.02
    12   1     0.03   0.01   0.02     0.20   0.08   0.13     0.01   0.01   0.01
    13   1    -0.00  -0.01  -0.01    -0.01  -0.02  -0.05     0.00   0.00  -0.00
    14   1    -0.00   0.01   0.01    -0.01   0.07   0.06    -0.00   0.01   0.01
    15   1    -0.01   0.01  -0.00    -0.03   0.05  -0.04     0.00   0.00  -0.01
                     16                     17                     18
                      A                      A                      A
 Frequencies --    781.1140               788.0983               801.6440
 Red. masses --      2.9467                 1.7920                 1.2307
 Frc consts  --      1.0593                 0.6557                 0.4660
 IR Inten    --      0.6029                59.6443                 5.3151
  Atom  AN      X      Y      Z        X      Y      Z        X      Y      Z
     1   8     0.00   0.00  -0.00     0.00  -0.00  -0.00     0.00  -0.00   0.00
     2   1    -0.00   0.00   0.02    -0.00  -0.00   0.02    -0.00  -0.01  -0.00
     3   6    -0.03   0.03   0.15     0.01  -0.02  -0.12    -0.03   0.01  -0.00
     4   1     0.09  -0.16  -0.86    -0.11   0.18   0.92    -0.02   0.01  -0.06
     5   6     0.02  -0.02  -0.17     0.00   0.01  -0.03    -0.01   0.04   0.01
     6   6    -0.04   0.04   0.31    -0.03   0.02   0.21     0.01  -0.04  -0.05
     7   8     0.01  -0.02  -0.09     0.01  -0.02  -0.06    -0.00  -0.04   0.02
     8   8     0.01  -0.01  -0.08     0.01  -0.00  -0.05    -0.00   0.03   0.02
     9   6     0.02   0.01   0.00     0.02   0.01  -0.00     0.05   0.06  -0.01
    10   6     0.01   0.01   0.01     0.01   0.00   0.00     0.02   0.03  -0.02
    11   1    -0.01  -0.02   0.12    -0.00  -0.02   0.11    -0.02  -0.10   0.51
    12   1    -0.06  -0.05  -0.07    -0.05  -0.05  -0.07    -0.15  -0.31  -0.37
    13   1    -0.00  -0.05  -0.05    -0.01  -0.04  -0.03    -0.06  -0.18  -0.00
    14   1    -0.04  -0.04  -0.04    -0.02  -0.05  -0.05     0.02  -0.32  -0.33
    15   1    -0.07   0.03   0.10    -0.06   0.02   0.09    -0.18   0.01   0.42
                     19                     20                     21
                      A                      A                      A
 Frequencies --    896.5159               932.7812              1076.4230
 Red. masses --      3.0905                 2.9361                 4.1662
 Frc consts  --      1.4635                 1.5052                 2.8442
 IR Inten    --     11.8961                 4.4699                24.4932
  Atom  AN      X      Y      Z        X      Y      Z        X      Y      Z
     1   8    -0.00  -0.00   0.00     0.00  -0.00   0.00    -0.00   0.00  -0.00
     2   1    -0.01  -0.01   0.00    -0.01  -0.01   0.00     0.00   0.00  -0.00
     3   6    -0.03   0.01  -0.01    -0.12   0.05  -0.02     0.07  -0.03   0.01
     4   1    -0.04  -0.02  -0.01    -0.12   0.06  -0.03     0.07  -0.05   0.02
     5   6     0.01   0.07  -0.01    -0.06   0.05  -0.02     0.04   0.00   0.01
     6   6    -0.01  -0.10   0.00     0.12  -0.09   0.03    -0.14   0.01  -0.03
     7   8    -0.03  -0.14   0.02    -0.05  -0.15   0.01     0.02   0.02   0.00
     8   8    -0.08   0.25  -0.02     0.17   0.10  -0.01    -0.20   0.09  -0.05
     9   6     0.08  -0.01   0.11    -0.00  -0.00  -0.10     0.30  -0.20  -0.13
    10   6     0.11  -0.12  -0.06    -0.14   0.05   0.08    -0.07   0.09   0.17
    11   1     0.18  -0.06   0.03     0.35  -0.25  -0.17     0.31  -0.17  -0.25
    12   1    -0.22   0.20   0.25    -0.05  -0.01  -0.11     0.39  -0.29  -0.21
    13   1     0.21  -0.14  -0.61    -0.12   0.34   0.58    -0.08   0.11   0.28
    14   1    -0.18   0.22   0.21     0.15   0.08   0.13    -0.04   0.13   0.22
    15   1    -0.00   0.06  -0.30     0.22  -0.13  -0.15    -0.09   0.07   0.29
                     22                     23                     24
                      A                      A                      A
 Frequencies --   1128.3740              1204.3228              1306.5003
 Red. masses --      2.0779                 1.7688                 2.8247
 Frc consts  --      1.5588                 1.5115                 2.8408
 IR Inten    --     23.0457                 3.2362               556.5250
  Atom  AN      X      Y      Z        X      Y      Z        X      Y      Z
     1   8    -0.00   0.00  -0.00    -0.00   0.00  -0.00     0.00   0.00   0.00
     2   1    -0.00  -0.00   0.00     0.00   0.00  -0.00    -0.02  -0.03   0.00
     3   6     0.01  -0.01   0.00     0.02  -0.01   0.00    -0.07   0.03  -0.01
     4   1     0.02  -0.01   0.00     0.02  -0.01   0.00    -0.07   0.05  -0.02
     5   6     0.01   0.00   0.00     0.00  -0.01   0.00    -0.01   0.01  -0.00
     6   6    -0.03   0.01   0.00    -0.06   0.01  -0.01     0.34   0.03   0.04
     7   8     0.00   0.00  -0.00     0.01   0.04  -0.00    -0.04   0.00  -0.00
     8   8    -0.05   0.01  -0.05    -0.02  -0.07   0.01    -0.15  -0.01  -0.01
     9   6     0.09  -0.00   0.21     0.09   0.16  -0.03     0.07  -0.05  -0.03
    10   6    -0.09   0.01  -0.17    -0.07  -0.12   0.03    -0.03  -0.05   0.00
    11   1     0.08   0.05   0.12     0.24  -0.13   0.41    -0.69   0.43   0.21
    12   1     0.18  -0.04   0.20    -0.28  -0.11  -0.33     0.11  -0.15  -0.13
    13   1    -0.12   0.18   0.45     0.10   0.27  -0.03     0.02   0.11   0.05
    14   1     0.41  -0.22  -0.32     0.03   0.24   0.35     0.02   0.15   0.20
    15   1     0.33  -0.31  -0.17     0.13  -0.08  -0.45     0.01  -0.04  -0.09
                     25                     26                     27
                      A                      A                      A
 Frequencies --   1350.8785              1403.5100              1432.4457
 Red. masses --      1.3381                 1.3080                 1.4079
 Frc consts  --      1.4387                 1.5180                 1.7021
 IR Inten    --    179.1537                48.6382                15.8766
  Atom  AN      X      Y      Z        X      Y      Z        X      Y      Z
     1   8    -0.00  -0.00  -0.00    -0.00  -0.00  -0.00     0.00  -0.00   0.00
     2   1     0.01   0.01  -0.00     0.00   0.00  -0.00    -0.00  -0.00  -0.00
     3   6     0.02  -0.01   0.00     0.01  -0.01   0.00    -0.01   0.01  -0.00
     4   1     0.02  -0.01   0.00     0.01  -0.01   0.00    -0.01   0.01  -0.00
     5   6     0.00  -0.00   0.00     0.00  -0.00   0.00    -0.00   0.00   0.00
     6   6    -0.10  -0.02  -0.01    -0.07   0.00  -0.01     0.07  -0.00   0.01
     7   8     0.01  -0.02   0.00     0.01  -0.02   0.00    -0.01   0.01  -0.00
     8   8     0.08   0.07  -0.01     0.05   0.02   0.01    -0.05  -0.01  -0.02
     9   6    -0.04   0.01   0.01     0.03  -0.02  -0.03    -0.08   0.06   0.08
    10   6    -0.02  -0.05   0.03     0.03  -0.05  -0.11     0.07  -0.05  -0.06
    11   1    -0.42   0.25   0.14    -0.30   0.15   0.20     0.45  -0.22  -0.26
    12   1     0.69  -0.37  -0.21    -0.18   0.20   0.16     0.37  -0.34  -0.22
    13   1     0.03   0.03  -0.08    -0.02   0.16   0.51     0.03   0.05   0.32
    14   1    -0.03   0.03   0.09    -0.15   0.36   0.27    -0.29   0.19   0.13
    15   1     0.05  -0.02  -0.20    -0.29   0.03   0.35    -0.27   0.14   0.13
                     28                     29                     30
                      A                      A                      A
 Frequencies --   1492.8283              1503.5472              1515.7410
 Red. masses --      1.0413                 1.0627                 1.0875
 Frc consts  --      1.3672                 1.4154                 1.4721
 IR Inten    --     10.2054                 3.0957                20.9363
  Atom  AN      X      Y      Z        X      Y      Z        X      Y      Z
     1   8    -0.00  -0.00   0.00     0.00  -0.00   0.00     0.00  -0.00  -0.00
     2   1     0.00   0.00  -0.00    -0.00  -0.00  -0.00    -0.00  -0.00   0.00
     3   6     0.00  -0.00   0.00    -0.00   0.00  -0.00    -0.00   0.00  -0.00
     4   1     0.00   0.00   0.00    -0.00   0.00  -0.00    -0.01   0.00  -0.00
     5   6    -0.00  -0.00  -0.00     0.00   0.00   0.00     0.00   0.00   0.00
     6   6    -0.00   0.01  -0.00     0.02  -0.01   0.00     0.02  -0.01   0.00
     7   8    -0.00  -0.01   0.00    -0.00   0.01  -0.00    -0.00   0.01  -0.00
     8   8     0.01   0.00  -0.00    -0.02  -0.00  -0.01    -0.02  -0.00  -0.01
     9   6    -0.02  -0.01   0.02    -0.01  -0.02  -0.05    -0.05   0.01  -0.05
    10   6    -0.03  -0.04  -0.00     0.02  -0.02   0.03    -0.02   0.01  -0.02
    11   1     0.02   0.01  -0.14     0.05  -0.25   0.43     0.15  -0.30   0.36
    12   1    -0.01  -0.06  -0.03     0.30   0.29   0.29     0.39   0.19   0.19
    13   1     0.26   0.53  -0.28     0.09   0.26   0.14    -0.05  -0.19  -0.22
    14   1     0.58  -0.05   0.03    -0.15  -0.26  -0.23     0.25   0.26   0.24
    15   1    -0.35   0.13   0.26    -0.24   0.31  -0.30     0.19  -0.30   0.36
                     31                     32                     33
                      A                      A                      A
 Frequencies --   1817.2521              2249.1144              3075.6262
 Red. masses --     11.8417                 5.8241                 1.0354
 Frc consts  --     23.0406                17.3580                 5.7708
 IR Inten    --    290.8081                83.8492                 9.3703
  Atom  AN      X      Y      Z        X      Y      Z        X      Y      Z
     1   8    -0.00   0.00  -0.00    -0.00  -0.00   0.00     0.00  -0.00  -0.00
     2   1     0.00  -0.03   0.00    -0.00  -0.00   0.00     0.00   0.00  -0.00
     3   6     0.06  -0.02   0.01    -0.34   0.14  -0.07     0.00  -0.00   0.00
     4   1     0.10  -0.01   0.01    -0.69   0.27  -0.13    -0.00   0.00  -0.00
     5   6    -0.04  -0.00  -0.01     0.48  -0.20   0.09    -0.00   0.00  -0.00
     6   6    -0.01   0.77  -0.12    -0.08   0.06  -0.02     0.00   0.00   0.00
     7   8     0.02  -0.50   0.08     0.00  -0.01   0.00     0.00  -0.00  -0.00
     8   8    -0.04  -0.07   0.00    -0.00  -0.00  -0.00    -0.00  -0.00  -0.00
     9   6    -0.03   0.03  -0.01     0.00   0.00  -0.00     0.00   0.00  -0.00
    10   6     0.01  -0.00   0.01    -0.00   0.00   0.00    -0.02   0.02   0.04
    11   1     0.15  -0.15   0.10     0.01   0.00   0.00     0.00   0.01   0.00
    12   1     0.17   0.05   0.02    -0.00   0.00   0.00    -0.00  -0.02   0.02
    13   1    -0.01  -0.06  -0.05     0.00  -0.00   0.00     0.56  -0.22   0.12
    14   1    -0.04   0.00   0.00    -0.00  -0.00  -0.00     0.04   0.41  -0.43
    15   1     0.05  -0.01  -0.05     0.00  -0.00  -0.00    -0.31  -0.39  -0.14
                     34                     35                     36
                      A                      A                      A
 Frequencies --   3108.9059              3151.0811              3155.6551
 Red. masses --      1.0607                 1.1014                 1.1049
 Frc consts  --      6.0405                 6.4432                 6.4827
 IR Inten    --     17.1338                14.0747                 1.5460
  Atom  AN      X      Y      Z        X      Y      Z        X      Y      Z
     1   8    -0.00  -0.00   0.00    -0.00  -0.00   0.00    -0.00   0.00  -0.00
     2   1     0.00   0.00  -0.00     0.00   0.00  -0.00     0.00   0.00  -0.00
     3   6     0.00  -0.00   0.00     0.00  -0.00   0.00     0.00   0.00   0.00
     4   1    -0.00   0.00   0.00    -0.00   0.00  -0.00    -0.00   0.00   0.00
     5   6    -0.00   0.00  -0.00    -0.00   0.00  -0.00    -0.00  -0.00  -0.00
     6   6     0.00   0.00   0.00     0.00   0.00  -0.00    -0.00   0.00  -0.00
     7   8     0.00  -0.00   0.00    -0.00  -0.00   0.00    -0.00  -0.00   0.00
     8   8    -0.00   0.00  -0.00     0.00  -0.00   0.00     0.00  -0.00  -0.00
     9   6    -0.02   0.01  -0.06    -0.01  -0.02  -0.01     0.02   0.05  -0.01
    10   6     0.01  -0.01   0.01    -0.05   0.06  -0.05    -0.06  -0.04  -0.01
    11   1     0.32   0.42   0.16     0.16   0.21   0.09    -0.25  -0.33  -0.13
    12   1    -0.10  -0.55   0.59    -0.00   0.01  -0.01    -0.04  -0.24   0.27
    13   1    -0.12   0.05  -0.03     0.61  -0.24   0.11     0.35  -0.15   0.07
    14   1     0.01   0.05  -0.05    -0.06  -0.47   0.50     0.00   0.13  -0.14
    15   1    -0.01  -0.02  -0.00    -0.00   0.02  -0.01     0.41   0.53   0.20
                     37                     38                     39
                      A                      A                      A
 Frequencies --   3176.5283              3490.8585              3753.0978
 Red. masses --      1.1076                 1.1680                 1.0676
 Frc consts  --      6.5845                 8.3863                 8.8602
 IR Inten    --     14.0962                73.7578                26.9374
  Atom  AN      X      Y      Z        X      Y      Z        X      Y      Z
     1   8     0.00  -0.00   0.00    -0.00  -0.00   0.00    -0.05   0.03  -0.01
     2   1    -0.00   0.00  -0.00     0.00   0.00  -0.00     0.83  -0.52   0.19
     3   6     0.00  -0.00   0.00    -0.10   0.04  -0.02    -0.00  -0.00  -0.00
     4   1    -0.00   0.00  -0.00     0.90  -0.38   0.18     0.00  -0.00   0.00
     5   6    -0.00   0.00  -0.00     0.03  -0.01   0.01     0.00  -0.00   0.00
     6   6     0.00  -0.00   0.00    -0.00   0.00  -0.00     0.00  -0.00   0.00
     7   8    -0.00   0.00  -0.00     0.00   0.00  -0.00     0.00   0.00  -0.00
     8   8     0.00   0.00   0.00     0.00  -0.00   0.00     0.00   0.00  -0.00
     9   6    -0.04  -0.07   0.01    -0.00   0.00  -0.00    -0.00  -0.00   0.00
    10   6    -0.03  -0.05   0.01    -0.00  -0.00   0.00    -0.00  -0.00   0.00
    11   1     0.37   0.49   0.20     0.00   0.00   0.00     0.00   0.00  -0.00
    12   1     0.05   0.29  -0.33     0.00  -0.00  -0.00    -0.00   0.00  -0.00
    13   1     0.07  -0.04   0.02     0.00  -0.00  -0.00     0.00  -0.00   0.00
    14   1     0.02   0.24  -0.27    -0.00   0.00  -0.00     0.00   0.00  -0.00
    15   1     0.29   0.37   0.15    -0.00   0.00   0.00    -0.00   0.00   0.00

 -------------------
 - Thermochemistry -
 -------------------
 Temperature   298.150 Kelvin.  Pressure   1.00000 Atm.
 Atom     1 has atomic number  8 and mass  15.99491
 Atom     2 has atomic number  1 and mass   1.00783
 Atom     3 has atomic number  6 and mass  12.00000
 Atom     4 has atomic number  1 and mass   1.00783
 Atom     5 has atomic number  6 and mass  12.00000
 Atom     6 has atomic number  6 and mass  12.00000
 Atom     7 has atomic number  8 and mass  15.99491
 Atom     8 has atomic number  8 and mass  15.99491
 Atom     9 has atomic number  6 and mass  12.00000
 Atom    10 has atomic number  6 and mass  12.00000
 Atom    11 has atomic number  1 and mass   1.00783
 Atom    12 has atomic number  1 and mass   1.00783
 Atom    13 has atomic number  1 and mass   1.00783
 Atom    14 has atomic number  1 and mass   1.00783
 Atom    15 has atomic number  1 and mass   1.00783
 Molecular mass:   115.03952 amu.
 Principal axes and moments of inertia in atomic units:
                           1         2         3
     Eigenvalues --   362.979961909.177002118.11937
           X            0.99992  -0.01100  -0.00592
           Y            0.01107   0.99986   0.01291
           Z            0.00578  -0.01297   0.99990
 This molecule is an asymmetric top.
 Rotational symmetry number  1.
 Rotational temperatures (Kelvin)      0.23862     0.04537     0.04089
 Rotational constants (GHZ):           4.97201     0.94530     0.85205
    2 imaginary frequencies ignored.
 Zero-point vibrational energy     294737.4 (Joules/Mol)
                                   70.44393 (Kcal/Mol)
 Warning -- explicit consideration of  11 degrees of freedom as
           vibrations may cause significant error
 Vibrational temperatures:    112.97   167.17   245.18   327.68   354.51
          (Kelvin)            381.73   389.31   487.94   609.52   805.26
                              858.66   901.72  1096.73  1123.85  1133.90
                             1153.39  1289.89  1342.06  1548.73  1623.48
                             1732.75  1879.76  1943.61  2019.34  2060.97
                             2147.85  2163.27  2180.81  2614.62  3235.97
                             4425.14  4473.02  4533.70  4540.28  4570.32
                             5022.57  5399.87
 
 Zero-point correction=                           0.112260 (Hartree/Particle)
 Thermal correction to Energy=                    0.120819
 Thermal correction to Enthalpy=                  0.121763
 Thermal correction to Gibbs Free Energy=         0.078242
 Sum of electronic and zero-point Energies=           -420.098784
 Sum of electronic and thermal Energies=              -420.090225
 Sum of electronic and thermal Enthalpies=            -420.089281
 Sum of electronic and thermal Free Energies=         -420.132802
 
                     E (Thermal)             CV                S
                      KCal/Mol        Cal/Mol-Kelvin    Cal/Mol-Kelvin
 Total                   75.815             30.077             91.599
 Electronic               0.000              0.000              1.377
 Translational            0.889              2.981             40.136
 Rotational               0.889              2.981             28.775
 Vibrational             74.038             24.116             21.311
 Vibration     1          0.600              1.964              3.928
 Vibration     2          0.608              1.936              3.163
 Vibration     3          0.626              1.879              2.431
 Vibration     4          0.651              1.799              1.897
 Vibration     5          0.661              1.769              1.756
 Vibration     6          0.671              1.737              1.627
 Vibration     7          0.674              1.727              1.592
 Vibration     8          0.719              1.597              1.216
 Vibration     9          0.786              1.419              0.880
 Vibration    10          0.915              1.119              0.524
 Vibration    11          0.955              1.039              0.455
                       Q            Log10(Q)             Ln(Q)
 Total Bot       0.102651D-35        -35.988638        -82.866901
 Total V=0       0.443739D+16         15.647127         36.028842
 Vib (Bot)       0.244018D-49        -49.612578       -114.237182
 Vib (Bot)    1  0.262344D+01          0.418871          0.964485
 Vib (Bot)    2  0.176039D+01          0.245609          0.565536
 Vib (Bot)    3  0.118246D+01          0.072786          0.167597
 Vib (Bot)    4  0.865644D+00         -0.062661         -0.144281
 Vib (Bot)    5  0.793459D+00         -0.100476         -0.231353
 Vib (Bot)    6  0.730150D+00         -0.136588         -0.314506
 Vib (Bot)    7  0.714022D+00         -0.146288         -0.336842
 Vib (Bot)    8  0.547829D+00         -0.261355         -0.601793
 Vib (Bot)    9  0.413323D+00         -0.383710         -0.883525
 Vib (Bot)   10  0.277782D+00         -0.556296         -1.280920
 Vib (Bot)   11  0.251024D+00         -0.600284         -1.382205
 Vib (V=0)       0.105484D+03          2.023187          4.658561
 Vib (V=0)    1  0.317066D+01          0.501150          1.153940
 Vib (V=0)    2  0.233002D+01          0.367360          0.845877
 Vib (V=0)    3  0.178383D+01          0.251353          0.578761
 Vib (V=0)    4  0.149967D+01          0.175996          0.405245
 Vib (V=0)    5  0.143786D+01          0.157716          0.363154
 Vib (V=0)    6  0.138494D+01          0.141431          0.325657
 Vib (V=0)    7  0.137168D+01          0.137253          0.316037
 Vib (V=0)    8  0.124170D+01          0.094016          0.216480
 Vib (V=0)    9  0.114872D+01          0.060214          0.138647
 Vib (V=0)   10  0.107198D+01          0.030187          0.069509
 Vib (V=0)   11  0.105948D+01          0.025091          0.057774
 Electronic      0.200000D+01          0.301030          0.693147
 Translational   0.484981D+08          7.685724         17.697035
 Rotational      0.433696D+06          5.637185         12.980099
 ***** Axes restored to original set *****
 -------------------------------------------------------------------
 Center     Atomic                   Forces (Hartrees/Bohr)
 Number     Number              X              Y              Z
 -------------------------------------------------------------------
      1        8           0.002662819    0.006902530   -0.000659618
      2        1           0.000110313    0.000066004   -0.000001810
      3        6          -0.002700704   -0.005640702    0.000464124
      4        1          -0.000104074   -0.000625976    0.000083176
      5        6          -0.000278289   -0.001000483    0.000119049
      6        6           0.000092737   -0.000042621    0.000013327
      7        8           0.000404994   -0.000054480    0.000057587
      8        8          -0.000092744    0.000185864   -0.000064104
      9        6          -0.000036276    0.000149094   -0.000030372
     10        6          -0.000036947    0.000031557    0.000017387
     11        1          -0.000003012    0.000010453   -0.000008738
     12        1          -0.000005608    0.000018056    0.000000421
     13        1          -0.000005297    0.000000939    0.000005280
     14        1          -0.000001145   -0.000003615   -0.000002521
     15        1          -0.000006766    0.000003379    0.000006813
 -------------------------------------------------------------------
 Cartesian Forces:  Max     0.006902530 RMS     0.001462662

 GradGradGradGradGradGradGradGradGradGradGradGradGradGradGradGradGradGrad
 Berny optimization.
 Search for a local minimum.
 Step number   1 out of a maximum of    2
 All quantities printed in internal units (Hartrees-Bohrs-Radians)
 Second derivative matrix not updated -- analytic derivatives used.
 ITU=  0
     Eigenvalues ---   -0.00074  -0.00052   0.00111   0.00182   0.00277
     Eigenvalues ---    0.00438   0.00719   0.01288   0.01400   0.02223
     Eigenvalues ---    0.02676   0.03219   0.03482   0.05562   0.06338
     Eigenvalues ---    0.07635   0.08160   0.08731   0.09450   0.10239
     Eigenvalues ---    0.11401   0.14174   0.17089   0.18150   0.20006
     Eigenvalues ---    0.28910   0.29805   0.43961   0.49322   0.62725
     Eigenvalues ---    0.71664   0.76604   0.79113   0.86585   0.91908
     Eigenvalues ---    0.93965   0.96140   1.68216   2.69376
 Eigenvalue     1 is  -7.40D-04 should be greater than     0.000000 Eigenvector:
                          Z1        X2        X1        Y14       Z4
   1                    0.44229  -0.34545  -0.32092   0.24102  -0.23232
                          Y1        Z7        Z3        Z11       Y13
   1                    0.20535  -0.20232  -0.19979   0.19579   0.16556
 Eigenvalue     2 is  -5.17D-04 should be greater than     0.000000 Eigenvector:
                          X2        X1        Z1        Z7        Z11
   1                    0.52246   0.37430   0.34272  -0.22595   0.19892
                          Y12       Y11       X12       X7        Y5
   1                   -0.19344  -0.18794  -0.18111  -0.17054   0.15630
 Quadratic step=2.236D+00 exceeds max=3.000D-01 adjusted using Lamda=-8.843D-03.
 Angle between NR and scaled steps=  54.36 degrees.
 Angle between quadratic step and forces=  30.09 degrees.
 Linear search not attempted -- first point.
 B after Tr=     0.003857    0.002565    0.000472
         Rot=    1.000000    0.000516   -0.000078   -0.000814 Ang=   0.11 deg.
 Variable       Old X    -DE/DX   Delta X   Delta X   Delta X     New X
                                 (Linear)    (Quad)   (Total)
    X1        6.44851   0.00266   0.00000   0.03152   0.03234   6.48085
    Y1        1.68657   0.00690   0.00000   0.19610   0.20940   1.89597
    Z1        0.20978  -0.00066   0.00000  -0.02254  -0.02503   0.18475
    X2        4.91516   0.00011   0.00000  -0.05622  -0.05679   4.85837
    Y2        2.64336   0.00007   0.00000   0.05641   0.06672   2.71008
    Z2       -0.14122  -0.00000   0.00000  -0.01764  -0.02072  -0.16194
    X3        4.39354  -0.00270   0.00000  -0.04574  -0.03792   4.35561
    Y3       -2.24128  -0.00564   0.00000  -0.14371  -0.13352  -2.37480
    Z3        0.51595   0.00046   0.00000   0.01255   0.01480   0.53075
    X4        6.21701  -0.00010   0.00000  -0.02794  -0.01888   6.19813
    Y4       -3.01449  -0.00063   0.00000  -0.10477  -0.09121  -3.10570
    Z4        0.87233   0.00008   0.00000   0.00871   0.01142   0.88376
    X5        2.30862  -0.00028   0.00000  -0.00888  -0.00257   2.30606
    Y5       -1.43794  -0.00100   0.00000  -0.06100  -0.05456  -1.49251
    Z5        0.12006   0.00012   0.00000   0.00660   0.00826   0.12832
    X6       -0.02010   0.00009   0.00000   0.01052   0.01448  -0.00562
    Y6       -0.07631  -0.00004   0.00000  -0.02556  -0.02341  -0.09972
    Z6       -0.39145   0.00001   0.00000   0.00594   0.00652  -0.38492
    X7       -0.05617   0.00040   0.00000   0.04117   0.04141  -0.01476
    Y7        2.17374  -0.00005   0.00000  -0.02352  -0.02172   2.15202
    Z7       -0.72763   0.00006   0.00000   0.01311   0.01137  -0.71626
    X8       -2.01487  -0.00009   0.00000  -0.00762  -0.00123  -2.01610
    Y8       -1.59428   0.00019   0.00000  -0.00066  -0.00185  -1.59612
    Z8       -0.44540  -0.00006   0.00000  -0.00276  -0.00032  -0.44573
    X9       -4.42680  -0.00004   0.00000   0.00075   0.00511  -4.42169
    Y9       -0.40708   0.00015   0.00000   0.01545   0.00986  -0.39722
    Z9       -0.91337  -0.00003   0.00000  -0.00324  -0.00167  -0.91504
   X10       -5.45033  -0.00004   0.00000   0.00049   0.00325  -5.44709
   Y10        0.80965   0.00003   0.00000   0.00992   0.00513   0.81478
   Z10        1.46891   0.00002   0.00000  -0.00062  -0.00014   1.46877
   X11       -5.62256  -0.00000   0.00000  -0.00496   0.00180  -5.62076
   Y11       -1.95153   0.00001   0.00000   0.02216   0.01396  -1.93758
   Z11       -1.55695  -0.00001   0.00000  -0.00975  -0.00640  -1.56335
   X12       -4.19895  -0.00001   0.00000   0.00943   0.01130  -4.18765
   Y12        0.96846   0.00002   0.00000   0.01841   0.01165   0.98011
   Z12       -2.43079   0.00000   0.00000   0.00092   0.00104  -2.42976
   X13       -7.33417  -0.00001   0.00000   0.00071   0.00218  -7.33199
   Y13        1.56539   0.00000   0.00000   0.01097   0.00273   1.56813
   Z13        1.10096   0.00001   0.00000   0.00039   0.00040   1.10136
   X14       -5.58923  -0.00000   0.00000  -0.00126   0.00400  -5.58523
   Y14       -0.58085  -0.00000   0.00000   0.00529   0.00183  -0.57902
   Z14        2.98451  -0.00000   0.00000  -0.00485  -0.00290   2.98160
   X15       -4.23655  -0.00001   0.00000   0.00118   0.00152  -4.23504
   Y15        2.35917   0.00000   0.00000   0.00717   0.00498   2.36415
   Z15        2.07662   0.00001   0.00000   0.00468   0.00338   2.07999
         Item               Value     Threshold  Converged?
 Maximum Force            0.006903     0.000450     NO 
 RMS     Force            0.001463     0.000300     NO 
 Maximum Displacement     0.209398     0.001800     NO 
 RMS     Displacement     0.044431     0.001200     NO 
 Predicted change in Energy=-1.682152D-03
 GradGradGradGradGradGradGradGradGradGradGradGradGradGradGradGradGradGrad


 ----------------------------------------------------------------------

 Electric dipole moment (input orientation):
 (Debye = 10**-18 statcoulomb cm , SI units = C m)
                  (au)            (Debye)         (10**-30 SI)
   Tot        0.115077D+01      0.292496D+01      0.975663D+01
   x         -0.106328D+01     -0.270258D+01     -0.901482D+01
   y         -0.439722D+00     -0.111766D+01     -0.372812D+01
   z          0.189805D-01      0.482435D-01      0.160923D+00

 Dipole polarizability, Alpha (input orientation).
 (esu units = cm**3 , SI units = C**2 m**2 J**-1)
 Alpha(0;0):
               (au)            (10**-24 esu)      (10**-40 SI)
   iso        0.708666D+02      0.105014D+02      0.116843D+02
   aniso      0.412846D+02      0.611775D+01      0.680691D+01
   xx         0.961616D+02      0.142497D+02      0.158549D+02
   yx        -0.360340D+01     -0.533969D+00     -0.594121D+00
   yy         0.659163D+02      0.976778D+01      0.108681D+02
   zx         0.334605D+01      0.495834D+00      0.551689D+00
   zy        -0.219969D+01     -0.325961D+00     -0.362680D+00
   zz         0.505221D+02      0.748660D+01      0.832997D+01

 ----------------------------------------------------------------------

 Dipole orientation:
     8          0.64065693         -0.71529612         -6.59922343
     1         -0.26152104          0.50252253         -5.55384283
     6          1.95873914         -3.24820260         -3.19456128
     1          2.84858673         -4.40751607         -4.57806507
     6          0.98006005         -1.98737638         -1.58165972
     6         -0.33839953         -0.20794316          0.04127908
     8         -1.43630528          1.60297568         -0.79071180
     8         -0.18044678         -0.83564112          2.46352151
     6         -1.41141580          0.83994705          4.23071124
     6          0.20322471          3.14770701          4.75078673
     1         -1.66110402         -0.31325564          5.91509371
     1         -3.25474809          1.35893858          3.46954578
     1         -0.70090328          4.30861241          6.19654988
     1          2.06431519          2.58430472          5.43545352
     1          0.42090167          4.28528223          3.04722968

 Electric dipole moment (dipole orientation):
 (Debye = 10**-18 statcoulomb cm , SI units = C m)
                  (au)            (Debye)         (10**-30 SI)
   Tot        0.115077D+01      0.292496D+01      0.975663D+01
   x          0.000000D+00      0.000000D+00      0.000000D+00
   y          0.000000D+00      0.000000D+00      0.000000D+00
   z          0.115077D+01      0.292496D+01      0.975663D+01

 Dipole polarizability, Alpha (dipole orientation).
 (esu units = cm**3 , SI units = C**2 m**2 J**-1)
 Alpha(0;0):
               (au)            (10**-24 esu)      (10**-40 SI)
   iso        0.708666D+02      0.105014D+02      0.116843D+02
   aniso      0.412846D+02      0.611775D+01      0.680691D+01
   xx         0.563524D+02      0.835057D+01      0.929126D+01
   yx        -0.103638D+02     -0.153575D+01     -0.170876D+01
   yy         0.671331D+02      0.994811D+01      0.110688D+02
   zx        -0.770411D+01     -0.114163D+01     -0.127024D+01
   zy         0.110719D+02      0.164069D+01      0.182551D+01
   zz         0.891144D+02      0.132054D+02      0.146930D+02

 ----------------------------------------------------------------------
 1\1\GINC-AJ\Freq\UM062X\6-311++G(d,p)\C5H7O3(2)\AAYUSH\23-Jun-2025\0\\
 # freq 6-311++g(d,p) m062x\\Title Card Required\\0,2\O,3.412406,0.8924
 94,0.11101\H,2.60099,1.398807,-0.074731\C,2.324959,-1.186035,0.273028\
 H,3.2899,-1.595199,0.461619\C,1.22167,-0.760927,0.063532\C,-0.010639,-
 0.040382,-0.207145\O,-0.029724,1.150292,-0.385044\O,-1.066223,-0.84365
 4,-0.235697\C,-2.342562,-0.215417,-0.483335\C,-2.884191,0.42845,0.7773
 12\H,-2.97533,-1.032707,-0.8239\H,-2.221988,0.512487,-1.286321\H,-3.88
 1076,0.828371,0.582604\H,-2.957694,-0.307375,1.579333\H,-2.241888,1.24
 8419,1.098898\\Version=ES64L-G16RevA.03\State=2-A\HF=-420.2110436\S2=0
 .755993\S2-1=0.\S2A=0.750026\RMSD=2.824e-09\RMSF=1.463e-03\ZeroPoint=0
 .1122596\Thermal=0.1208189\Dipole=-1.0632752,-0.4397223,0.0189805\Dipo
 leDeriv=-0.2234899,0.0636681,0.0148016,-0.062091,-0.2182494,-0.0326643
 ,0.0325311,-0.0169325,-0.3839042,0.2513172,0.0808252,-0.0271482,0.1652
 554,0.3246293,0.0205234,-0.0374737,0.0117144,0.3299238,-0.3207557,-0.1
 582367,0.0013911,-0.0084163,-0.1669346,0.0081044,-0.0297694,-0.0078783
 ,-0.0792692,0.2904494,-0.0253424,0.0131057,-0.0144407,0.2422323,-0.007
 6562,0.0151575,-0.0100916,0.2006978,-0.5509107,0.2621343,-0.0782875,0.
 1228753,-0.3367322,0.0462048,-0.0774518,0.0668678,-0.142743,2.4913957,
 0.0380466,0.1606029,0.3460983,1.5731541,-0.1969856,0.1961075,-0.168111
 ,0.4456607,-0.8879931,0.0809437,-0.0457623,-0.0554576,-1.1177559,0.143
 0307,-0.037169,0.1310188,-0.383671,-1.9263082,-0.1933591,-0.0223771,-0
 .2999108,-0.6699793,0.0049127,-0.1286162,-0.0107295,-0.3305382,0.98511
 55,-0.0934079,-0.0180368,-0.2554308,0.3077084,0.0270633,0.0630064,0.06
 43407,0.3330601,-0.0809928,-0.0048241,0.0093558,0.04807,0.0083783,-0.0
 450445,0.0159673,-0.0878246,-0.0525716,-0.0485814,-0.0265579,-0.020461
 1,-0.057239,-0.0299863,-0.0753981,-0.0225565,-0.0451184,0.0431874,-0.0
 177469,-0.0215773,0.0623237,0.0653943,0.0205412,0.0666105,0.0033977,0.
 0325052,-0.0358275,-0.0937288,0.0660798,-0.0179484,0.075446,0.0737412,
 -0.0003194,-0.0193892,0.0156119,0.055098,0.0871077,0.0135906,0.0034594
 ,-0.0095284,-0.0181665,0.0884814,0.0346814,0.0452922,-0.0349939,0.0451
 22,-0.0819827,-0.0350189,-0.0606249,0.0074195,-0.0468631,-0.008423,-0.
 020665,0.0358907\Polar=96.1615763,-3.6034006,65.9162518,3.3460512,-2.1
 996916,50.5221013\Quadrupole=2.055945,-1.2525592,-0.8033858,-3.2622813
 ,0.8439448,-0.1630062\PG=C01 [X(C5H7O3)]\NImag=2\\0.36340440,-0.208774
 51,0.15246020,0.08040186,-0.05120627,0.01850407,-0.35573733,0.21812962
 ,-0.08049367,0.35466121,0.21265738,-0.14015885,0.04962500,-0.21249869,
 0.14543470,-0.07966333,0.05036008,-0.02017032,0.07937543,-0.05025967,0
 .02087821,0.00137579,0.00328515,-0.00042861,-0.00128488,0.00119147,-0.
 00032901,1.29148214,-0.00175038,-0.00703406,0.00088894,-0.00176028,-0.
 00124839,-0.00006014,-0.51234314,0.26747400,0.00032605,0.00154952,0.00
 049005,0.00011089,0.00033178,-0.00007838,0.23898228,-0.09851871,0.1077
 4118,-0.00073286,-0.00254611,0.00027271,0.00022323,0.00040281,-0.00004
 500,-0.35196489,0.13946559,-0.06322011,0.34383444,-0.00008541,-0.00351
 304,0.00053411,-0.00016467,-0.00054551,0.00007302,0.14209459,-0.084475
 71,0.02673023,-0.13806587,0.07764897,-0.00008506,0.00020276,0.00002837
 ,0.00003692,0.00015073,0.00009180,-0.06355458,0.02636174,-0.04309549,0
 .06356802,-0.02699058,0.03079013,-0.00699102,-0.01117704,0.00057224,-0
 .00044360,-0.00062299,0.00009030,-0.93841619,0.37113878,-0.17490433,0.
 00804213,-0.00634979,0.00088985,1.22243319,-0.00230895,-0.00188232,0.0
 0014772,-0.00291123,-0.00253528,-0.00004495,0.36926168,-0.17891892,0.0
 7043692,-0.00086211,0.00648206,0.00009802,-0.47233024,0.31941841,-0.00
 079493,-0.00102745,0.00127389,0.00045503,0.00024864,-0.00030188,-0.174
 59775,0.07066671,-0.06831700,0.00010453,-0.00064073,0.00819656,0.22468
 184,-0.10108657,0.10466918,0.00037775,0.00236096,-0.00017020,-0.000371
 01,-0.00413172,0.00038012,0.00533357,0.00230628,0.00009824,-0.00058394
 ,0.00303003,-0.00131111,-0.22244948,0.08743285,-0.03296667,0.63647831,
 0.00318706,-0.00122633,0.00052119,-0.00723920,0.00125822,-0.00106196,-
 0.00593673,0.00312711,-0.00078438,0.00186349,0.00427654,0.00048150,0.0
 8214995,-0.10085100,0.01475512,-0.01818417,0.97868333,-0.00030327,0.00
 039862,-0.00082273,0.00086829,-0.00059103,0.00118121,0.00119756,0.0003
 2447,0.00249780,-0.00109599,0.00061242,0.00557186,-0.03224016,0.015835
 33,-0.07894959,0.06027207,-0.11561542,0.23561747,-0.00118998,-0.000720
 65,-0.00017285,0.00189073,0.00173352,0.00025518,-0.00211613,0.00070031
 ,-0.00044199,0.00014323,-0.00134637,0.00035941,-0.00004156,0.04014836,
 -0.00896070,-0.11111154,0.03511816,-0.00966168,0.10885253,-0.00195396,
 0.00129726,-0.00035447,0.00437430,-0.00213525,0.00066458,0.00004040,0.
 00168881,-0.00016134,-0.00014458,0.00079792,-0.00028944,0.03535753,-0.
 05396846,0.01594340,0.02039364,-0.72191474,0.09716449,-0.00800310,0.85
 702063,0.00003891,-0.00017294,0.00077799,-0.00016673,0.00027400,-0.001
 78539,-0.00034911,-0.00011085,0.00043826,0.00017051,-0.00044028,-0.000
 92466,-0.00823935,0.01658601,0.01827800,-0.00679723,0.10073689,-0.0962
 9918,0.01143392,-0.12202105,0.05495923,-0.00073801,-0.00064337,-0.0000
 2178,0.00157093,0.00160092,-0.00002744,-0.00474668,0.00237050,-0.00104
 573,0.00123991,0.00069323,0.00015308,-0.06193061,-0.01571707,-0.007982
 64,-0.24919968,-0.10004491,-0.00738668,0.00141599,-0.06005190,0.002757
 39,0.54311279,-0.00094108,0.00011368,-0.00015470,0.00191361,-0.0002834
 6,0.00033612,0.00330339,-0.00123628,0.00064774,-0.00022502,-0.00080598
 ,0.00002614,0.00581325,0.01382100,0.00066405,-0.07691480,-0.18076442,0
 .00668819,-0.06161425,-0.07932496,0.00727541,0.06933504,0.37372683,0.0
 0003825,-0.00011387,-0.00004666,-0.00008374,0.00027993,0.00014849,-0.0
 0102723,0.00053241,0.00043506,0.00024176,0.00014127,-0.00036476,-0.010
 39373,-0.00243996,0.00940119,-0.01302612,0.00287500,-0.06914291,0.0044
 3737,0.00785912,0.02993886,0.04853443,-0.03241721,0.09547181,0.0002750
 8,0.00019188,0.00005366,-0.00063920,-0.00057592,-0.00005379,0.00116193
 ,-0.00057048,0.00024587,-0.00036753,0.00015629,-0.00010118,0.00213500,
 -0.00153361,0.00062220,-0.06467677,-0.01174541,-0.00939282,0.00472440,
 0.01753122,-0.00156133,-0.15022936,0.03292421,-0.01929739,0.48685118,-
 0.00004674,-0.00007761,0.00001891,0.00019375,0.00026231,-0.00004705,-0
 .00118267,0.00082427,-0.00024444,0.00015979,0.00016090,-0.00003716,-0.
 00557512,-0.00216992,0.00000335,-0.01224128,0.02694796,-0.00579953,-0.
 00314270,-0.00851745,-0.00011324,0.05480997,-0.11973710,0.01857007,0.1
 0119284,0.59861479,0.00004134,0.00002168,-0.00005409,-0.00009205,-0.00
 007315,0.00007646,0.00018496,-0.00011400,-0.00014532,-0.00002156,-0.00
 001664,-0.00030403,-0.00047030,0.00064017,0.00616503,-0.00950563,-0.00
 857406,0.00020445,-0.00041486,0.00367651,-0.00638500,-0.02238170,0.016
 76698,-0.07239063,0.00845743,-0.02320590,0.55891134,-0.00002805,-0.000
 05240,-0.00000887,0.00007194,0.00012199,0.00000359,-0.00031568,0.00010
 497,-0.00003928,0.00007554,0.00002612,0.00010237,-0.00057626,-0.000437
 02,-0.00150827,0.00337745,0.00753808,0.00216469,-0.00008700,-0.0026214
 9,0.00107186,-0.03340907,0.02132863,0.02837102,-0.08566336,0.00751685,
 0.02805977,0.57376026,0.00004409,0.00000823,-0.00002751,-0.00007345,-0
 .00002922,0.00004893,0.00012250,-0.00004695,-0.00005548,-0.00002424,0.
 00000280,-0.00002933,0.00037749,0.00008951,0.00082844,-0.00196352,0.00
 008112,0.00025977,0.00138135,0.00029824,-0.00176257,0.01680532,-0.0084
 0020,-0.01132183,0.01023995,-0.10398043,-0.04467349,0.01748150,0.57152
 079,-0.00001284,-0.00001921,0.00000738,0.00002465,0.00004481,-0.000020
 35,-0.00020805,0.00012123,0.00001852,0.00002939,-0.00000382,0.00003507
 ,0.00005178,-0.00032901,-0.00067512,0.00195866,0.00466149,0.00063857,0
 .00079170,-0.00243246,-0.00033287,-0.00446107,0.00134681,0.01037505,0.
 03911220,-0.04926000,-0.18647503,0.03192553,-0.03326156,0.52426337,-0.
 00003096,-0.00003306,0.00000146,0.00006273,0.00009152,0.00000012,-0.00
 040841,0.00027911,-0.00008395,0.00006380,0.00001856,-0.00001656,-0.001
 40564,-0.00068070,0.00023494,-0.00124210,0.00557614,-0.00281003,0.0005
 0545,-0.00120012,0.00028391,-0.03636765,-0.02075654,-0.01015837,-0.132
 79577,-0.11651562,-0.04597888,0.01006161,0.01046183,0.00410064,0.16146
 231,-0.00001906,0.00000375,0.00001029,0.00002457,-0.00001173,-0.000013
 69,0.00013585,-0.00015853,0.00006894,-0.00000677,-0.00002086,0.0000226
 2,0.00070373,0.00045323,-0.00042144,0.00235456,-0.00370681,0.00158569,
 -0.00142898,0.00183371,-0.00069029,0.01840794,0.01339716,0.00683682,-0
 .12981897,-0.21551005,-0.06399909,-0.00670874,-0.00917231,-0.00320298,
 0.12545900,0.22505537,0.00000426,0.00000043,0.00000685,-0.00001645,-0.
 00000524,-0.00001379,-0.00004574,0.00001114,-0.00002039,0.00000663,0.0
 0000539,-0.00001410,-0.00030908,-0.00004774,0.00021330,0.00067398,0.00
 310202,-0.00063880,0.00135883,-0.00090608,0.00079960,-0.00813272,-0.00
 418727,-0.00120804,-0.04687616,-0.06041319,-0.07776102,-0.01577202,-0.
 02288873,-0.00888854,0.05268702,0.06945902,0.08017182,0.00000937,-0.00
 002124,0.00000878,-0.00000985,0.00003750,-0.00001158,-0.00007317,0.000
 04046,-0.00005072,0.00004263,-0.00000253,-0.00004735,-0.00037369,-0.00
 008935,0.00100621,0.00392095,0.00730217,-0.00199990,-0.00119145,-0.003
 60915,0.00002024,-0.01317048,0.02709189,-0.02844491,-0.05543675,-0.031
 73579,0.03203736,-0.00005870,-0.00880769,0.00900119,-0.00017861,-0.011
 08784,0.01417594,0.06637765,0.00002039,0.00001597,-0.00001787,-0.00004
 210,-0.00003496,0.00002445,0.00010090,-0.00002116,-0.00003257,-0.00002
 662,0.00001060,-0.00000887,0.00037582,-0.00011462,0.00035524,-0.003875
 61,-0.00168854,-0.00031445,-0.00136008,0.00083030,-0.00112492,0.010321
 22,-0.01204745,0.01058131,-0.02288256,-0.17140373,0.13285040,0.0012114
 2,0.01215933,-0.01291552,-0.00301487,-0.01343712,0.01688328,0.01869061
 ,0.18570403,0.00001960,-0.00000188,0.00000806,-0.00003959,-0.00000412,
 -0.00001191,0.00006544,-0.00002701,0.00003470,0.00000186,0.00001787,-0
 .00000578,-0.00010127,-0.00025197,-0.00009901,0.00165131,0.00428294,0.
 00037366,0.00142721,-0.00202274,0.00054176,-0.00633886,0.00377577,-0.0
 0262264,0.02379615,0.13067810,-0.19637039,0.00470099,0.01779814,-0.019
 96685,-0.00012686,-0.00752851,0.00967402,-0.02672032,-0.14416109,0.210
 25251,-0.00002679,-0.00002243,0.00001043,0.00005294,0.00005433,-0.0000
 1586,-0.00009953,0.00001986,0.00000836,0.00003503,-0.00001039,0.000010
 96,-0.00013741,0.00004865,-0.00028719,0.00169185,0.00063768,-0.0001297
 2,-0.00036764,-0.00029020,0.00049801,-0.00083280,0.00061174,0.00270212
 ,-0.01055878,0.00246393,-0.00457845,-0.27381520,0.09136908,-0.04468658
 ,0.00036431,0.00022145,0.00018638,0.00011846,-0.00031449,0.00032044,0.
 29583223,0.00000520,0.00000931,0.00000718,-0.00000943,-0.00001848,-0.0
 0000863,0.00004151,-0.00000402,0.00002905,-0.00001764,-0.00000248,-0.0
 0000892,0.00016604,0.00006265,0.00004053,-0.00126851,-0.00248445,-0.00
 034336,-0.00031917,0.00111413,0.00036991,0.00385971,-0.00018899,-0.003
 14930,0.01108490,-0.00568748,0.00544572,0.09048433,-0.08197782,0.01692
 705,-0.00048445,-0.00006009,0.00037673,-0.00009243,0.00038624,-0.00002
 010,-0.10073290,0.08585253,0.00000214,0.00001293,0.00001339,-0.0000160
 0,-0.00002980,-0.00001268,0.00013901,-0.00007138,0.00000922,-0.0000188
 5,-0.00000905,-0.00002455,0.00022981,0.00022607,0.00041918,-0.00140617
 ,-0.00273017,-0.00051234,-0.00000681,0.00120962,-0.00012892,0.00668794
 ,-0.00327337,-0.00478621,0.02391488,-0.00780735,0.00845383,-0.04644939
 ,0.01805424,-0.05707358,-0.00082470,-0.00004790,0.00104006,-0.00038478
 ,0.00113503,0.00057409,0.04843344,-0.01806533,0.05834058,0.00000108,0.
 00000798,-0.00001271,0.00000222,-0.00002241,0.00001192,0.00000362,0.00
 001732,-0.00001069,-0.00002143,-0.00000249,0.00000734,0.00003848,0.000
 05387,-0.00003694,-0.00090711,-0.00153098,0.00025957,-0.00033573,0.000
 89349,0.00009165,0.00195219,-0.00079367,-0.00069808,-0.00279002,-0.007
 70319,0.01014749,-0.04828898,-0.01322775,0.01152405,0.00019643,0.00025
 740,-0.00078708,-0.00016506,0.00119059,0.00214329,0.00363875,0.0199877
 7,-0.02250541,0.04760569,-0.00000826,-0.00000382,-0.00001581,0.0000200
 2,0.00000301,0.00001604,-0.00004471,0.00000876,0.00000159,0.00000611,-
 0.00000210,0.00001032,-0.00005300,0.00007447,-0.00014373,0.00029299,-0
 .00028381,0.00035962,-0.00036155,0.00031434,0.00024818,-0.00193247,0.0
 0087910,0.00062338,0.00178405,0.01143734,-0.01365485,-0.01313573,-0.17
 631733,0.13701012,-0.00042900,0.00091497,0.00070282,0.00182455,-0.0009
 5388,-0.00297960,-0.00178871,-0.00795376,0.00695211,0.01302253,0.18674
 905,0.00000608,0.00000214,0.00000791,-0.00000975,-0.00000621,-0.000008
 79,0.00004559,-0.00002742,0.00001689,-0.00000341,0.00000501,-0.0000015
 9,0.00006577,0.00000631,-0.00004422,0.00023404,0.00038440,-0.00013210,
 -0.00007805,-0.00021836,0.00019316,-0.00131394,0.00004785,0.00285445,0
 .00139571,0.02071391,-0.02367817,0.01298980,0.13413366,-0.19151695,-0.
 00044652,0.00001231,0.00090890,0.00197978,-0.00364064,-0.00338811,0.00
 030549,0.00225956,-0.00362315,-0.01555503,-0.14645332,0.21011811,0.000
 03152,0.00001522,-0.00001246,-0.00005008,-0.00003971,0.00002934,0.0000
 6851,-0.00001890,0.00002510,-0.00002929,0.00000870,-0.00001210,0.00011
 667,-0.00007513,0.00003034,-0.00063826,0.00130867,0.00025807,-0.001091
 30,-0.00071609,0.00074734,0.00133253,-0.00107641,-0.00119537,0.0080099
 5,0.01180598,0.00451509,-0.14510450,-0.12418647,-0.04915123,-0.0002875
 1,0.00150587,0.00284622,0.00018869,-0.00039462,-0.00079940,-0.01589541
 ,-0.02270494,-0.00779511,-0.00093012,0.00080318,0.00038444,0.15427859,
 -0.00002577,-0.00001238,0.00002329,0.00004317,0.00004290,-0.00002715,-
 0.00007018,0.00002105,0.00000115,0.00002116,-0.00001411,0.00001046,0.0
 0002560,0.00003920,-0.00018557,0.00040830,-0.00145417,-0.00056481,-0.0
 0078485,0.00066552,0.00094574,0.00018587,0.00085108,0.00114286,-0.0079
 7839,-0.01116381,-0.00509027,-0.12285852,-0.20423576,-0.05868697,0.001
 22820,0.00041930,-0.00209259,0.00045885,0.00059499,0.00044420,0.007732
 40,0.01095272,0.00444435,-0.01215047,-0.01486633,-0.00721919,0.1337646
 4,0.21815981,-0.00001906,-0.00000654,-0.00002416,0.00004678,0.00001434
 ,0.00002730,-0.00007476,0.00002287,-0.00002510,0.00000951,-0.00001824,
 0.00002118,0.00007663,0.00022364,-0.00022950,-0.00008527,-0.00303457,0
 .00041263,-0.00032671,0.00188820,-0.00007084,0.00095972,0.00245748,0.0
 0193693,-0.02031543,-0.02305649,-0.01024742,-0.04561179,-0.05710267,-0
 .07038869,0.00313779,-0.00209180,-0.00426986,-0.00056993,0.00038621,0.
 00100590,-0.00277785,-0.00386008,-0.00268891,0.01542063,0.01732314,0.0
 0829367,0.05012974,0.06685451,0.07624684\\-0.00266282,-0.00690253,0.00
 065962,-0.00011031,-0.00006600,0.00000181,0.00270070,0.00564070,-0.000
 46412,0.00010407,0.00062598,-0.00008318,0.00027829,0.00100048,-0.00011
 905,-0.00009274,0.00004262,-0.00001333,-0.00040499,0.00005448,-0.00005
 759,0.00009274,-0.00018586,0.00006410,0.00003628,-0.00014909,0.0000303
 7,0.00003695,-0.00003156,-0.00001739,0.00000301,-0.00001045,0.00000874
 ,0.00000561,-0.00001806,-0.00000042,0.00000530,-0.00000094,-0.00000528
 ,0.00000115,0.00000361,0.00000252,0.00000677,-0.00000338,-0.00000681\\
 \@


 SOME PEOPLE TRY TO PULL THE WOOL OVER YOUR EYES
 USING THE WRONG YARN.
 Job cpu time:       0 days  0 hours 57 minutes 32.7 seconds.
 Elapsed time:       0 days  0 hours  2 minutes 24.2 seconds.
 File lengths (MBytes):  RWF=    153 Int=      0 D2E=      0 Chk=      9 Scr=      1
 Normal termination of Gaussian 16 at Mon Jun 23 02:54:54 2025.
