 Entering Gaussian System, Link 0=g16
 Initial command:
 /opt/g16/l1.exe "/home/aayush/scratches/g16/Gau-4583.inp" -scrdir="/home/aayush/scratches/g16/"
 Entering Link 1 = /opt/g16/l1.exe PID=      4586.
  
 Copyright (c) 1988,1990,1992,1993,1995,1998,2003,2009,2016,
            Gaussian, Inc.  All Rights Reserved.
  
 This is part of the Gaussian(R) 16 program.  It is based on
 the Gaussian(R) 09 system (copyright 2009, Gaussian, Inc.),
 the Gaussian(R) 03 system (copyright 2003, Gaussian, Inc.),
 the Gaussian(R) 98 system (copyright 1998, Gaussian, Inc.),
 the Gaussian(R) 94 system (copyright 1995, Gaussian, Inc.),
 the Gaussian 92(TM) system (copyright 1992, Gaussian, Inc.),
 the Gaussian 90(TM) system (copyright 1990, Gaussian, Inc.),
 the Gaussian 88(TM) system (copyright 1988, Gaussian, Inc.),
 the Gaussian 86(TM) system (copyright 1986, Carnegie Mellon
 University), and the Gaussian 82(TM) system (copyright 1983,
 Carnegie Mellon University). Gaussian is a federally registered
 trademark of Gaussian, Inc.
  
 This software contains proprietary and confidential information,
 including trade secrets, belonging to Gaussian, Inc.
  
 This software is provided under written license and may be
 used, copied, transmitted, or stored only in accord with that
 written license.
  
 The following legend is applicable only to US Government
 contracts under FAR:
  
                    RESTRICTED RIGHTS LEGEND
  
 Use, reproduction and disclosure by the US Government is
 subject to restrictions as set forth in subparagraphs (a)
 and (c) of the Commercial Computer Software - Restricted
 Rights clause in FAR 52.227-19.
  
 Gaussian, Inc.
 340 Quinnipiac St., Bldg. 40, Wallingford CT 06492
  
  
 ---------------------------------------------------------------
 Warning -- This program may not be used in any manner that
 competes with the business of Gaussian, Inc. or will provide
 assistance to any competitor of Gaussian, Inc.  The licensee
 of this program is prohibited from giving any competitor of
 Gaussian, Inc. access to this program.  By using this program,
 the user acknowledges that Gaussian, Inc. is engaged in the
 business of creating and licensing software in the field of
 computational chemistry and represents and warrants to the
 licensee that it is not a competitor of Gaussian, Inc. and that
 it will not use this program in any manner prohibited above.
 ---------------------------------------------------------------
  

 Cite this work as:
 Gaussian 16, Revision A.03,
 M. J. Frisch, G. W. Trucks, H. B. Schlegel, G. E. Scuseria, 
 M. A. Robb, J. R. Cheeseman, G. Scalmani, V. Barone, 
 G. A. Petersson, H. Nakatsuji, X. Li, M. Caricato, A. V. Marenich, 
 J. Bloino, B. G. Janesko, R. Gomperts, B. Mennucci, H. P. Hratchian, 
 J. V. Ortiz, A. F. Izmaylov, J. L. Sonnenberg, D. Williams-Young, 
 F. Ding, F. Lipparini, F. Egidi, J. Goings, B. Peng, A. Petrone, 
 T. Henderson, D. Ranasinghe, V. G. Zakrzewski, J. Gao, N. Rega, 
 G. Zheng, W. Liang, M. Hada, M. Ehara, K. Toyota, R. Fukuda, 
 J. Hasegawa, M. Ishida, T. Nakajima, Y. Honda, O. Kitao, H. Nakai, 
 T. Vreven, K. Throssell, J. A. Montgomery, Jr., J. E. Peralta, 
 F. Ogliaro, M. J. Bearpark, J. J. Heyd, E. N. Brothers, K. N. Kudin, 
 V. N. Staroverov, T. A. Keith, R. Kobayashi, J. Normand, 
 K. Raghavachari, A. P. Rendell, J. C. Burant, S. S. Iyengar, 
 J. Tomasi, M. Cossi, J. M. Millam, M. Klene, C. Adamo, R. Cammi, 
 J. W. Ochterski, R. L. Martin, K. Morokuma, O. Farkas, 
 J. B. Foresman, and D. J. Fox, Gaussian, Inc., Wallingford CT, 2016.
 
 ******************************************
 Gaussian 16:  ES64L-G16RevA.03 25-Dec-2016
                 2-Aug-2025 
 ******************************************
 %nprocshared=24
 Will use up to   24 processors via shared memory.
 %mem=12GB
 %chk=ethyl_propiolate_ts1.chk
 --------------------------
 # ccsd(t)/6-311++g(d,p) sp
 --------------------------
 1/38=1,172=1/1;
 2/12=2,17=6,18=5,40=1/2;
 3/5=4,6=6,7=1111,11=9,25=1,30=1/1,2,3;
 4//1;
 5/5=2,38=5/2;
 8/6=4,9=120000,10=2/1,4;
 9/5=7,14=2/13;
 6/7=2,8=2,9=2,10=2/1;
 99/5=1,9=1/99;
 -------------------
 Title Card Required
 -------------------
 Symbolic Z-matrix:
 Charge =  0 Multiplicity = 2
 O                     3.29948   0.71341   0.10737 
 H                     2.57017   1.31769  -0.09786 
 C                     2.48205  -0.81789   0.26506 
 H                     3.27128  -1.51486   0.49291 
 C                     1.22584  -0.76209   0.08582 
 C                    -0.00837  -0.04648  -0.20563 
 O                    -0.04198   1.13807  -0.41675 
 O                    -1.05535  -0.86373  -0.21042 
 C                    -2.33991  -0.25779  -0.47437 
 C                    -2.88789   0.41543   0.768 
 H                    -2.96326  -1.09179  -0.79087 
 H                    -2.22833   0.44806  -1.29809 
 H                    -3.88959   0.79768   0.56286 
 H                    -2.95236  -0.29794   1.59083 
 H                    -2.25546   1.25203   1.06544 
 
                          Input orientation:                          
 ---------------------------------------------------------------------
 Center     Atomic      Atomic             Coordinates (Angstroms)
 Number     Number       Type             X           Y           Z
 ---------------------------------------------------------------------
      1          8           0        3.299484    0.713412    0.107372
      2          1           0        2.570168    1.317693   -0.097861
      3          6           0        2.482047   -0.817888    0.265055
      4          1           0        3.271277   -1.514864    0.492905
      5          6           0        1.225843   -0.762088    0.085815
      6          6           0       -0.008371   -0.046481   -0.205634
      7          8           0       -0.041979    1.138065   -0.416746
      8          8           0       -1.055350   -0.863729   -0.210424
      9          6           0       -2.339906   -0.257787   -0.474370
     10          6           0       -2.887892    0.415433    0.767999
     11          1           0       -2.963257   -1.091786   -0.790872
     12          1           0       -2.228331    0.448057   -1.298093
     13          1           0       -3.889592    0.797683    0.562860
     14          1           0       -2.952361   -0.297936    1.590825
     15          1           0       -2.255458    1.252032    1.065440
 ---------------------------------------------------------------------
                    Distance matrix (angstroms):
                    1          2          3          4          5
     1  O    0.000000
     2  H    0.969112   0.000000
     3  C    1.742971   2.167990   0.000000
     4  H    2.261558   2.977237   1.077300   0.000000
     5  C    2.545104   2.483231   1.270153   2.217249   0.000000
     6  C    3.408418   2.919152   2.649302   3.660628   1.456132
     7  O    3.408871   2.637663   3.265166   4.340871   2.338915
     8  O    4.642515   4.232689   3.569504   4.431518   2.302592
     9  C    5.751901   5.170370   4.910366   5.831058   3.644543
    10  C    6.229674   5.599483   5.532656   6.460425   4.332984
    11  H    6.579324   6.074919   5.553498   6.379380   4.292533
    12  H    5.709858   5.022192   5.121885   6.107898   3.912923
    13  H    7.203984   6.514251   6.580011   7.525345   5.369184
    14  H    6.504539   5.996686   5.617901   6.435838   4.465185
    15  H    5.662631   4.964297   5.231552   6.207118   4.139541
                    6          7          8          9         10
     6  C    0.000000
     7  O    1.203681   0.000000
     8  O    1.328188   2.253146   0.000000
     9  C    2.356464   2.689273   1.444617   0.000000
    10  C    3.074568   3.166234   2.439626   1.515584   0.000000
    11  H    3.188498   3.694059   2.007247   1.088253   2.169670
    12  H    2.523144   2.456220   2.068741   1.090497   2.169060
    13  H    4.045624   3.984923   3.375083   2.142753   1.091604
    14  H    3.457972   3.816119   2.676429   2.154471   1.090914
    15  H    2.889838   2.666337   2.746731   2.158170   1.090111
                   11         12         13         14         15
    11  H    0.000000
    12  H    1.780030   0.000000
    13  H    2.502155   2.518963   0.000000
    14  H    2.510537   3.070272   1.770733   0.000000
    15  H    3.072516   2.496678   1.769015   1.778793   0.000000
 Stoichiometry    C5H7O3(2)
 Framework group  C1[X(C5H7O3)]
 Deg. of freedom    39
 Full point group                 C1      NOp   1
 Largest Abelian subgroup         C1      NOp   1
 Largest concise Abelian subgroup C1      NOp   1
                         Standard orientation:                         
 ---------------------------------------------------------------------
 Center     Atomic      Atomic             Coordinates (Angstroms)
 Number     Number       Type             X           Y           Z
 ---------------------------------------------------------------------
      1          8           0        3.299484    0.713412    0.107372
      2          1           0        2.570168    1.317693   -0.097861
      3          6           0        2.482047   -0.817888    0.265055
      4          1           0        3.271277   -1.514864    0.492905
      5          6           0        1.225843   -0.762088    0.085815
      6          6           0       -0.008371   -0.046481   -0.205634
      7          8           0       -0.041979    1.138065   -0.416746
      8          8           0       -1.055350   -0.863729   -0.210424
      9          6           0       -2.339906   -0.257787   -0.474370
     10          6           0       -2.887892    0.415433    0.767999
     11          1           0       -2.963257   -1.091786   -0.790872
     12          1           0       -2.228331    0.448057   -1.298093
     13          1           0       -3.889592    0.797683    0.562860
     14          1           0       -2.952361   -0.297936    1.590825
     15          1           0       -2.255458    1.252032    1.065440
 ---------------------------------------------------------------------
 Rotational constants (GHZ):           5.7523525           0.9516496           0.8773353
 Standard basis: 6-311++G(d,p) (5D, 7F)
 There are   233 symmetry adapted cartesian basis functions of A   symmetry.
 There are   225 symmetry adapted basis functions of A   symmetry.
   225 basis functions,   351 primitive gaussians,   233 cartesian basis functions
    31 alpha electrons       30 beta electrons
       nuclear repulsion energy       351.7795458695 Hartrees.
 NAtoms=   15 NActive=   15 NUniq=   15 SFac= 1.00D+00 NAtFMM=   60 NAOKFM=F Big=F
 Integral buffers will be    131072 words long.
 Raffenetti 2 integral format.
 Two-electron integral symmetry is turned on.
 One-electron integrals computed using PRISM.
 NBasis=   225 RedAO= T EigKep=  6.45D-06  NBF=   225
 NBsUse=   225 1.00D-06 EigRej= -1.00D+00 NBFU=   225
 ExpMin= 3.60D-02 ExpMax= 8.59D+03 ExpMxC= 1.30D+03 IAcc=3 IRadAn=         5 AccDes= 0.00D+00
 Harris functional with IExCor=  205 and IRadAn=       5 diagonalized for initial guess.
 HarFok:  IExCor=  205 AccDes= 0.00D+00 IRadAn=         5 IDoV= 1 UseB2=F ITyADJ=14
 ICtDFT=  3500011 ScaDFX=  1.000000  1.000000  1.000000  1.000000
 FoFCou: FMM=F IPFlag=           0 FMFlag=      100000 FMFlg1=           0
         NFxFlg=           0 DoJE=T BraDBF=F KetDBF=T FulRan=T
         wScrn=  0.000000 ICntrl=       500 IOpCl=  0 I1Cent=   200000004 NGrid=           0
         NMat0=    1 NMatS0=      1 NMatT0=    0 NMatD0=    1 NMtDS0=    0 NMtDT0=    0
 Petite list used in FoFCou.
 Initial guess <Sx>= 0.0000 <Sy>= 0.0000 <Sz>= 0.5000 <S**2>= 0.7500 S= 0.5000
 Requested convergence on RMS density matrix=1.00D-08 within 128 cycles.
 Requested convergence on MAX density matrix=1.00D-06.
 Requested convergence on             energy=1.00D-06.
 No special actions if energy rises.
 Initial convergence to 1.0D-05 achieved.  Increase integral accuracy.
 SCF Done:  E(UHF) =  -417.992407574     A.U. after   30 cycles
            NFock= 30  Conv=0.69D-08     -V/T= 2.0010
 <Sx>= 0.0000 <Sy>= 0.0000 <Sz>= 0.5000 <S**2>= 1.1204 S= 0.6706
 <L.S>=  0.00000000000    
 Annihilation of the first spin contaminant:
 S**2 before annihilation     1.1204,   after     0.8478
 ExpMin= 3.60D-02 ExpMax= 8.59D+03 ExpMxC= 1.30D+03 IAcc=3 IRadAn=         5 AccDes= 0.00D+00
 HarFok:  IExCor=  205 AccDes= 0.00D+00 IRadAn=         5 IDoV=-2 UseB2=F ITyADJ=14
 ICtDFT= 12500011 ScaDFX=  1.000000  1.000000  1.000000  1.000000
 Range of M.O.s used for correlation:     9   225
 NBasis=   225 NAE=    31 NBE=    30 NFC=     8 NFV=     0
 NROrb=    217 NOA=    23 NOB=    22 NVA=   194 NVB=   195

 **** Warning!!: The largest alpha MO coefficient is  0.11783855D+03


 **** Warning!!: The largest beta MO coefficient is  0.13702016D+03

 Semi-Direct transformation.
 ModeAB=           4 MOrb=            23 LenV=    1609179427
 LASXX=    109339976 LTotXX=   109339976 LenRXX=   221407890
 LTotAB=   112067914 MaxLAS=   125518659 LenRXY=           0
 NonZer=   330747866 LenScr=   498067456 LnRSAI=   125518659
 LnScr1=   189038080 LExtra=           0 Total=   1034032085
 MaxDsk=          -1 SrtSym=           T ITran=            4
 JobTyp=1 Pass  1:  I=   1 to  23.
 (rs|ai) integrals will be sorted in core.
 ModeAB=           4 MOrb=            22 LenV=    1609179427
 LASXX=    104936601 LTotXX=   104936601 LenRXX=   190867446
 LTotAB=    85930845 MaxLAS=   120061326 LenRXY=           0
 NonZer=   295804047 LenScr=   445446144 LnRSAI=   120061326
 LnScr1=   180852736 LExtra=           0 Total=    937227652
 MaxDsk=          -1 SrtSym=           T ITran=            4
 JobTyp=2 Pass  1:  I=   1 to  22.
 (rs|ai) integrals will be sorted in core.
 SymMOI:  orbitals are not symmetric.
 Spin components of T(2) and E(2):
     alpha-alpha T2 =       0.5065874348D-01 E2=     -0.1681421562D+00
     alpha-beta  T2 =       0.2788659331D+00 E2=     -0.9284657390D+00
     beta-beta   T2 =       0.5122823041D-01 E2=     -0.1613859494D+00
 ANorm=    0.1175054427D+01
 E2 =    -0.1257993845D+01 EUMP2 =    -0.41925040141871D+03
 (S**2,0)=  0.11204D+01           (S**2,1)=  0.10234D+01
 E(PUHF)=      -0.41802212873D+03        E(PMP2)=      -0.41927675692D+03
 Keep R2 and R3 ints in memory in canonical form, NReq=652884060.
 CIDS: In Core Option IDoMem=           1.
 Iterations=  50 Convergence= 0.100D-06
 Produce multiple copies of IABC intergrals
 Iteration Nr.   1
 **********************
 DD1Dir will call FoFMem   1 times, MxPair=      1496
 NAB=   506 NAA=   253 NBB=   231.
 E(PMP3)=      -0.41930034829D+03
 MP4(R+Q)=  0.24305636D-01
 E3=       -0.29181145D-01        EUMP3=      -0.41927958256D+03
 E4(DQ)=   -0.64865486D-02        UMP4(DQ)=   -0.41928606911D+03
 E4(SDQ)=  -0.29465061D-01        UMP4(SDQ)=  -0.41930904762D+03
 DE(Corr)=  -1.2626886     E(Corr)=     -419.25509614    
 NORM(A)=   0.11862683D+01
 Iteration Nr.   2
 **********************
 DD1Dir will call FoFMem   1 times, MxPair=      1496
 NAB=   506 NAA=   253 NBB=   231.
 DE(Corr)=  -1.3080054     E(CORR)=     -419.30041298     Delta=-4.53D-02
 NORM(A)=   0.12101676D+01
 Iteration Nr.   3
 **********************
 DD1Dir will call FoFMem   1 times, MxPair=      1496
 NAB=   506 NAA=   253 NBB=   231.
 DE(Corr)=  -1.3121416     E(CORR)=     -419.30454921     Delta=-4.14D-03
 NORM(A)=   0.12267334D+01
 Iteration Nr.   4
 **********************
 DD1Dir will call FoFMem   1 times, MxPair=      1496
 NAB=   506 NAA=   253 NBB=   231.
 DE(Corr)=  -1.3214009     E(CORR)=     -419.31380851     Delta=-9.26D-03
 NORM(A)=   0.12382292D+01
 Iteration Nr.   5
 **********************
 DD1Dir will call FoFMem   1 times, MxPair=      1496
 NAB=   506 NAA=   253 NBB=   231.
 DE(Corr)=  -1.3244158     E(CORR)=     -419.31682340     Delta=-3.01D-03
 NORM(A)=   0.12439658D+01
 Iteration Nr.   6
 **********************
 DD1Dir will call FoFMem   1 times, MxPair=      1496
 NAB=   506 NAA=   253 NBB=   231.
 DE(Corr)=  -1.3253416     E(CORR)=     -419.31774914     Delta=-9.26D-04
 NORM(A)=   0.12449162D+01
 Iteration Nr.   7
 **********************
 DD1Dir will call FoFMem   1 times, MxPair=      1496
 NAB=   506 NAA=   253 NBB=   231.
 DE(Corr)=  -1.3254824     E(CORR)=     -419.31788994     Delta=-1.41D-04
 NORM(A)=   0.12452540D+01
 Iteration Nr.   8
 **********************
 DD1Dir will call FoFMem   1 times, MxPair=      1496
 NAB=   506 NAA=   253 NBB=   231.
 DE(Corr)=  -1.3254656     E(CORR)=     -419.31787319     Delta= 1.67D-05
 NORM(A)=   0.12453611D+01
 Iteration Nr.   9
 **********************
 DD1Dir will call FoFMem   1 times, MxPair=      1496
 NAB=   506 NAA=   253 NBB=   231.
 DE(Corr)=  -1.3254917     E(CORR)=     -419.31789927     Delta=-2.61D-05
 NORM(A)=   0.12453907D+01
 Iteration Nr.  10
 **********************
 DD1Dir will call FoFMem   1 times, MxPair=      1496
 NAB=   506 NAA=   253 NBB=   231.
 DE(Corr)=  -1.3254926     E(CORR)=     -419.31790016     Delta=-8.95D-07
 NORM(A)=   0.12454294D+01
 Iteration Nr.  11
 **********************
 DD1Dir will call FoFMem   1 times, MxPair=      1496
 NAB=   506 NAA=   253 NBB=   231.
 DE(Corr)=  -1.3255090     E(CORR)=     -419.31791653     Delta=-1.64D-05
 NORM(A)=   0.12454687D+01
 Iteration Nr.  12
 **********************
 DD1Dir will call FoFMem   1 times, MxPair=      1496
 NAB=   506 NAA=   253 NBB=   231.
 DE(Corr)=  -1.3255184     E(CORR)=     -419.31792597     Delta=-9.44D-06
 NORM(A)=   0.12455066D+01
 Iteration Nr.  13
 **********************
 DD1Dir will call FoFMem   1 times, MxPair=      1496
 NAB=   506 NAA=   253 NBB=   231.
 DE(Corr)=  -1.3255271     E(CORR)=     -419.31793467     Delta=-8.70D-06
 NORM(A)=   0.12455340D+01
 Iteration Nr.  14
 **********************
 DD1Dir will call FoFMem   1 times, MxPair=      1496
 NAB=   506 NAA=   253 NBB=   231.
 DE(Corr)=  -1.3255335     E(CORR)=     -419.31794109     Delta=-6.42D-06
 NORM(A)=   0.12455515D+01
 Iteration Nr.  15
 **********************
 DD1Dir will call FoFMem   1 times, MxPair=      1496
 NAB=   506 NAA=   253 NBB=   231.
 DE(Corr)=  -1.3255366     E(CORR)=     -419.31794420     Delta=-3.10D-06
 NORM(A)=   0.12455601D+01
 Iteration Nr.  16
 **********************
 DD1Dir will call FoFMem   1 times, MxPair=      1496
 NAB=   506 NAA=   253 NBB=   231.
 DE(Corr)=  -1.3255384     E(CORR)=     -419.31794597     Delta=-1.78D-06
 NORM(A)=   0.12455633D+01
 Iteration Nr.  17
 **********************
 DD1Dir will call FoFMem   1 times, MxPair=      1496
 NAB=   506 NAA=   253 NBB=   231.
 DE(Corr)=  -1.3255388     E(CORR)=     -419.31794637     Delta=-3.99D-07
 NORM(A)=   0.12455640D+01
 Iteration Nr.  18
 **********************
 DD1Dir will call FoFMem   1 times, MxPair=      1496
 NAB=   506 NAA=   253 NBB=   231.
 DE(Corr)=  -1.3255388     E(CORR)=     -419.31794640     Delta=-3.08D-08
 NORM(A)=   0.12455642D+01
 Wavefunction amplitudes converged. E(Corr)=     -419.31794640    
 Dominant configurations:
 ***********************
 Spin Case        I    J    A    B          Value
    BB           30        37           -0.111731D+00
 Largest amplitude= 1.12D-01
 Time for triples=    37488.78 seconds.
 T4(CCSD)= -0.59759102D-01
 T5(CCSD)=  0.45227271D-02
 CCSD(T)= -0.41937318278D+03

 S**2, projected HF & approx projected MPn energies after annihilation of
 unwanted spin states (see manual for definitions):

 spins       (S**2,0) (S**2,1)    PUHF        PMP2        PMP3        PMP4
 annihilated
 s+1         0.69228  0.72715 -418.022129 -419.276757 -419.300348
 s+1,s+2     0.75129  0.74979 -418.018412 -419.273230 -419.297086
 s+1 to s+3  0.74999  0.75001 -418.018511 -419.273304 -419.297120
 s+1 to s+4  0.75000  0.75000 -418.018510 -419.273303 -419.297120
 s+1 to s+5  0.75000  0.75000 -418.018510
 s+1 to s+6  0.75000  0.75000 -418.018510

 Discarding MO integrals.

 **********************************************************************

            Population analysis using the SCF density.

 **********************************************************************

 Orbital symmetries:
 Alpha Orbitals:
       Occupied  (A) (A) (A) (A) (A) (A) (A) (A) (A) (A) (A) (A)
                 (A) (A) (A) (A) (A) (A) (A) (A) (A) (A) (A) (A)
                 (A) (A) (A) (A) (A) (A) (A)
       Virtual   (A) (A) (A) (A) (A) (A) (A) (A) (A) (A) (A) (A)
                 (A) (A) (A) (A) (A) (A) (A) (A) (A) (A) (A) (A)
                 (A) (A) (A) (A) (A) (A) (A) (A) (A) (A) (A) (A)
                 (A) (A) (A) (A) (A) (A) (A) (A) (A) (A) (A) (A)
                 (A) (A) (A) (A) (A) (A) (A) (A) (A) (A) (A) (A)
                 (A) (A) (A) (A) (A) (A) (A) (A) (A) (A) (A) (A)
                 (A) (A) (A) (A) (A) (A) (A) (A) (A) (A) (A) (A)
                 (A) (A) (A) (A) (A) (A) (A) (A) (A) (A) (A) (A)
                 (A) (A) (A) (A) (A) (A) (A) (A) (A) (A) (A) (A)
                 (A) (A) (A) (A) (A) (A) (A) (A) (A) (A) (A) (A)
                 (A) (A) (A) (A) (A) (A) (A) (A) (A) (A) (A) (A)
                 (A) (A) (A) (A) (A) (A) (A) (A) (A) (A) (A) (A)
                 (A) (A) (A) (A) (A) (A) (A) (A) (A) (A) (A) (A)
                 (A) (A) (A) (A) (A) (A) (A) (A) (A) (A) (A) (A)
                 (A) (A) (A) (A) (A) (A) (A) (A) (A) (A) (A) (A)
                 (A) (A) (A) (A) (A) (A) (A) (A) (A) (A) (A) (A)
                 (A) (A)
 Beta  Orbitals:
       Occupied  (A) (A) (A) (A) (A) (A) (A) (A) (A) (A) (A) (A)
                 (A) (A) (A) (A) (A) (A) (A) (A) (A) (A) (A) (A)
                 (A) (A) (A) (A) (A) (A)
       Virtual   (A) (A) (A) (A) (A) (A) (A) (A) (A) (A) (A) (A)
                 (A) (A) (A) (A) (A) (A) (A) (A) (A) (A) (A) (A)
                 (A) (A) (A) (A) (A) (A) (A) (A) (A) (A) (A) (A)
                 (A) (A) (A) (A) (A) (A) (A) (A) (A) (A) (A) (A)
                 (A) (A) (A) (A) (A) (A) (A) (A) (A) (A) (A) (A)
                 (A) (A) (A) (A) (A) (A) (A) (A) (A) (A) (A) (A)
                 (A) (A) (A) (A) (A) (A) (A) (A) (A) (A) (A) (A)
                 (A) (A) (A) (A) (A) (A) (A) (A) (A) (A) (A) (A)
                 (A) (A) (A) (A) (A) (A) (A) (A) (A) (A) (A) (A)
                 (A) (A) (A) (A) (A) (A) (A) (A) (A) (A) (A) (A)
                 (A) (A) (A) (A) (A) (A) (A) (A) (A) (A) (A) (A)
                 (A) (A) (A) (A) (A) (A) (A) (A) (A) (A) (A) (A)
                 (A) (A) (A) (A) (A) (A) (A) (A) (A) (A) (A) (A)
                 (A) (A) (A) (A) (A) (A) (A) (A) (A) (A) (A) (A)
                 (A) (A) (A) (A) (A) (A) (A) (A) (A) (A) (A) (A)
                 (A) (A) (A) (A) (A) (A) (A) (A) (A) (A) (A) (A)
                 (A) (A) (A)
 The electronic state is 2-A.
 Alpha  occ. eigenvalues --  -20.62362 -20.59563 -20.57564 -11.42046 -11.30631
 Alpha  occ. eigenvalues --  -11.30559 -11.28633 -11.23287  -1.49480  -1.39759
 Alpha  occ. eigenvalues --   -1.34702  -1.10664  -1.04916  -0.92957  -0.84984
 Alpha  occ. eigenvalues --   -0.77784  -0.73146  -0.71348  -0.67868  -0.64358
 Alpha  occ. eigenvalues --   -0.63137  -0.61658  -0.59599  -0.56644  -0.54922
 Alpha  occ. eigenvalues --   -0.52720  -0.51837  -0.50551  -0.48463  -0.43680
 Alpha  occ. eigenvalues --   -0.42610
 Alpha virt. eigenvalues --    0.03816   0.04794   0.05519   0.06242   0.07157
 Alpha virt. eigenvalues --    0.08446   0.08857   0.09352   0.10958   0.12148
 Alpha virt. eigenvalues --    0.12646   0.13734   0.14431   0.14930   0.16580
 Alpha virt. eigenvalues --    0.16751   0.17937   0.18486   0.18677   0.19533
 Alpha virt. eigenvalues --    0.19645   0.20020   0.20518   0.21706   0.22685
 Alpha virt. eigenvalues --    0.23979   0.24523   0.26439   0.27915   0.27957
 Alpha virt. eigenvalues --    0.29853   0.31205   0.31625   0.32720   0.33386
 Alpha virt. eigenvalues --    0.34165   0.35936   0.36632   0.37666   0.38237
 Alpha virt. eigenvalues --    0.38507   0.39809   0.40643   0.41265   0.42587
 Alpha virt. eigenvalues --    0.44752   0.45229   0.46670   0.48138   0.48936
 Alpha virt. eigenvalues --    0.50141   0.52571   0.56991   0.59465   0.60957
 Alpha virt. eigenvalues --    0.62366   0.63741   0.66291   0.70717   0.72392
 Alpha virt. eigenvalues --    0.75628   0.77050   0.78106   0.78805   0.80895
 Alpha virt. eigenvalues --    0.81598   0.83357   0.85381   0.86531   0.87870
 Alpha virt. eigenvalues --    0.88540   0.90830   0.91818   0.93687   0.96991
 Alpha virt. eigenvalues --    1.01177   1.03002   1.08153   1.12436   1.13161
 Alpha virt. eigenvalues --    1.17974   1.21612   1.24448   1.25847   1.29603
 Alpha virt. eigenvalues --    1.33085   1.34979   1.35785   1.37253   1.38462
 Alpha virt. eigenvalues --    1.40277   1.42577   1.44066   1.49827   1.53339
 Alpha virt. eigenvalues --    1.54837   1.56495   1.59930   1.61425   1.67049
 Alpha virt. eigenvalues --    1.68341   1.72216   1.73839   1.74814   1.76990
 Alpha virt. eigenvalues --    1.79283   1.80722   1.81422   1.83577   1.84809
 Alpha virt. eigenvalues --    1.90068   1.93227   1.95400   1.96489   1.98710
 Alpha virt. eigenvalues --    2.03267   2.04045   2.08670   2.12097   2.16296
 Alpha virt. eigenvalues --    2.18865   2.21349   2.22695   2.25399   2.33042
 Alpha virt. eigenvalues --    2.38717   2.40511   2.46873   2.50227   2.52779
 Alpha virt. eigenvalues --    2.55350   2.61399   2.64821   2.81708   2.82879
 Alpha virt. eigenvalues --    2.83619   2.88277   2.91289   2.91886   2.93494
 Alpha virt. eigenvalues --    2.94308   2.95430   2.99369   3.00300   3.03996
 Alpha virt. eigenvalues --    3.08949   3.09916   3.12002   3.12936   3.21163
 Alpha virt. eigenvalues --    3.22659   3.26127   3.26498   3.28784   3.30328
 Alpha virt. eigenvalues --    3.34770   3.44919   3.48407   3.50813   3.57800
 Alpha virt. eigenvalues --    3.59027   3.62638   3.66528   3.73138   3.77515
 Alpha virt. eigenvalues --    3.95225   3.98810   4.00216   4.09728   4.20621
 Alpha virt. eigenvalues --    4.21858   4.26529   4.29372   4.39488   4.52893
 Alpha virt. eigenvalues --    4.54883   4.66884   5.52741   5.57742   5.60581
 Alpha virt. eigenvalues --    5.61818   5.76188   5.89744   6.06189   6.21368
 Alpha virt. eigenvalues --    6.42128  24.69177  25.00053  25.00888  25.13901
 Alpha virt. eigenvalues --   25.70664  51.55817  51.59227  51.70858
  Beta  occ. eigenvalues --  -20.62344 -20.57248 -20.56865 -11.42492 -11.32945
  Beta  occ. eigenvalues --  -11.30557 -11.25369 -11.23285  -1.49087  -1.38579
  Beta  occ. eigenvalues --   -1.27408  -1.06990  -1.04458  -0.93510  -0.84522
  Beta  occ. eigenvalues --   -0.77498  -0.72770  -0.70270  -0.67170  -0.63791
  Beta  occ. eigenvalues --   -0.61381  -0.58993  -0.55485  -0.54775  -0.52276
  Beta  occ. eigenvalues --   -0.51280  -0.49681  -0.47651  -0.46796  -0.41644
  Beta virt. eigenvalues --    0.03814   0.04736   0.05164   0.05526   0.06666
  Beta virt. eigenvalues --    0.07239   0.08040   0.08888   0.09645   0.11692
  Beta virt. eigenvalues --    0.12705   0.12846   0.13693   0.14275   0.14731
  Beta virt. eigenvalues --    0.16621   0.16963   0.17977   0.18327   0.18697
  Beta virt. eigenvalues --    0.19560   0.19787   0.20087   0.20552   0.22060
  Beta virt. eigenvalues --    0.23027   0.24590   0.24964   0.26725   0.28182
  Beta virt. eigenvalues --    0.28845   0.30182   0.31885   0.32520   0.32912
  Beta virt. eigenvalues --    0.33636   0.34877   0.36183   0.37419   0.38247
  Beta virt. eigenvalues --    0.38768   0.39025   0.39903   0.41072   0.41548
  Beta virt. eigenvalues --    0.42770   0.44950   0.45392   0.48038   0.48684
  Beta virt. eigenvalues --    0.49079   0.50659   0.53468   0.57099   0.59590
  Beta virt. eigenvalues --    0.60747   0.62743   0.64013   0.67465   0.69099
  Beta virt. eigenvalues --    0.72226   0.75931   0.77448   0.78496   0.79334
  Beta virt. eigenvalues --    0.81743   0.83137   0.84910   0.85443   0.86608
  Beta virt. eigenvalues --    0.87912   0.89324   0.90836   0.92926   0.93816
  Beta virt. eigenvalues --    0.97737   1.00831   1.03244   1.09168   1.12761
  Beta virt. eigenvalues --    1.13459   1.18126   1.22031   1.24531   1.25118
  Beta virt. eigenvalues --    1.29782   1.34498   1.36670   1.37704   1.39650
  Beta virt. eigenvalues --    1.40949   1.42110   1.42895   1.45287   1.49878
  Beta virt. eigenvalues --    1.53062   1.55219   1.57575   1.60338   1.61956
  Beta virt. eigenvalues --    1.67813   1.70177   1.72265   1.73781   1.75399
  Beta virt. eigenvalues --    1.79375   1.79659   1.80975   1.82595   1.84228
  Beta virt. eigenvalues --    1.84827   1.90108   1.93257   1.95542   1.96727
  Beta virt. eigenvalues --    1.98985   2.03268   2.04316   2.08690   2.12162
  Beta virt. eigenvalues --    2.16629   2.19368   2.22114   2.23204   2.25659
  Beta virt. eigenvalues --    2.33220   2.39222   2.40537   2.46865   2.50125
  Beta virt. eigenvalues --    2.52987   2.56264   2.61687   2.65131   2.81727
  Beta virt. eigenvalues --    2.82903   2.83662   2.88426   2.91341   2.91908
  Beta virt. eigenvalues --    2.93535   2.94646   2.95610   2.98975   3.00693
  Beta virt. eigenvalues --    3.04123   3.09137   3.10874   3.11837   3.14927
  Beta virt. eigenvalues --    3.22804   3.24679   3.27118   3.28711   3.30247
  Beta virt. eigenvalues --    3.32999   3.38027   3.45209   3.48723   3.51791
  Beta virt. eigenvalues --    3.58559   3.62221   3.65000   3.67102   3.73646
  Beta virt. eigenvalues --    3.78391   3.96266   3.98653   4.00759   4.10129
  Beta virt. eigenvalues --    4.20634   4.21866   4.26670   4.31389   4.39600
  Beta virt. eigenvalues --    4.53052   4.55525   4.66964   5.53938   5.57859
  Beta virt. eigenvalues --    5.62148   5.68708   5.77114   5.89859   6.07647
  Beta virt. eigenvalues --    6.21623   6.42314  24.69484  24.99696  25.00886
  Beta virt. eigenvalues --   25.13899  25.71052  51.57117  51.59276  51.71236
          Condensed to atoms (all electrons):
               1          2          3          4          5          6
     1  O    8.090836   0.285092  -0.008728  -0.035293  -0.011907  -0.016259
     2  H    0.285092   0.445162   0.070607   0.006177  -0.040801  -0.042843
     3  C   -0.008728   0.070607  11.235004   0.500929  -2.924180  -2.005580
     4  H   -0.035293   0.006177   0.500929   0.417169  -0.100006  -0.005610
     5  C   -0.011907  -0.040801  -2.924180  -0.100006  10.081078  -2.188331
     6  C   -0.016259  -0.042843  -2.005580  -0.005610  -2.188331  10.743561
     7  O    0.000188   0.009191   0.185240  -0.000720   0.164327   0.003703
     8  O   -0.004689   0.000029   0.184495   0.001158  -0.315499  -0.069418
     9  C   -0.000967   0.000851   0.039944   0.000004  -0.112615  -0.043286
    10  C   -0.001429  -0.000442   0.033780   0.000634  -0.059380  -0.077113
    11  H    0.000065   0.000010   0.004590  -0.000071   0.017143  -0.016422
    12  H   -0.000142  -0.000199  -0.011045  -0.000083  -0.044821   0.035333
    13  H   -0.000097  -0.000023   0.003216   0.000034   0.010574  -0.019520
    14  H    0.000127   0.000026  -0.009384  -0.000081  -0.006064   0.019631
    15  H    0.000169  -0.000204  -0.001997  -0.000164  -0.024817   0.016339
               7          8          9         10         11         12
     1  O    0.000188  -0.004689  -0.000967  -0.001429   0.000065  -0.000142
     2  H    0.009191   0.000029   0.000851  -0.000442   0.000010  -0.000199
     3  C    0.185240   0.184495   0.039944   0.033780   0.004590  -0.011045
     4  H   -0.000720   0.001158   0.000004   0.000634  -0.000071  -0.000083
     5  C    0.164327  -0.315499  -0.112615  -0.059380   0.017143  -0.044821
     6  C    0.003703  -0.069418  -0.043286  -0.077113  -0.016422   0.035333
     7  O    8.140974  -0.124257   0.028398  -0.053737   0.003882  -0.028879
     8  O   -0.124257   8.386853   0.183061  -0.076078  -0.083953  -0.011446
     9  C    0.028398   0.183061   5.309279  -0.024663   0.436680   0.449099
    10  C   -0.053737  -0.076078  -0.024663   5.476601  -0.045044  -0.040540
    11  H    0.003882  -0.083953   0.436680  -0.045044   0.547041  -0.034769
    12  H   -0.028879  -0.011446   0.449099  -0.040540  -0.034769   0.510710
    13  H   -0.000055   0.017273  -0.048147   0.411817   0.001585  -0.005769
    14  H    0.001818  -0.008837  -0.024146   0.407634  -0.006863   0.000578
    15  H   -0.001929  -0.012919  -0.034150   0.411984   0.006805  -0.001721
              13         14         15
     1  O   -0.000097   0.000127   0.000169
     2  H   -0.000023   0.000026  -0.000204
     3  C    0.003216  -0.009384  -0.001997
     4  H    0.000034  -0.000081  -0.000164
     5  C    0.010574  -0.006064  -0.024817
     6  C   -0.019520   0.019631   0.016339
     7  O   -0.000055   0.001818  -0.001929
     8  O    0.017273  -0.008837  -0.012919
     9  C   -0.048147  -0.024146  -0.034150
    10  C    0.411817   0.407634   0.411984
    11  H    0.001585  -0.006863   0.006805
    12  H   -0.005769   0.000578  -0.001721
    13  H    0.563143  -0.033973  -0.033592
    14  H   -0.033973   0.558540  -0.046246
    15  H   -0.033592  -0.046246   0.549497
          Atomic-Atomic Spin Densities.
               1          2          3          4          5          6
     1  O    0.505408   0.007849   0.247950   0.000089  -0.150637  -0.065128
     2  H    0.007849  -0.023089  -0.021034  -0.000168   0.006600   0.008867
     3  C    0.247950  -0.021034  -1.271422   0.013049   0.101997  -0.127389
     4  H    0.000089  -0.000168   0.013049   0.067809  -0.004012   0.011006
     5  C   -0.150637   0.006600   0.101997  -0.004012   1.603991   0.049633
     6  C   -0.065128   0.008867  -0.127389   0.011006   0.049633  -0.154896
     7  O    0.005951  -0.001511   0.022088  -0.000463  -0.033325  -0.063309
     8  O   -0.000129   0.000211  -0.017130  -0.000615  -0.060223   0.134868
     9  C    0.000187  -0.000077  -0.004967  -0.000135  -0.015269   0.003750
    10  C    0.000830  -0.000035   0.003591  -0.000277   0.005075   0.007979
    11  H    0.000009  -0.000002   0.000030   0.000022  -0.002648   0.002088
    12  H   -0.000245   0.000018  -0.001311   0.000031  -0.001186   0.001823
    13  H    0.000035   0.000009   0.000016  -0.000021   0.000116   0.000252
    14  H   -0.000062  -0.000001  -0.000575   0.000023  -0.000188  -0.000199
    15  H   -0.000082  -0.000012  -0.000061   0.000020  -0.000743  -0.001182
               7          8          9         10         11         12
     1  O    0.005951  -0.000129   0.000187   0.000830   0.000009  -0.000245
     2  H   -0.001511   0.000211  -0.000077  -0.000035  -0.000002   0.000018
     3  C    0.022088  -0.017130  -0.004967   0.003591   0.000030  -0.001311
     4  H   -0.000463  -0.000615  -0.000135  -0.000277   0.000022   0.000031
     5  C   -0.033325  -0.060223  -0.015269   0.005075  -0.002648  -0.001186
     6  C   -0.063309   0.134868   0.003750   0.007979   0.002088   0.001823
     7  O    0.195143   0.006617  -0.006075   0.004498  -0.000267  -0.000095
     8  O    0.006617  -0.056226   0.007934  -0.012552   0.000137  -0.000316
     9  C   -0.006075   0.007934   0.002039   0.001536   0.001008   0.003204
    10  C    0.004498  -0.012552   0.001536  -0.003078  -0.001168  -0.001613
    11  H   -0.000267   0.000137   0.001008  -0.001168   0.000872   0.000306
    12  H   -0.000095  -0.000316   0.003204  -0.001613   0.000306  -0.000580
    13  H    0.000124  -0.000838   0.000931  -0.001143  -0.000113   0.000136
    14  H    0.000010   0.000840   0.000175  -0.000145  -0.000011  -0.000002
    15  H   -0.000424   0.001262  -0.000113   0.000440   0.000287   0.000128
              13         14         15
     1  O    0.000035  -0.000062  -0.000082
     2  H    0.000009  -0.000001  -0.000012
     3  C    0.000016  -0.000575  -0.000061
     4  H   -0.000021   0.000023   0.000020
     5  C    0.000116  -0.000188  -0.000743
     6  C    0.000252  -0.000199  -0.001182
     7  O    0.000124   0.000010  -0.000424
     8  O   -0.000838   0.000840   0.001262
     9  C    0.000931   0.000175  -0.000113
    10  C   -0.001143  -0.000145   0.000440
    11  H   -0.000113  -0.000011   0.000287
    12  H    0.000136  -0.000002   0.000128
    13  H    0.000541   0.000006   0.000199
    14  H    0.000006   0.000231  -0.000136
    15  H    0.000199  -0.000136   0.000304
 Mulliken charges and spin densities:
               1          2
     1  O   -0.296966   0.552025
     2  H    0.267365  -0.022375
     3  C   -1.296888  -1.055169
     4  H    0.215924   0.086359
     5  C    1.555300   1.499180
     6  C   -0.334186  -0.191836
     7  O   -0.328144   0.128961
     8  O   -0.065773   0.003839
     9  C   -0.159341  -0.005871
    10  C   -0.364024   0.003936
    11  H    0.169322   0.000550
    12  H    0.183694   0.000300
    13  H    0.133532   0.000250
    14  H    0.147240  -0.000033
    15  H    0.172945  -0.000115
 Sum of Mulliken charges =  -0.00000   1.00000
 Mulliken charges and spin densities with hydrogens summed into heavy atoms:
               1          2
     1  O   -0.029601   0.529650
     3  C   -1.080964  -0.968811
     5  C    1.555300   1.499180
     6  C   -0.334186  -0.191836
     7  O   -0.328144   0.128961
     8  O   -0.065773   0.003839
     9  C    0.193675  -0.005022
    10  C    0.089693   0.004039
 Electronic spatial extent (au):  <R**2>=           1305.9986
 Charge=              0.0000 electrons
 Dipole moment (field-independent basis, Debye):
    X=             -2.8753    Y=             -1.7464    Z=              0.1283  Tot=              3.3666
 Quadrupole moment (field-independent basis, Debye-Ang):
   XX=            -46.6856   YY=            -48.8156   ZZ=            -47.5867
   XY=             -5.2591   XZ=              1.2338   YZ=             -0.1149
 Traceless Quadrupole moment (field-independent basis, Debye-Ang):
   XX=              1.0104   YY=             -1.1197   ZZ=              0.1093
   XY=             -5.2591   XZ=              1.2338   YZ=             -0.1149
 Octapole moment (field-independent basis, Debye-Ang**2):
  XXX=            -48.6521  YYY=              4.9679  ZZZ=             -3.7063  XYY=             10.3415
  XXY=            -20.3787  XXZ=             -1.8701  XZZ=             -3.1832  YZZ=              0.9956
  YYZ=              1.2102  XYZ=             -4.4044
 Hexadecapole moment (field-independent basis, Debye-Ang**3):
 XXXX=          -1437.7938 YYYY=           -207.3259 ZZZZ=           -112.2064 XXXY=            -72.7449
 XXXZ=             20.3449 YYYX=             14.6050 YYYZ=             -1.0616 ZZZX=              2.5926
 ZZZY=             -2.0291 XXYY=           -230.2108 XXZZ=           -251.5318 YYZZ=            -54.3478
 XXYZ=            -13.6497 YYXZ=              3.4135 ZZXY=              3.8647
 N-N= 3.517795458695D+02 E-N=-1.686102419629D+03  KE= 4.175540148409D+02
 1\1\GINC-AJ\SP\UCCSD(T)-FC\6-311++G(d,p)\C5H7O3(2)\AAYUSH\02-Aug-2025\
 0\\# ccsd(t)/6-311++g(d,p) sp\\Title Card Required\\0,2\O,0,3.299484,0
 .713412,0.107372\H,0,2.570168,1.317693,-0.097861\C,0,2.482047,-0.81788
 8,0.265055\H,0,3.271277,-1.514864,0.492905\C,0,1.225843,-0.762088,0.08
 5815\C,0,-0.008371,-0.046481,-0.205634\O,0,-0.041979,1.138065,-0.41674
 6\O,0,-1.05535,-0.863729,-0.210424\C,0,-2.339906,-0.257787,-0.47437\C,
 0,-2.887892,0.415433,0.767999\H,0,-2.963257,-1.091786,-0.790872\H,0,-2
 .228331,0.448057,-1.298093\H,0,-3.889592,0.797683,0.56286\H,0,-2.95236
 1,-0.297936,1.590825\H,0,-2.255458,1.252032,1.06544\\Version=ES64L-G16
 RevA.03\State=2-A\HF=-417.9924076\MP2=-419.2504014\MP3=-419.2795826\MP
 4D=-419.3103747\MP4DQ=-419.2860691\PUHF=-418.0221287\PMP2-0=-419.27675
 69\PMP3-0=-419.3003483\MP4SDQ=-419.3090476\CCSD=-419.3179464\CCSD(T)=-
 419.3731828\S2=1.120367\S2-1=1.023412\S2A=0.847797\RMSD=6.923e-09\PG=C
 01 [X(C5H7O3)]\\@


 NEVER TEACH A PIG TO SING.
 IT WASTES YOUR TIME AND ANNOYS THE PIG.
     -- SEEN ON A GREETING CARD
 Job cpu time:       0 days 17 hours 16 minutes 49.4 seconds.
 Elapsed time:       0 days  0 hours 43 minutes 28.8 seconds.
 File lengths (MBytes):  RWF=  44733 Int=      0 D2E=      0 Chk=      5 Scr=      1
 Normal termination of Gaussian 16 at Sat Aug  2 02:03:48 2025.
