 Entering Gaussian System, Link 0=g16
 Initial command:
 /opt/g16/l1.exe "/home/aayush/scratches/g16/Gau-3619.inp" -scrdir="/home/aayush/scratches/g16/"
 Entering Link 1 = /opt/g16/l1.exe PID=      3622.
  
 Copyright (c) 1988,1990,1992,1993,1995,1998,2003,2009,2016,
            Gaussian, Inc.  All Rights Reserved.
  
 This is part of the Gaussian(R) 16 program.  It is based on
 the Gaussian(R) 09 system (copyright 2009, Gaussian, Inc.),
 the Gaussian(R) 03 system (copyright 2003, Gaussian, Inc.),
 the Gaussian(R) 98 system (copyright 1998, Gaussian, Inc.),
 the Gaussian(R) 94 system (copyright 1995, Gaussian, Inc.),
 the Gaussian 92(TM) system (copyright 1992, Gaussian, Inc.),
 the Gaussian 90(TM) system (copyright 1990, Gaussian, Inc.),
 the Gaussian 88(TM) system (copyright 1988, Gaussian, Inc.),
 the Gaussian 86(TM) system (copyright 1986, Carnegie Mellon
 University), and the Gaussian 82(TM) system (copyright 1983,
 Carnegie Mellon University). Gaussian is a federally registered
 trademark of Gaussian, Inc.
  
 This software contains proprietary and confidential information,
 including trade secrets, belonging to Gaussian, Inc.
  
 This software is provided under written license and may be
 used, copied, transmitted, or stored only in accord with that
 written license.
  
 The following legend is applicable only to US Government
 contracts under FAR:
  
                    RESTRICTED RIGHTS LEGEND
  
 Use, reproduction and disclosure by the US Government is
 subject to restrictions as set forth in subparagraphs (a)
 and (c) of the Commercial Computer Software - Restricted
 Rights clause in FAR 52.227-19.
  
 Gaussian, Inc.
 340 Quinnipiac St., Bldg. 40, Wallingford CT 06492
  
  
 ---------------------------------------------------------------
 Warning -- This program may not be used in any manner that
 competes with the business of Gaussian, Inc. or will provide
 assistance to any competitor of Gaussian, Inc.  The licensee
 of this program is prohibited from giving any competitor of
 Gaussian, Inc. access to this program.  By using this program,
 the user acknowledges that Gaussian, Inc. is engaged in the
 business of creating and licensing software in the field of
 computational chemistry and represents and warrants to the
 licensee that it is not a competitor of Gaussian, Inc. and that
 it will not use this program in any manner prohibited above.
 ---------------------------------------------------------------
  

 Cite this work as:
 Gaussian 16, Revision A.03,
 M. J. Frisch, G. W. Trucks, H. B. Schlegel, G. E. Scuseria, 
 M. A. Robb, J. R. Cheeseman, G. Scalmani, V. Barone, 
 G. A. Petersson, H. Nakatsuji, X. Li, M. Caricato, A. V. Marenich, 
 J. Bloino, B. G. Janesko, R. Gomperts, B. Mennucci, H. P. Hratchian, 
 J. V. Ortiz, A. F. Izmaylov, J. L. Sonnenberg, D. Williams-Young, 
 F. Ding, F. Lipparini, F. Egidi, J. Goings, B. Peng, A. Petrone, 
 T. Henderson, D. Ranasinghe, V. G. Zakrzewski, J. Gao, N. Rega, 
 G. Zheng, W. Liang, M. Hada, M. Ehara, K. Toyota, R. Fukuda, 
 J. Hasegawa, M. Ishida, T. Nakajima, Y. Honda, O. Kitao, H. Nakai, 
 T. Vreven, K. Throssell, J. A. Montgomery, Jr., J. E. Peralta, 
 F. Ogliaro, M. J. Bearpark, J. J. Heyd, E. N. Brothers, K. N. Kudin, 
 V. N. Staroverov, T. A. Keith, R. Kobayashi, J. Normand, 
 K. Raghavachari, A. P. Rendell, J. C. Burant, S. S. Iyengar, 
 J. Tomasi, M. Cossi, J. M. Millam, M. Klene, C. Adamo, R. Cammi, 
 J. W. Ochterski, R. L. Martin, K. Morokuma, O. Farkas, 
 J. B. Foresman, and D. J. Fox, Gaussian, Inc., Wallingford CT, 2016.
 
 ******************************************
 Gaussian 16:  ES64L-G16RevA.03 25-Dec-2016
                18-Jul-2025 
 ******************************************
 %nprocshared=24
 Will use up to   24 processors via shared memory.
 %mem=12GB
 %chk=ethyl_propiolate_ts1.chk
 --------------------------
 # ccsd(t)/6-311++g(d,p) sp
 --------------------------
 1/38=1,172=1/1;
 2/12=2,17=6,18=5,40=1/2;
 3/5=4,6=6,7=1111,11=9,25=1,30=1/1,2,3;
 4//1;
 5/5=2,38=5/2;
 8/6=4,9=120000,10=2/1,4;
 9/5=7,14=2/13;
 6/7=2,8=2,9=2,10=2/1;
 99/5=1,9=1/99;
 -------------------
 Title Card Required
 -------------------
 Symbolic Z-matrix:
 Charge =  0 Multiplicity = 2
 O                     3.41241   0.89249   0.11101 
 H                     2.60099   1.39881  -0.07473 
 C                     2.32496  -1.18604   0.27303 
 H                     3.2899   -1.5952    0.46162 
 C                     1.22167  -0.76093   0.06353 
 C                    -0.01064  -0.04038  -0.20715 
 O                    -0.02972   1.15029  -0.38504 
 O                    -1.06622  -0.84365  -0.2357 
 C                    -2.34256  -0.21542  -0.48334 
 C                    -2.88419   0.42845   0.77731 
 H                    -2.97533  -1.03271  -0.8239 
 H                    -2.22199   0.51249  -1.28632 
 H                    -3.88108   0.82837   0.5826 
 H                    -2.95769  -0.30738   1.57933 
 H                    -2.24189   1.24842   1.0989 
 
                          Input orientation:                          
 ---------------------------------------------------------------------
 Center     Atomic      Atomic             Coordinates (Angstroms)
 Number     Number       Type             X           Y           Z
 ---------------------------------------------------------------------
      1          8           0        3.412406    0.892494    0.111010
      2          1           0        2.600990    1.398807   -0.074731
      3          6           0        2.324959   -1.186035    0.273028
      4          1           0        3.289900   -1.595199    0.461619
      5          6           0        1.221670   -0.760927    0.063532
      6          6           0       -0.010639   -0.040382   -0.207145
      7          8           0       -0.029724    1.150292   -0.385044
      8          8           0       -1.066223   -0.843654   -0.235697
      9          6           0       -2.342562   -0.215417   -0.483335
     10          6           0       -2.884191    0.428450    0.777312
     11          1           0       -2.975330   -1.032707   -0.823900
     12          1           0       -2.221988    0.512487   -1.286321
     13          1           0       -3.881076    0.828371    0.582604
     14          1           0       -2.957694   -0.307375    1.579333
     15          1           0       -2.241888    1.248419    1.098898
 ---------------------------------------------------------------------
                    Distance matrix (angstroms):
                    1          2          3          4          5
     1  O    0.000000
     2  H    0.974294   0.000000
     3  C    2.351398   2.622697   0.000000
     4  H    2.515264   3.118708   1.064938   0.000000
     5  C    2.745065   2.566338   1.200771   2.265405   0.000000
     6  C    3.562123   2.984863   2.645393   3.709213   1.452941
     7  O    3.487232   2.660585   3.381718   4.390269   2.328082
     8  O    4.815863   4.301510   3.446178   4.475140   2.308860
     9  C    5.890702   5.216453   4.827001   5.875488   3.646971
    10  C    6.348734   5.635138   5.476870   6.504938   4.333843
    11  H    6.736737   6.129344   5.414778   6.420441   4.298396
    12  H    5.817502   5.051201   5.098164   6.154555   3.911837
    13  H    7.308994   6.540234   6.532116   7.570418   5.369667
    14  H    6.646340   6.045325   5.512250   6.476126   4.468830
    15  H    5.750969   4.985327   5.240679   6.252437   4.135902
                    6          7          8          9         10
     6  C    0.000000
     7  O    1.204042   0.000000
     8  O    1.326770   2.252211   0.000000
     9  C    2.354736   2.687758   1.443969   0.000000
    10  C    3.073477   3.165456   2.439148   1.515638   0.000000
    11  H    3.186611   3.692516   2.006592   1.088275   2.169600
    12  H    2.521973   2.454611   2.068507   1.090490   2.168907
    13  H    4.044591   3.984079   3.374712   2.143069   1.091617
    14  H    3.456577   3.815308   2.675741   2.154401   1.090907
    15  H    2.888811   2.665592   2.745925   2.157872   1.090101
                   11         12         13         14         15
    11  H    0.000000
    12  H    1.780163   0.000000
    13  H    2.502447   2.518975   0.000000
    14  H    2.510368   3.070083   1.770882   0.000000
    15  H    3.072235   2.496250   1.769163   1.778677   0.000000
 Stoichiometry    C5H7O3(2)
 Framework group  C1[X(C5H7O3)]
 Deg. of freedom    39
 Full point group                 C1      NOp   1
 Largest Abelian subgroup         C1      NOp   1
 Largest concise Abelian subgroup C1      NOp   1
                         Standard orientation:                         
 ---------------------------------------------------------------------
 Center     Atomic      Atomic             Coordinates (Angstroms)
 Number     Number       Type             X           Y           Z
 ---------------------------------------------------------------------
      1          8           0        3.412406    0.892494    0.111010
      2          1           0        2.600990    1.398807   -0.074731
      3          6           0        2.324959   -1.186035    0.273028
      4          1           0        3.289900   -1.595199    0.461619
      5          6           0        1.221670   -0.760927    0.063532
      6          6           0       -0.010639   -0.040382   -0.207145
      7          8           0       -0.029724    1.150292   -0.385044
      8          8           0       -1.066223   -0.843654   -0.235697
      9          6           0       -2.342562   -0.215417   -0.483335
     10          6           0       -2.884191    0.428450    0.777312
     11          1           0       -2.975330   -1.032707   -0.823900
     12          1           0       -2.221988    0.512487   -1.286321
     13          1           0       -3.881076    0.828371    0.582604
     14          1           0       -2.957694   -0.307375    1.579333
     15          1           0       -2.241888    1.248419    1.098898
 ---------------------------------------------------------------------
 Rotational constants (GHZ):           4.9720134           0.9452980           0.8520489
 Standard basis: 6-311++G(d,p) (5D, 7F)
 There are   233 symmetry adapted cartesian basis functions of A   symmetry.
 There are   225 symmetry adapted basis functions of A   symmetry.
   225 basis functions,   351 primitive gaussians,   233 cartesian basis functions
    31 alpha electrons       30 beta electrons
       nuclear repulsion energy       346.7050077449 Hartrees.
 NAtoms=   15 NActive=   15 NUniq=   15 SFac= 1.00D+00 NAtFMM=   60 NAOKFM=F Big=F
 Integral buffers will be    131072 words long.
 Raffenetti 2 integral format.
 Two-electron integral symmetry is turned on.
 One-electron integrals computed using PRISM.
 NBasis=   225 RedAO= T EigKep=  1.03D-06  NBF=   225
 NBsUse=   225 1.00D-06 EigRej= -1.00D+00 NBFU=   225
 ExpMin= 3.60D-02 ExpMax= 8.59D+03 ExpMxC= 1.30D+03 IAcc=3 IRadAn=         5 AccDes= 0.00D+00
 Harris functional with IExCor=  205 and IRadAn=       5 diagonalized for initial guess.
 HarFok:  IExCor=  205 AccDes= 0.00D+00 IRadAn=         5 IDoV= 1 UseB2=F ITyADJ=14
 ICtDFT=  3500011 ScaDFX=  1.000000  1.000000  1.000000  1.000000
 FoFCou: FMM=F IPFlag=           0 FMFlag=      100000 FMFlg1=           0
         NFxFlg=           0 DoJE=T BraDBF=F KetDBF=T FulRan=T
         wScrn=  0.000000 ICntrl=       500 IOpCl=  0 I1Cent=   200000004 NGrid=           0
         NMat0=    1 NMatS0=      1 NMatT0=    0 NMatD0=    1 NMtDS0=    0 NMtDT0=    0
 Petite list used in FoFCou.
 Initial guess <Sx>= 0.0000 <Sy>= 0.0000 <Sz>= 0.5000 <S**2>= 0.7500 S= 0.5000
 Requested convergence on RMS density matrix=1.00D-08 within 128 cycles.
 Requested convergence on MAX density matrix=1.00D-06.
 Requested convergence on             energy=1.00D-06.
 No special actions if energy rises.
 Initial convergence to 1.0D-05 achieved.  Increase integral accuracy.
 SCF Done:  E(UHF) =  -417.996455365     A.U. after   35 cycles
            NFock= 35  Conv=0.97D-08     -V/T= 2.0007
 <Sx>= 0.0000 <Sy>= 0.0000 <Sz>= 0.5000 <S**2>= 0.8166 S= 0.5328
 <L.S>=  0.00000000000    
 Annihilation of the first spin contaminant:
 S**2 before annihilation     0.8166,   after     0.7530
 ExpMin= 3.60D-02 ExpMax= 8.59D+03 ExpMxC= 1.30D+03 IAcc=3 IRadAn=         5 AccDes= 0.00D+00
 HarFok:  IExCor=  205 AccDes= 0.00D+00 IRadAn=         5 IDoV=-2 UseB2=F ITyADJ=14
 ICtDFT= 12500011 ScaDFX=  1.000000  1.000000  1.000000  1.000000
 Range of M.O.s used for correlation:     9   225
 NBasis=   225 NAE=    31 NBE=    30 NFC=     8 NFV=     0
 NROrb=    217 NOA=    23 NOB=    22 NVA=   194 NVB=   195

 **** Warning!!: The largest alpha MO coefficient is  0.25226143D+03


 **** Warning!!: The largest beta MO coefficient is  0.23413674D+03

 Semi-Direct transformation.
 ModeAB=           4 MOrb=            23 LenV=    1609180121
 LASXX=    109339976 LTotXX=   109339976 LenRXX=   221407890
 LTotAB=   112067914 MaxLAS=   125259127 LenRXY=           0
 NonZer=   330747866 LenScr=   498067456 LnRSAI=   125259127
 LnScr1=   188666368 LExtra=           0 Total=   1033400841
 MaxDsk=          -1 SrtSym=           T ITran=            4
 JobTyp=1 Pass  1:  I=   1 to  23.
 (rs|ai) integrals will be sorted in core.
 ModeAB=           4 MOrb=            22 LenV=    1609180121
 LASXX=    104936601 LTotXX=   104936601 LenRXX=   190867446
 LTotAB=    85930845 MaxLAS=   119813078 LenRXY=           0
 NonZer=   295804047 LenScr=   445446144 LnRSAI=   119813078
 LnScr1=   180483072 LExtra=           0 Total=    936609740
 MaxDsk=          -1 SrtSym=           T ITran=            4
 JobTyp=2 Pass  1:  I=   1 to  22.
 (rs|ai) integrals will be sorted in core.
 SymMOI:  orbitals are not symmetric.
 Spin components of T(2) and E(2):
     alpha-alpha T2 =       0.5186296426D-01 E2=     -0.1687227851D+00
     alpha-beta  T2 =       0.2863487631D+00 E2=     -0.9348519286D+00
     beta-beta   T2 =       0.5005596802D-01 E2=     -0.1557489483D+00
 ANorm=    0.1178247722D+01
 E2 =    -0.1259323662D+01 EUMP2 =    -0.41925577902680D+03
 (S**2,0)=  0.81663D+00           (S**2,1)=  0.79602D+00
 E(PUHF)=      -0.41800325920D+03        E(PMP2)=      -0.41926155802D+03
 Keep R2 and R3 ints in memory in canonical form, NReq=652884060.
 CIDS: In Core Option IDoMem=           1.
 Iterations=  50 Convergence= 0.100D-06
 Produce multiple copies of IABC intergrals
 Iteration Nr.   1
 **********************
 DD1Dir will call FoFMem   1 times, MxPair=      1496
 NAB=   506 NAA=   253 NBB=   231.
 E(PMP3)=      -0.41928725523D+03
 MP4(R+Q)=  0.25117076D-01
 E3=       -0.27375688D-01        EUMP3=      -0.41928315472D+03
 E4(DQ)=   -0.55614876D-02        UMP4(DQ)=   -0.41928871620D+03
 E4(SDQ)=  -0.24130952D-01        UMP4(SDQ)=  -0.41930728567D+03
 DE(Corr)=  -1.2609755     E(Corr)=     -419.25743086    
 NORM(A)=   0.11845034D+01
 Iteration Nr.   2
 **********************
 DD1Dir will call FoFMem   1 times, MxPair=      1496
 NAB=   506 NAA=   253 NBB=   231.
 DE(Corr)=  -1.3028226     E(CORR)=     -419.29927792     Delta=-4.18D-02
 NORM(A)=   0.12024747D+01
 Iteration Nr.   3
 **********************
 DD1Dir will call FoFMem   1 times, MxPair=      1496
 NAB=   506 NAA=   253 NBB=   231.
 DE(Corr)=  -1.3044063     E(CORR)=     -419.30086162     Delta=-1.58D-03
 NORM(A)=   0.12093234D+01
 Iteration Nr.   4
 **********************
 DD1Dir will call FoFMem   1 times, MxPair=      1496
 NAB=   506 NAA=   253 NBB=   231.
 DE(Corr)=  -1.3095287     E(CORR)=     -419.30598403     Delta=-5.12D-03
 NORM(A)=   0.12126100D+01
 Iteration Nr.   5
 **********************
 DD1Dir will call FoFMem   1 times, MxPair=      1496
 NAB=   506 NAA=   253 NBB=   231.
 DE(Corr)=  -1.3105243     E(CORR)=     -419.30697965     Delta=-9.96D-04
 NORM(A)=   0.12144413D+01
 Iteration Nr.   6
 **********************
 DD1Dir will call FoFMem   1 times, MxPair=      1496
 NAB=   506 NAA=   253 NBB=   231.
 DE(Corr)=  -1.3108200     E(CORR)=     -419.30727534     Delta=-2.96D-04
 NORM(A)=   0.12148250D+01
 Iteration Nr.   7
 **********************
 DD1Dir will call FoFMem   1 times, MxPair=      1496
 NAB=   506 NAA=   253 NBB=   231.
 DE(Corr)=  -1.3108774     E(CORR)=     -419.30733273     Delta=-5.74D-05
 NORM(A)=   0.12149057D+01
 Iteration Nr.   8
 **********************
 DD1Dir will call FoFMem   1 times, MxPair=      1496
 NAB=   506 NAA=   253 NBB=   231.
 DE(Corr)=  -1.3108656     E(CORR)=     -419.30732099     Delta= 1.17D-05
 NORM(A)=   0.12149396D+01
 Iteration Nr.   9
 **********************
 DD1Dir will call FoFMem   1 times, MxPair=      1496
 NAB=   506 NAA=   253 NBB=   231.
 DE(Corr)=  -1.3108757     E(CORR)=     -419.30733103     Delta=-1.00D-05
 NORM(A)=   0.12149442D+01
 Iteration Nr.  10
 **********************
 DD1Dir will call FoFMem   1 times, MxPair=      1496
 NAB=   506 NAA=   253 NBB=   231.
 DE(Corr)=  -1.3108769     E(CORR)=     -419.30733224     Delta=-1.20D-06
 NORM(A)=   0.12149514D+01
 Iteration Nr.  11
 **********************
 DD1Dir will call FoFMem   1 times, MxPair=      1496
 NAB=   506 NAA=   253 NBB=   231.
 DE(Corr)=  -1.3108837     E(CORR)=     -419.30733902     Delta=-6.78D-06
 NORM(A)=   0.12149585D+01
 Iteration Nr.  12
 **********************
 DD1Dir will call FoFMem   1 times, MxPair=      1496
 NAB=   506 NAA=   253 NBB=   231.
 DE(Corr)=  -1.3108850     E(CORR)=     -419.30734032     Delta=-1.31D-06
 NORM(A)=   0.12149645D+01
 Iteration Nr.  13
 **********************
 DD1Dir will call FoFMem   1 times, MxPair=      1496
 NAB=   506 NAA=   253 NBB=   231.
 DE(Corr)=  -1.3108872     E(CORR)=     -419.30734253     Delta=-2.20D-06
 NORM(A)=   0.12149689D+01
 Iteration Nr.  14
 **********************
 DD1Dir will call FoFMem   1 times, MxPair=      1496
 NAB=   506 NAA=   253 NBB=   231.
 DE(Corr)=  -1.3108880     E(CORR)=     -419.30734334     Delta=-8.17D-07
 NORM(A)=   0.12149717D+01
 Iteration Nr.  15
 **********************
 DD1Dir will call FoFMem   1 times, MxPair=      1496
 NAB=   506 NAA=   253 NBB=   231.
 DE(Corr)=  -1.3108883     E(CORR)=     -419.30734371     Delta=-3.66D-07
 NORM(A)=   0.12149733D+01
 Iteration Nr.  16
 **********************
 DD1Dir will call FoFMem   1 times, MxPair=      1496
 NAB=   506 NAA=   253 NBB=   231.
 DE(Corr)=  -1.3108887     E(CORR)=     -419.30734409     Delta=-3.78D-07
 NORM(A)=   0.12149740D+01
 Iteration Nr.  17
 **********************
 DD1Dir will call FoFMem   1 times, MxPair=      1496
 NAB=   506 NAA=   253 NBB=   231.
 DE(Corr)=  -1.3108888     E(CORR)=     -419.30734413     Delta=-4.70D-08
 NORM(A)=   0.12149743D+01
 Wavefunction amplitudes converged. E(Corr)=     -419.30734413    
 Largest amplitude= 4.49D-02
 Time for triples=    37488.97 seconds.
 T4(CCSD)= -0.55666098D-01
 T5(CCSD)=  0.34016858D-02
 CCSD(T)= -0.41935960855D+03

 S**2, projected HF & approx projected MPn energies after annihilation of
 unwanted spin states (see manual for definitions):

 spins       (S**2,0) (S**2,1)    PUHF        PMP2        PMP3        PMP4
 annihilated
 s+1         0.74822  0.74947 -418.003259 -419.261558 -419.287255
 s+1,s+2     0.75001  0.75000 -418.003089 -419.261400 -419.287111
 s+1 to s+3  0.75000  0.75000 -418.003091 -419.261401 -419.287111
 s+1 to s+4  0.75000  0.75000 -418.003091 -419.261401 -419.287111
 s+1 to s+5  0.75000  0.75000 -418.003091
 s+1 to s+6  0.75000  0.75000 -418.003091

 Discarding MO integrals.

 **********************************************************************

            Population analysis using the SCF density.

 **********************************************************************

 Orbital symmetries:
 Alpha Orbitals:
       Occupied  (A) (A) (A) (A) (A) (A) (A) (A) (A) (A) (A) (A)
                 (A) (A) (A) (A) (A) (A) (A) (A) (A) (A) (A) (A)
                 (A) (A) (A) (A) (A) (A) (A)
       Virtual   (A) (A) (A) (A) (A) (A) (A) (A) (A) (A) (A) (A)
                 (A) (A) (A) (A) (A) (A) (A) (A) (A) (A) (A) (A)
                 (A) (A) (A) (A) (A) (A) (A) (A) (A) (A) (A) (A)
                 (A) (A) (A) (A) (A) (A) (A) (A) (A) (A) (A) (A)
                 (A) (A) (A) (A) (A) (A) (A) (A) (A) (A) (A) (A)
                 (A) (A) (A) (A) (A) (A) (A) (A) (A) (A) (A) (A)
                 (A) (A) (A) (A) (A) (A) (A) (A) (A) (A) (A) (A)
                 (A) (A) (A) (A) (A) (A) (A) (A) (A) (A) (A) (A)
                 (A) (A) (A) (A) (A) (A) (A) (A) (A) (A) (A) (A)
                 (A) (A) (A) (A) (A) (A) (A) (A) (A) (A) (A) (A)
                 (A) (A) (A) (A) (A) (A) (A) (A) (A) (A) (A) (A)
                 (A) (A) (A) (A) (A) (A) (A) (A) (A) (A) (A) (A)
                 (A) (A) (A) (A) (A) (A) (A) (A) (A) (A) (A) (A)
                 (A) (A) (A) (A) (A) (A) (A) (A) (A) (A) (A) (A)
                 (A) (A) (A) (A) (A) (A) (A) (A) (A) (A) (A) (A)
                 (A) (A) (A) (A) (A) (A) (A) (A) (A) (A) (A) (A)
                 (A) (A)
 Beta  Orbitals:
       Occupied  (A) (A) (A) (A) (A) (A) (A) (A) (A) (A) (A) (A)
                 (A) (A) (A) (A) (A) (A) (A) (A) (A) (A) (A) (A)
                 (A) (A) (A) (A) (A) (A)
       Virtual   (A) (A) (A) (A) (A) (A) (A) (A) (A) (A) (A) (A)
                 (A) (A) (A) (A) (A) (A) (A) (A) (A) (A) (A) (A)
                 (A) (A) (A) (A) (A) (A) (A) (A) (A) (A) (A) (A)
                 (A) (A) (A) (A) (A) (A) (A) (A) (A) (A) (A) (A)
                 (A) (A) (A) (A) (A) (A) (A) (A) (A) (A) (A) (A)
                 (A) (A) (A) (A) (A) (A) (A) (A) (A) (A) (A) (A)
                 (A) (A) (A) (A) (A) (A) (A) (A) (A) (A) (A) (A)
                 (A) (A) (A) (A) (A) (A) (A) (A) (A) (A) (A) (A)
                 (A) (A) (A) (A) (A) (A) (A) (A) (A) (A) (A) (A)
                 (A) (A) (A) (A) (A) (A) (A) (A) (A) (A) (A) (A)
                 (A) (A) (A) (A) (A) (A) (A) (A) (A) (A) (A) (A)
                 (A) (A) (A) (A) (A) (A) (A) (A) (A) (A) (A) (A)
                 (A) (A) (A) (A) (A) (A) (A) (A) (A) (A) (A) (A)
                 (A) (A) (A) (A) (A) (A) (A) (A) (A) (A) (A) (A)
                 (A) (A) (A) (A) (A) (A) (A) (A) (A) (A) (A) (A)
                 (A) (A) (A) (A) (A) (A) (A) (A) (A) (A) (A) (A)
                 (A) (A) (A)
 The electronic state is 2-A.
 Alpha  occ. eigenvalues --  -20.62336 -20.61847 -20.57217 -11.42453 -11.30457
 Alpha  occ. eigenvalues --  -11.26831 -11.26160 -11.23195  -1.49320  -1.39302
 Alpha  occ. eigenvalues --   -1.37269  -1.08804  -1.04636  -0.93002  -0.84519
 Alpha  occ. eigenvalues --   -0.77383  -0.73323  -0.70763  -0.67461  -0.66452
 Alpha  occ. eigenvalues --   -0.64680  -0.63999  -0.59293  -0.56076  -0.54856
 Alpha  occ. eigenvalues --   -0.54509  -0.51412  -0.49675  -0.47854  -0.42968
 Alpha  occ. eigenvalues --   -0.42133
 Alpha virt. eigenvalues --    0.03877   0.04679   0.05621   0.06299   0.07179
 Alpha virt. eigenvalues --    0.08530   0.08594   0.09362   0.11079   0.12203
 Alpha virt. eigenvalues --    0.12680   0.13530   0.14452   0.14932   0.16390
 Alpha virt. eigenvalues --    0.17223   0.18123   0.18470   0.18622   0.19524
 Alpha virt. eigenvalues --    0.19760   0.20303   0.21046   0.22058   0.22402
 Alpha virt. eigenvalues --    0.23185   0.24769   0.27630   0.28260   0.28544
 Alpha virt. eigenvalues --    0.29397   0.29942   0.31086   0.32632   0.33519
 Alpha virt. eigenvalues --    0.33893   0.35832   0.36046   0.36800   0.37767
 Alpha virt. eigenvalues --    0.38519   0.39226   0.40683   0.41916   0.42171
 Alpha virt. eigenvalues --    0.44358   0.45544   0.45750   0.47945   0.48536
 Alpha virt. eigenvalues --    0.50923   0.53266   0.57180   0.59728   0.62310
 Alpha virt. eigenvalues --    0.62472   0.64182   0.69047   0.70645   0.71519
 Alpha virt. eigenvalues --    0.76382   0.77971   0.78703   0.80558   0.83208
 Alpha virt. eigenvalues --    0.83425   0.84968   0.86085   0.87218   0.88710
 Alpha virt. eigenvalues --    0.89485   0.89873   0.90732   0.93902   0.96465
 Alpha virt. eigenvalues --    1.02090   1.05304   1.09196   1.12982   1.19221
 Alpha virt. eigenvalues --    1.21873   1.24358   1.25500   1.26865   1.30351
 Alpha virt. eigenvalues --    1.31710   1.34643   1.35547   1.38295   1.39055
 Alpha virt. eigenvalues --    1.41065   1.43113   1.46137   1.50991   1.53405
 Alpha virt. eigenvalues --    1.54708   1.55606   1.58346   1.60446   1.61304
 Alpha virt. eigenvalues --    1.64661   1.67742   1.70474   1.72789   1.73413
 Alpha virt. eigenvalues --    1.79748   1.81127   1.82573   1.84033   1.87757
 Alpha virt. eigenvalues --    1.89665   1.90579   1.93046   1.95759   1.97461
 Alpha virt. eigenvalues --    2.00581   2.06077   2.08886   2.09778   2.10877
 Alpha virt. eigenvalues --    2.18568   2.22728   2.25635   2.29486   2.32474
 Alpha virt. eigenvalues --    2.36591   2.37590   2.40906   2.48928   2.59842
 Alpha virt. eigenvalues --    2.63480   2.70838   2.77433   2.81966   2.83536
 Alpha virt. eigenvalues --    2.84877   2.87565   2.91705   2.92510   2.94042
 Alpha virt. eigenvalues --    2.96055   2.96950   3.01777   3.02611   3.04584
 Alpha virt. eigenvalues --    3.09210   3.11267   3.15321   3.17440   3.22953
 Alpha virt. eigenvalues --    3.23763   3.26639   3.29203   3.32331   3.36441
 Alpha virt. eigenvalues --    3.39671   3.43534   3.45934   3.48292   3.49511
 Alpha virt. eigenvalues --    3.56518   3.59082   3.64745   3.70313   3.73023
 Alpha virt. eigenvalues --    3.77609   3.91587   4.01035   4.09562   4.20749
 Alpha virt. eigenvalues --    4.22029   4.23238   4.27152   4.41295   4.52998
 Alpha virt. eigenvalues --    4.55436   4.66700   5.48024   5.53066   5.57676
 Alpha virt. eigenvalues --    5.61512   5.76758   5.90415   6.00507   6.20421
 Alpha virt. eigenvalues --    6.42575  24.69954  25.00578  25.01690  25.14334
 Alpha virt. eigenvalues --   26.27198  51.49849  51.59110  51.71300
  Beta  occ. eigenvalues --  -20.62325 -20.57758 -20.57001 -11.42620 -11.30454
  Beta  occ. eigenvalues --  -11.27624 -11.25206 -11.23195  -1.49200  -1.38931
  Beta  occ. eigenvalues --   -1.21771  -1.07919  -1.04644  -0.93291  -0.84514
  Beta  occ. eigenvalues --   -0.77341  -0.73289  -0.70493  -0.67265  -0.64006
  Beta  occ. eigenvalues --   -0.62004  -0.59086  -0.55635  -0.54796  -0.51306
  Beta  occ. eigenvalues --   -0.49680  -0.49137  -0.47326  -0.43161  -0.42753
  Beta virt. eigenvalues --    0.03879   0.04666   0.05624   0.06078   0.06967
  Beta virt. eigenvalues --    0.07881   0.08398   0.09091   0.10466   0.12055
  Beta virt. eigenvalues --    0.12408   0.13057   0.13612   0.14523   0.14960
  Beta virt. eigenvalues --    0.16435   0.17277   0.18189   0.18390   0.18669
  Beta virt. eigenvalues --    0.19440   0.19914   0.20359   0.21093   0.22066
  Beta virt. eigenvalues --    0.23114   0.23477   0.25124   0.27894   0.28608
  Beta virt. eigenvalues --    0.28763   0.29703   0.30207   0.31401   0.32956
  Beta virt. eigenvalues --    0.33588   0.34087   0.35919   0.36283   0.37116
  Beta virt. eigenvalues --    0.38516   0.39278   0.40719   0.40928   0.42025
  Beta virt. eigenvalues --    0.42323   0.45055   0.45649   0.46399   0.48095
  Beta virt. eigenvalues --    0.48809   0.51259   0.53610   0.57201   0.59841
  Beta virt. eigenvalues --    0.62320   0.62623   0.64227   0.69202   0.70194
  Beta virt. eigenvalues --    0.71515   0.77042   0.77832   0.78430   0.80573
  Beta virt. eigenvalues --    0.82834   0.83769   0.85182   0.86657   0.87192
  Beta virt. eigenvalues --    0.88683   0.89810   0.90543   0.91177   0.93973
  Beta virt. eigenvalues --    0.96692   1.02556   1.05796   1.09428   1.13026
  Beta virt. eigenvalues --    1.19231   1.24248   1.26996   1.27348   1.28053
  Beta virt. eigenvalues --    1.30449   1.33693   1.35001   1.35986   1.38752
  Beta virt. eigenvalues --    1.39530   1.41377   1.43236   1.46963   1.52807
  Beta virt. eigenvalues --    1.53797   1.55132   1.55427   1.60045   1.60441
  Beta virt. eigenvalues --    1.61302   1.64488   1.69800   1.71289   1.73035
  Beta virt. eigenvalues --    1.75008   1.79878   1.81249   1.82580   1.84079
  Beta virt. eigenvalues --    1.88039   1.90054   1.90725   1.93062   1.95844
  Beta virt. eigenvalues --    1.97590   2.01262   2.06409   2.08956   2.09835
  Beta virt. eigenvalues --    2.10915   2.18666   2.22773   2.25689   2.29520
  Beta virt. eigenvalues --    2.32501   2.37465   2.38518   2.40905   2.48954
  Beta virt. eigenvalues --    2.59844   2.63487   2.70833   2.77595   2.81969
  Beta virt. eigenvalues --    2.83536   2.84911   2.87377   2.91742   2.92572
  Beta virt. eigenvalues --    2.94370   2.96065   2.97126   3.02008   3.02499
  Beta virt. eigenvalues --    3.04601   3.09777   3.13766   3.20387   3.23088
  Beta virt. eigenvalues --    3.24471   3.26847   3.29386   3.31574   3.33189
  Beta virt. eigenvalues --    3.36673   3.41603   3.44642   3.47006   3.50338
  Beta virt. eigenvalues --    3.54464   3.58531   3.59319   3.64817   3.70410
  Beta virt. eigenvalues --    3.73323   3.77900   3.91480   4.01174   4.09771
  Beta virt. eigenvalues --    4.20754   4.22036   4.26778   4.27207   4.41308
  Beta virt. eigenvalues --    4.53095   4.55533   4.66714   5.50545   5.57722
  Beta virt. eigenvalues --    5.62038   5.65974   5.77029   5.90452   6.03092
  Beta virt. eigenvalues --    6.20499   6.42632  24.70080  25.00492  25.01649
  Beta virt. eigenvalues --   25.14332  26.27206  51.52203  51.59129  51.71421
          Condensed to atoms (all electrons):
               1          2          3          4          5          6
     1  O    8.016452   0.299058   0.221524  -0.004281  -0.155756  -0.128444
     2  H    0.299058   0.426850  -0.055376  -0.001607   0.003085   0.057508
     3  C    0.221524  -0.055376  37.662489   0.829276 -13.500096 -16.889853
     4  H   -0.004281  -0.001607   0.829276   0.410168  -0.362987  -0.056833
     5  C   -0.155756   0.003085 -13.500096  -0.362987  20.663961  -3.375682
     6  C   -0.128444   0.057508 -16.889853  -0.056833  -3.375682  27.126405
     7  O   -0.000077   0.006012   0.475381  -0.000629   0.401281  -0.500902
     8  O   -0.001941  -0.000029   0.146399  -0.001930  -0.188346  -0.147778
     9  C    0.000322   0.000516  -0.024538   0.000599  -0.372443   0.241843
    10  C   -0.000558  -0.000420   0.080087   0.000790  -0.058807  -0.142413
    11  H    0.000036  -0.000002   0.001851   0.000082   0.011466  -0.006597
    12  H   -0.000175  -0.000072  -0.025912  -0.000212  -0.057829   0.054592
    13  H   -0.000021  -0.000037   0.007244   0.000014   0.011545  -0.025174
    14  H   -0.000013   0.000020  -0.016188  -0.000075  -0.007109   0.025819
    15  H    0.000070  -0.000122   0.002776  -0.000008  -0.025226   0.006717
               7          8          9         10         11         12
     1  O   -0.000077  -0.001941   0.000322  -0.000558   0.000036  -0.000175
     2  H    0.006012  -0.000029   0.000516  -0.000420  -0.000002  -0.000072
     3  C    0.475381   0.146399  -0.024538   0.080087   0.001851  -0.025912
     4  H   -0.000629  -0.001930   0.000599   0.000790   0.000082  -0.000212
     5  C    0.401281  -0.188346  -0.372443  -0.058807   0.011466  -0.057829
     6  C   -0.500902  -0.147778   0.241843  -0.142413  -0.006597   0.054592
     7  O    8.124978  -0.105931   0.006207  -0.053061   0.001034  -0.025480
     8  O   -0.105931   8.304834   0.201366  -0.075717  -0.080482  -0.012255
     9  C    0.006207   0.201366   5.331433  -0.014154   0.432907   0.453081
    10  C   -0.053061  -0.075717  -0.014154   5.462715  -0.042731  -0.035288
    11  H    0.001034  -0.080482   0.432907  -0.042731   0.540328  -0.033199
    12  H   -0.025480  -0.012255   0.453081  -0.035288  -0.033199   0.508276
    13  H   -0.000242   0.016869  -0.042718   0.403579   0.001984  -0.003911
    14  H    0.002463  -0.008445  -0.024523   0.414180  -0.005555  -0.000871
    15  H   -0.002948  -0.010818  -0.034938   0.417077   0.006146  -0.001661
              13         14         15
     1  O   -0.000021  -0.000013   0.000070
     2  H   -0.000037   0.000020  -0.000122
     3  C    0.007244  -0.016188   0.002776
     4  H    0.000014  -0.000075  -0.000008
     5  C    0.011545  -0.007109  -0.025226
     6  C   -0.025174   0.025819   0.006717
     7  O   -0.000242   0.002463  -0.002948
     8  O    0.016869  -0.008445  -0.010818
     9  C   -0.042718  -0.024523  -0.034938
    10  C    0.403579   0.414180   0.417077
    11  H    0.001984  -0.005555   0.006146
    12  H   -0.003911  -0.000871  -0.001661
    13  H    0.556904  -0.030999  -0.032721
    14  H   -0.030999   0.551983  -0.046422
    15  H   -0.032721  -0.046422   0.549757
          Atomic-Atomic Spin Densities.
               1          2          3          4          5          6
     1  O    1.016436   0.003843   0.099013   0.004208  -0.083935  -0.049645
     2  H    0.003843  -0.040428  -0.017495  -0.000663   0.006528   0.013666
     3  C    0.099013  -0.017495  -0.655752   0.035833   0.427940  -0.303733
     4  H    0.004208  -0.000663   0.035833   0.030354  -0.024751  -0.008741
     5  C   -0.083935   0.006528   0.427940  -0.024751   0.294468  -0.142993
     6  C   -0.049645   0.013666  -0.303733  -0.008741  -0.142993   0.410008
     7  O    0.002314  -0.000488   0.028900   0.000149   0.001313  -0.052244
     8  O   -0.000147  -0.000107   0.009482   0.000102  -0.045155   0.046749
     9  C    0.000470  -0.000576   0.027169   0.000206  -0.013541  -0.024059
    10  C    0.000309  -0.000142   0.014685   0.000104   0.007611  -0.017678
    11  H   -0.000005  -0.000002   0.000922   0.000006  -0.001152  -0.000124
    12  H   -0.000102   0.000086  -0.005726  -0.000044  -0.005410   0.011235
    13  H    0.000015  -0.000031   0.002091   0.000014   0.001720  -0.004226
    14  H   -0.000032   0.000032  -0.003333  -0.000025  -0.001954   0.005486
    15  H    0.000007  -0.000014  -0.000052  -0.000000  -0.001190   0.000495
               7          8          9         10         11         12
     1  O    0.002314  -0.000147   0.000470   0.000309  -0.000005  -0.000102
     2  H   -0.000488  -0.000107  -0.000576  -0.000142  -0.000002   0.000086
     3  C    0.028900   0.009482   0.027169   0.014685   0.000922  -0.005726
     4  H    0.000149   0.000102   0.000206   0.000104   0.000006  -0.000044
     5  C    0.001313  -0.045155  -0.013541   0.007611  -0.001152  -0.005410
     6  C   -0.052244   0.046749  -0.024059  -0.017678  -0.000124   0.011235
     7  O    0.062674  -0.000322  -0.002830   0.001232  -0.000189  -0.000089
     8  O   -0.000322  -0.010669   0.004133  -0.002649   0.000136  -0.000553
     9  C   -0.002830   0.004133   0.005980   0.000413   0.000484   0.000935
    10  C    0.001232  -0.002649   0.000413  -0.000357  -0.000655  -0.000907
    11  H   -0.000189   0.000136   0.000484  -0.000655   0.000337   0.000267
    12  H   -0.000089  -0.000553   0.000935  -0.000907   0.000267   0.000289
    13  H   -0.000001   0.000122   0.000392  -0.000012  -0.000077  -0.000216
    14  H    0.000008  -0.000087   0.000014  -0.000537   0.000069   0.000145
    15  H   -0.000124   0.000291   0.000282  -0.000057   0.000100   0.000105
              13         14         15
     1  O    0.000015  -0.000032   0.000007
     2  H   -0.000031   0.000032  -0.000014
     3  C    0.002091  -0.003333  -0.000052
     4  H    0.000014  -0.000025  -0.000000
     5  C    0.001720  -0.001954  -0.001190
     6  C   -0.004226   0.005486   0.000495
     7  O   -0.000001   0.000008  -0.000124
     8  O    0.000122  -0.000087   0.000291
     9  C    0.000392   0.000014   0.000282
    10  C   -0.000012  -0.000537  -0.000057
    11  H   -0.000077   0.000069   0.000100
    12  H   -0.000216   0.000145   0.000105
    13  H    0.000526  -0.000255   0.000030
    14  H   -0.000255   0.000375   0.000019
    15  H    0.000030   0.000019   0.000143
 Mulliken charges and spin densities:
               1          2
     1  O   -0.246197   0.992750
     2  H    0.264617  -0.035790
     3  C   -2.915063  -0.340057
     4  H    0.187634   0.036751
     5  C    3.012944   0.419499
     6  C   -0.239207  -0.115804
     7  O   -0.328087   0.040304
     8  O   -0.035794   0.001328
     9  C   -0.154959  -0.000527
    10  C   -0.355278   0.001361
    11  H    0.172733   0.000119
    12  H    0.180916   0.000016
    13  H    0.137684   0.000092
    14  H    0.145736  -0.000076
    15  H    0.172322   0.000034
 Sum of Mulliken charges =  -0.00000   1.00000
 Mulliken charges and spin densities with hydrogens summed into heavy atoms:
               1          2
     1  O    0.018420   0.956960
     3  C   -2.727429  -0.303306
     5  C    3.012944   0.419499
     6  C   -0.239207  -0.115804
     7  O   -0.328087   0.040304
     8  O   -0.035794   0.001328
     9  C    0.198690  -0.000392
    10  C    0.100464   0.001411
 Electronic spatial extent (au):  <R**2>=           1335.2864
 Charge=             -0.0000 electrons
 Dipole moment (field-independent basis, Debye):
    X=             -2.2982    Y=             -1.0137    Z=              0.0513  Tot=              2.5123
 Quadrupole moment (field-independent basis, Debye-Ang):
   XX=            -42.8261   YY=            -48.7808   ZZ=            -47.7657
   XY=             -3.8688   XZ=              1.2927   YZ=             -0.1515
 Traceless Quadrupole moment (field-independent basis, Debye-Ang):
   XX=              3.6315   YY=             -2.3233   ZZ=             -1.3082
   XY=             -3.8688   XZ=              1.2927   YZ=             -0.1515
 Octapole moment (field-independent basis, Debye-Ang**2):
  XXX=            -30.6146  YYY=              9.1738  ZZZ=             -3.8194  XYY=             13.1267
  XXY=            -16.3761  XXZ=             -1.3292  XZZ=             -3.4868  YZZ=              1.7578
  YYZ=              1.1419  XYZ=             -4.2911
 Hexadecapole moment (field-independent basis, Debye-Ang**3):
 XXXX=          -1366.8857 YYYY=           -243.8073 ZZZZ=           -113.5891 XXXY=            -60.3606
 XXXZ=             23.1466 YYYX=             23.3247 YYYZ=             -0.5210 ZZZX=              2.7556
 ZZZY=             -1.6160 XXYY=           -222.9896 XXZZ=           -252.6404 YYZZ=            -60.7172
 XXYZ=            -14.0225 YYXZ=              3.9739 ZZXY=              5.1783
 N-N= 3.467050077449D+02 E-N=-1.676256295893D+03  KE= 4.176925470072D+02
 1\1\GINC-AJ\SP\UCCSD(T)-FC\6-311++G(d,p)\C5H7O3(2)\AAYUSH\18-Jul-2025\
 0\\# ccsd(t)/6-311++g(d,p) sp\\Title Card Required\\0,2\O,0,3.412406,0
 .892494,0.11101\H,0,2.60099,1.398807,-0.074731\C,0,2.324959,-1.186035,
 0.273028\H,0,3.2899,-1.595199,0.461619\C,0,1.22167,-0.760927,0.063532\
 C,0,-0.010639,-0.040382,-0.207145\O,0,-0.029724,1.150292,-0.385044\O,0
 ,-1.066223,-0.843654,-0.235697\C,0,-2.342562,-0.215417,-0.483335\C,0,-
 2.884191,0.42845,0.777312\H,0,-2.97533,-1.032707,-0.8239\H,0,-2.221988
 ,0.512487,-1.286321\H,0,-3.881076,0.828371,0.582604\H,0,-2.957694,-0.3
 07375,1.579333\H,0,-2.241888,1.248419,1.098898\\Version=ES64L-G16RevA.
 03\State=2-A\HF=-417.9964554\MP2=-419.255779\MP3=-419.2831547\MP4D=-41
 9.3138333\MP4DQ=-419.2887162\PUHF=-418.0032592\PMP2-0=-419.261558\PMP3
 -0=-419.2872552\MP4SDQ=-419.3072857\CCSD=-419.3073441\CCSD(T)=-419.359
 6085\S2=0.81663\S2-1=0.796021\S2A=0.753002\RMSD=9.740e-09\PG=C01 [X(C5
 H7O3)]\\@


 Time has a wonderful way of weeding out the trivial.
                                -- Richard Ben Sapir
 Job cpu time:       0 days 16 hours 52 minutes 54.1 seconds.
 Elapsed time:       0 days  0 hours 42 minutes 28.7 seconds.
 File lengths (MBytes):  RWF=  44733 Int=      0 D2E=      0 Chk=      9 Scr=      1
 Normal termination of Gaussian 16 at Fri Jul 18 14:37:09 2025.
