 Entering Gaussian System, Link 0=g16
 Initial command:
 /opt/g16/l1.exe "/home/aayush/scratches/g16/Gau-49799.inp" -scrdir="/home/aayush/scratches/g16/"
 Entering Link 1 = /opt/g16/l1.exe PID=     49802.
  
 Copyright (c) 1988,1990,1992,1993,1995,1998,2003,2009,2016,
            Gaussian, Inc.  All Rights Reserved.
  
 This is part of the Gaussian(R) 16 program.  It is based on
 the Gaussian(R) 09 system (copyright 2009, Gaussian, Inc.),
 the Gaussian(R) 03 system (copyright 2003, Gaussian, Inc.),
 the Gaussian(R) 98 system (copyright 1998, Gaussian, Inc.),
 the Gaussian(R) 94 system (copyright 1995, Gaussian, Inc.),
 the Gaussian 92(TM) system (copyright 1992, Gaussian, Inc.),
 the Gaussian 90(TM) system (copyright 1990, Gaussian, Inc.),
 the Gaussian 88(TM) system (copyright 1988, Gaussian, Inc.),
 the Gaussian 86(TM) system (copyright 1986, Carnegie Mellon
 University), and the Gaussian 82(TM) system (copyright 1983,
 Carnegie Mellon University). Gaussian is a federally registered
 trademark of Gaussian, Inc.
  
 This software contains proprietary and confidential information,
 including trade secrets, belonging to Gaussian, Inc.
  
 This software is provided under written license and may be
 used, copied, transmitted, or stored only in accord with that
 written license.
  
 The following legend is applicable only to US Government
 contracts under FAR:
  
                    RESTRICTED RIGHTS LEGEND
  
 Use, reproduction and disclosure by the US Government is
 subject to restrictions as set forth in subparagraphs (a)
 and (c) of the Commercial Computer Software - Restricted
 Rights clause in FAR 52.227-19.
  
 Gaussian, Inc.
 340 Quinnipiac St., Bldg. 40, Wallingford CT 06492
  
  
 ---------------------------------------------------------------
 Warning -- This program may not be used in any manner that
 competes with the business of Gaussian, Inc. or will provide
 assistance to any competitor of Gaussian, Inc.  The licensee
 of this program is prohibited from giving any competitor of
 Gaussian, Inc. access to this program.  By using this program,
 the user acknowledges that Gaussian, Inc. is engaged in the
 business of creating and licensing software in the field of
 computational chemistry and represents and warrants to the
 licensee that it is not a competitor of Gaussian, Inc. and that
 it will not use this program in any manner prohibited above.
 ---------------------------------------------------------------
  

 Cite this work as:
 Gaussian 16, Revision A.03,
 M. J. Frisch, G. W. Trucks, H. B. Schlegel, G. E. Scuseria, 
 M. A. Robb, J. R. Cheeseman, G. Scalmani, V. Barone, 
 G. A. Petersson, H. Nakatsuji, X. Li, M. Caricato, A. V. Marenich, 
 J. Bloino, B. G. Janesko, R. Gomperts, B. Mennucci, H. P. Hratchian, 
 J. V. Ortiz, A. F. Izmaylov, J. L. Sonnenberg, D. Williams-Young, 
 F. Ding, F. Lipparini, F. Egidi, J. Goings, B. Peng, A. Petrone, 
 T. Henderson, D. Ranasinghe, V. G. Zakrzewski, J. Gao, N. Rega, 
 G. Zheng, W. Liang, M. Hada, M. Ehara, K. Toyota, R. Fukuda, 
 J. Hasegawa, M. Ishida, T. Nakajima, Y. Honda, O. Kitao, H. Nakai, 
 T. Vreven, K. Throssell, J. A. Montgomery, Jr., J. E. Peralta, 
 F. Ogliaro, M. J. Bearpark, J. J. Heyd, E. N. Brothers, K. N. Kudin, 
 V. N. Staroverov, T. A. Keith, R. Kobayashi, J. Normand, 
 K. Raghavachari, A. P. Rendell, J. C. Burant, S. S. Iyengar, 
 J. Tomasi, M. Cossi, J. M. Millam, M. Klene, C. Adamo, R. Cammi, 
 J. W. Ochterski, R. L. Martin, K. Morokuma, O. Farkas, 
 J. B. Foresman, and D. J. Fox, Gaussian, Inc., Wallingford CT, 2016.
 
 ******************************************
 Gaussian 16:  ES64L-G16RevA.03 25-Dec-2016
                16-Aug-2025 
 ******************************************
 %chk=ethyl_propiolate.chk
 %nprocshared=24
 Will use up to   24 processors via shared memory.
 %mem=12GB
 --------------------------
 # freq 6-311++g(d,p) m062x
 --------------------------
 1/10=4,30=1,38=1/1,3;
 2/12=2,17=6,18=5,40=1/2;
 3/5=4,6=6,7=1111,11=2,25=1,30=1,71=2,74=-55,140=1/1,2,3;
 4//1;
 5/5=2,38=5,98=1/2;
 8/6=4,10=90,11=11/1;
 11/6=1,8=1,9=11,15=111,16=1/1,2,10;
 10/6=1/2;
 6/7=2,8=2,9=2,10=2,28=1/1;
 7/8=1,10=1,25=1/1,2,3,16;
 1/10=4,30=1/3;
 99//99;
 -------------------
 Title Card Required
 -------------------
 Symbolic Z-matrix:
 Charge =  0 Multiplicity = 2
 O                     3.23005   0.70455   0.13012 
 H                     2.50368   1.31468  -0.06812 
 C                     2.40533  -0.82464   0.26927 
 H                     3.19117  -1.52801   0.48904 
 C                     1.14947  -0.76077   0.09031 
 C                    -0.08124  -0.0359   -0.19298 
 O                    -0.10917   1.15123  -0.38995 
 O                    -1.13207  -0.84807  -0.20785 
 C                    -2.41365  -0.23295  -0.46495 
 C                    -2.95891   0.42799   0.78518 
 H                    -3.04082  -1.06016  -0.79158 
 H                    -2.29843   0.48213  -1.28016 
 H                    -3.95872   0.8174    0.5843 
 H                    -3.02706  -0.29483   1.59942 
 H                    -2.32264   1.25798   1.09278 
 

 GradGradGradGradGradGradGradGradGradGradGradGradGradGradGradGradGradGrad
 Berny optimization.
 Initialization pass.
 Trust Radius=3.00D-01 FncErr=1.00D-07 GrdErr=1.00D-07 EigMax=2.50D+02 EigMin=1.00D-04
 Number of steps in this run=      2 maximum allowed number of steps=      2.
 GradGradGradGradGradGradGradGradGradGradGradGradGradGradGradGradGradGrad

                          Input orientation:                          
 ---------------------------------------------------------------------
 Center     Atomic      Atomic             Coordinates (Angstroms)
 Number     Number       Type             X           Y           Z
 ---------------------------------------------------------------------
      1          8           0        3.230052    0.704545    0.130124
      2          1           0        2.503678    1.314675   -0.068119
      3          6           0        2.405325   -0.824642    0.269271
      4          1           0        3.191166   -1.528012    0.489042
      5          6           0        1.149466   -0.760765    0.090310
      6          6           0       -0.081242   -0.035900   -0.192975
      7          8           0       -0.109170    1.151225   -0.389954
      8          8           0       -1.132071   -0.848070   -0.207845
      9          6           0       -2.413649   -0.232952   -0.464953
     10          6           0       -2.958911    0.427990    0.785183
     11          1           0       -3.040817   -1.060158   -0.791578
     12          1           0       -2.298430    0.482130   -1.280163
     13          1           0       -3.958715    0.817395    0.584300
     14          1           0       -3.027059   -0.294828    1.599422
     15          1           0       -2.322640    1.257980    1.092783
 ---------------------------------------------------------------------
                    Distance matrix (angstroms):
                    1          2          3          4          5
     1  O    0.000000
     2  H    0.969112   0.000000
     3  C    1.742971   2.167990   0.000000
     4  H    2.261558   2.977237   1.077300   0.000000
     5  C    2.545104   2.483232   1.270153   2.217249   0.000000
     6  C    3.408419   2.919153   2.649302   3.660628   1.456132
     7  O    3.408872   2.637663   3.265167   4.340871   2.338915
     8  O    4.642516   4.232689   3.569504   4.431518   2.302592
     9  C    5.751902   5.170371   4.910366   5.831058   3.644543
    10  C    6.229675   5.599483   5.532656   6.460425   4.332984
    11  H    6.579324   6.074920   5.553497   6.379380   4.292532
    12  H    5.709859   5.022193   5.121885   6.107898   3.912924
    13  H    7.203984   6.514251   6.580010   7.525344   5.369183
    14  H    6.504538   5.996686   5.617900   6.435838   4.465185
    15  H    5.662631   4.964298   5.231552   6.207118   4.139541
                    6          7          8          9         10
     6  C    0.000000
     7  O    1.203680   0.000000
     8  O    1.328188   2.253147   0.000000
     9  C    2.356464   2.689274   1.444617   0.000000
    10  C    3.074568   3.166234   2.439627   1.515584   0.000000
    11  H    3.188497   3.694059   2.007246   1.088252   2.169670
    12  H    2.523144   2.456221   2.068741   1.090498   2.169060
    13  H    4.045623   3.984923   3.375083   2.142753   1.091604
    14  H    3.457972   3.816119   2.676429   2.154471   1.090915
    15  H    2.889838   2.666337   2.746732   2.158171   1.090111
                   11         12         13         14         15
    11  H    0.000000
    12  H    1.780030   0.000000
    13  H    2.502156   2.518962   0.000000
    14  H    2.510538   3.070273   1.770733   0.000000
    15  H    3.072517   2.496678   1.769014   1.778792   0.000000
 Stoichiometry    C5H7O3(2)
 Framework group  C1[X(C5H7O3)]
 Deg. of freedom    39
 Full point group                 C1      NOp   1
 Largest Abelian subgroup         C1      NOp   1
 Largest concise Abelian subgroup C1      NOp   1
                         Standard orientation:                         
 ---------------------------------------------------------------------
 Center     Atomic      Atomic             Coordinates (Angstroms)
 Number     Number       Type             X           Y           Z
 ---------------------------------------------------------------------
      1          8           0        3.299484    0.713412    0.107372
      2          1           0        2.570168    1.317693   -0.097861
      3          6           0        2.482047   -0.817888    0.265055
      4          1           0        3.271277   -1.514864    0.492905
      5          6           0        1.225843   -0.762088    0.085815
      6          6           0       -0.008371   -0.046481   -0.205634
      7          8           0       -0.041979    1.138065   -0.416746
      8          8           0       -1.055350   -0.863729   -0.210424
      9          6           0       -2.339906   -0.257787   -0.474370
     10          6           0       -2.887892    0.415433    0.767999
     11          1           0       -2.963257   -1.091786   -0.790872
     12          1           0       -2.228331    0.448057   -1.298093
     13          1           0       -3.889592    0.797683    0.562860
     14          1           0       -2.952361   -0.297936    1.590825
     15          1           0       -2.255458    1.252032    1.065440
 ---------------------------------------------------------------------
 Rotational constants (GHZ):           5.7523498           0.9516495           0.8773351
 Standard basis: 6-311++G(d,p) (5D, 7F)
 There are   233 symmetry adapted cartesian basis functions of A   symmetry.
 There are   225 symmetry adapted basis functions of A   symmetry.
   225 basis functions,   351 primitive gaussians,   233 cartesian basis functions
    31 alpha electrons       30 beta electrons
       nuclear repulsion energy       351.7795191572 Hartrees.
 NAtoms=   15 NActive=   15 NUniq=   15 SFac= 1.00D+00 NAtFMM=   60 NAOKFM=F Big=F
 Integral buffers will be    131072 words long.
 Raffenetti 2 integral format.
 Two-electron integral symmetry is turned on.
 One-electron integrals computed using PRISM.
 NBasis=   225 RedAO= T EigKep=  6.45D-06  NBF=   225
 NBsUse=   225 1.00D-06 EigRej= -1.00D+00 NBFU=   225
 ExpMin= 3.60D-02 ExpMax= 8.59D+03 ExpMxC= 1.30D+03 IAcc=3 IRadAn=         5 AccDes= 0.00D+00
 Harris functional with IExCor= 1009 and IRadAn=       5 diagonalized for initial guess.
 HarFok:  IExCor= 1009 AccDes= 0.00D+00 IRadAn=         5 IDoV= 1 UseB2=F ITyADJ=14
 ICtDFT=  3500011 ScaDFX=  1.000000  1.000000  1.000000  1.000000
 FoFCou: FMM=F IPFlag=           0 FMFlag=      100000 FMFlg1=           0
         NFxFlg=           0 DoJE=T BraDBF=F KetDBF=T FulRan=T
         wScrn=  0.000000 ICntrl=       500 IOpCl=  0 I1Cent=   200000004 NGrid=           0
         NMat0=    1 NMatS0=      1 NMatT0=    0 NMatD0=    1 NMtDS0=    0 NMtDT0=    0
 Petite list used in FoFCou.
 Initial guess <Sx>= 0.0000 <Sy>= 0.0000 <Sz>= 0.5000 <S**2>= 0.7500 S= 0.5000
 Requested convergence on RMS density matrix=1.00D-08 within 128 cycles.
 Requested convergence on MAX density matrix=1.00D-06.
 Requested convergence on             energy=1.00D-06.
 No special actions if energy rises.
 SCF Done:  E(UM062X) =  -420.225150370     A.U. after   19 cycles
            NFock= 19  Conv=0.45D-08     -V/T= 2.0039
 <Sx>= 0.0000 <Sy>= 0.0000 <Sz>= 0.5000 <S**2>= 0.7801 S= 0.5149
 <L.S>=  0.00000000000    
 Annihilation of the first spin contaminant:
 S**2 before annihilation     0.7801,   after     0.7505
 DoSCS=F DFT=T ScalE2(SS,OS)=  1.000000  1.000000
 Range of M.O.s used for correlation:     1   225
 NBasis=   225 NAE=    31 NBE=    30 NFC=     0 NFV=     0
 NROrb=    225 NOA=    31 NOB=    30 NVA=   194 NVB=   195

 **** Warning!!: The largest alpha MO coefficient is  0.10851034D+03


 **** Warning!!: The largest beta MO coefficient is  0.96038284D+02

 Symmetrizing basis deriv contribution to polar:
 IMax=3 JMax=2 DiffMx= 0.00D+00
 G2DrvN: will do    16 centers at a time, making    1 passes.
 Calling FoFCou, ICntrl=  3107 FMM=F I1Cent=   0 AccDes= 0.00D+00.
 End of G2Drv F.D. properties file   721 does not exist.
 End of G2Drv F.D. properties file   722 does not exist.
 End of G2Drv F.D. properties file   788 does not exist.
          IDoAtm=111111111111111
          Differentiating once with respect to electric field.
                with respect to dipole field.
          Differentiating once with respect to nuclear coordinates.
 Keep R1 and R2 ints in memory in canonical form, NReq=671901991.
          There are    48 degrees of freedom in the 1st order CPHF.  IDoFFX=6 NUNeed=     3.
     45 vectors produced by pass  0 Test12= 2.47D-14 2.08D-09 XBig12= 1.10D+02 4.12D+00.
 AX will form    45 AO Fock derivatives at one time.
     45 vectors produced by pass  1 Test12= 2.47D-14 2.08D-09 XBig12= 2.06D+01 9.96D-01.
     45 vectors produced by pass  2 Test12= 2.47D-14 2.08D-09 XBig12= 1.10D+00 1.91D-01.
     45 vectors produced by pass  3 Test12= 2.47D-14 2.08D-09 XBig12= 1.76D-02 2.20D-02.
     45 vectors produced by pass  4 Test12= 2.47D-14 2.08D-09 XBig12= 2.63D-04 1.91D-03.
     45 vectors produced by pass  5 Test12= 2.47D-14 2.08D-09 XBig12= 3.06D-06 1.53D-04.
     40 vectors produced by pass  6 Test12= 2.47D-14 2.08D-09 XBig12= 2.53D-08 1.29D-05.
     24 vectors produced by pass  7 Test12= 2.47D-14 2.08D-09 XBig12= 2.15D-10 1.08D-06.
      4 vectors produced by pass  8 Test12= 2.47D-14 2.08D-09 XBig12= 1.65D-12 1.32D-07.
      2 vectors produced by pass  9 Test12= 2.47D-14 2.08D-09 XBig12= 1.88D-14 1.80D-08.
 InvSVY:  IOpt=1 It=  1 EMax= 1.07D-14
 Solved reduced A of dimension   340 with    48 vectors.
 Isotropic polarizability for W=    0.000000       73.96 Bohr**3.
 End of Minotr F.D. properties file   721 does not exist.
 End of Minotr F.D. properties file   722 does not exist.
 End of Minotr F.D. properties file   788 does not exist.

 **********************************************************************

            Population analysis using the SCF density.

 **********************************************************************

 Orbital symmetries:
 Alpha Orbitals:
       Occupied  (A) (A) (A) (A) (A) (A) (A) (A) (A) (A) (A) (A)
                 (A) (A) (A) (A) (A) (A) (A) (A) (A) (A) (A) (A)
                 (A) (A) (A) (A) (A) (A) (A)
       Virtual   (A) (A) (A) (A) (A) (A) (A) (A) (A) (A) (A) (A)
                 (A) (A) (A) (A) (A) (A) (A) (A) (A) (A) (A) (A)
                 (A) (A) (A) (A) (A) (A) (A) (A) (A) (A) (A) (A)
                 (A) (A) (A) (A) (A) (A) (A) (A) (A) (A) (A) (A)
                 (A) (A) (A) (A) (A) (A) (A) (A) (A) (A) (A) (A)
                 (A) (A) (A) (A) (A) (A) (A) (A) (A) (A) (A) (A)
                 (A) (A) (A) (A) (A) (A) (A) (A) (A) (A) (A) (A)
                 (A) (A) (A) (A) (A) (A) (A) (A) (A) (A) (A) (A)
                 (A) (A) (A) (A) (A) (A) (A) (A) (A) (A) (A) (A)
                 (A) (A) (A) (A) (A) (A) (A) (A) (A) (A) (A) (A)
                 (A) (A) (A) (A) (A) (A) (A) (A) (A) (A) (A) (A)
                 (A) (A) (A) (A) (A) (A) (A) (A) (A) (A) (A) (A)
                 (A) (A) (A) (A) (A) (A) (A) (A) (A) (A) (A) (A)
                 (A) (A) (A) (A) (A) (A) (A) (A) (A) (A) (A) (A)
                 (A) (A) (A) (A) (A) (A) (A) (A) (A) (A) (A) (A)
                 (A) (A) (A) (A) (A) (A) (A) (A) (A) (A) (A) (A)
                 (A) (A)
 Beta  Orbitals:
       Occupied  (A) (A) (A) (A) (A) (A) (A) (A) (A) (A) (A) (A)
                 (A) (A) (A) (A) (A) (A) (A) (A) (A) (A) (A) (A)
                 (A) (A) (A) (A) (A) (A)
       Virtual   (A) (A) (A) (A) (A) (A) (A) (A) (A) (A) (A) (A)
                 (A) (A) (A) (A) (A) (A) (A) (A) (A) (A) (A) (A)
                 (A) (A) (A) (A) (A) (A) (A) (A) (A) (A) (A) (A)
                 (A) (A) (A) (A) (A) (A) (A) (A) (A) (A) (A) (A)
                 (A) (A) (A) (A) (A) (A) (A) (A) (A) (A) (A) (A)
                 (A) (A) (A) (A) (A) (A) (A) (A) (A) (A) (A) (A)
                 (A) (A) (A) (A) (A) (A) (A) (A) (A) (A) (A) (A)
                 (A) (A) (A) (A) (A) (A) (A) (A) (A) (A) (A) (A)
                 (A) (A) (A) (A) (A) (A) (A) (A) (A) (A) (A) (A)
                 (A) (A) (A) (A) (A) (A) (A) (A) (A) (A) (A) (A)
                 (A) (A) (A) (A) (A) (A) (A) (A) (A) (A) (A) (A)
                 (A) (A) (A) (A) (A) (A) (A) (A) (A) (A) (A) (A)
                 (A) (A) (A) (A) (A) (A) (A) (A) (A) (A) (A) (A)
                 (A) (A) (A) (A) (A) (A) (A) (A) (A) (A) (A) (A)
                 (A) (A) (A) (A) (A) (A) (A) (A) (A) (A) (A) (A)
                 (A) (A) (A) (A) (A) (A) (A) (A) (A) (A) (A) (A)
                 (A) (A) (A)
 The electronic state is 2-A.
 Alpha  occ. eigenvalues --  -19.69529 -19.64619 -19.64113 -10.71766 -10.63878
 Alpha  occ. eigenvalues --  -10.61527 -10.59747 -10.54575  -1.26962  -1.17769
 Alpha  occ. eigenvalues --   -1.10427  -0.92359  -0.88556  -0.79342  -0.72220
 Alpha  occ. eigenvalues --   -0.65848  -0.62078  -0.59882  -0.57821  -0.54517
 Alpha  occ. eigenvalues --   -0.52564  -0.50569  -0.48981  -0.47779  -0.46161
 Alpha  occ. eigenvalues --   -0.43122  -0.42318  -0.40648  -0.39742  -0.35752
 Alpha  occ. eigenvalues --   -0.31662
 Alpha virt. eigenvalues --   -0.03248  -0.00530   0.00773   0.01362   0.01810
 Alpha virt. eigenvalues --    0.02495   0.03822   0.05137   0.05740   0.06402
 Alpha virt. eigenvalues --    0.06915   0.07559   0.08025   0.08836   0.10174
 Alpha virt. eigenvalues --    0.11390   0.11606   0.12210   0.12372   0.12867
 Alpha virt. eigenvalues --    0.13276   0.13831   0.14086   0.14497   0.15493
 Alpha virt. eigenvalues --    0.15934   0.16939   0.17548   0.18990   0.19181
 Alpha virt. eigenvalues --    0.20181   0.21295   0.22921   0.23280   0.24307
 Alpha virt. eigenvalues --    0.24971   0.26346   0.28198   0.29389   0.29562
 Alpha virt. eigenvalues --    0.29974   0.30467   0.32322   0.32661   0.33467
 Alpha virt. eigenvalues --    0.33816   0.34795   0.35724   0.37668   0.38561
 Alpha virt. eigenvalues --    0.40109   0.41531   0.44878   0.46115   0.48178
 Alpha virt. eigenvalues --    0.49754   0.50655   0.52639   0.55589   0.58865
 Alpha virt. eigenvalues --    0.60769   0.60971   0.62751   0.63477   0.65008
 Alpha virt. eigenvalues --    0.66742   0.68018   0.68138   0.70075   0.71661
 Alpha virt. eigenvalues --    0.72384   0.74776   0.75844   0.77710   0.79897
 Alpha virt. eigenvalues --    0.84257   0.86955   0.89370   0.94415   0.96134
 Alpha virt. eigenvalues --    0.99249   1.01893   1.06183   1.07057   1.10062
 Alpha virt. eigenvalues --    1.13864   1.16550   1.18139   1.18731   1.20181
 Alpha virt. eigenvalues --    1.21062   1.23364   1.25252   1.30237   1.32303
 Alpha virt. eigenvalues --    1.34852   1.35912   1.39333   1.41017   1.44923
 Alpha virt. eigenvalues --    1.47123   1.50406   1.51873   1.53431   1.54776
 Alpha virt. eigenvalues --    1.57124   1.58373   1.59095   1.60900   1.61923
 Alpha virt. eigenvalues --    1.66550   1.68959   1.71684   1.72462   1.74841
 Alpha virt. eigenvalues --    1.78779   1.79820   1.83814   1.86618   1.90377
 Alpha virt. eigenvalues --    1.92554   1.95059   1.95851   1.99596   2.05688
 Alpha virt. eigenvalues --    2.12028   2.13241   2.18707   2.22684   2.23936
 Alpha virt. eigenvalues --    2.26321   2.32366   2.35699   2.50459   2.52736
 Alpha virt. eigenvalues --    2.53522   2.57594   2.60922   2.61767   2.62386
 Alpha virt. eigenvalues --    2.64206   2.66287   2.67823   2.69264   2.72595
 Alpha virt. eigenvalues --    2.78000   2.78982   2.79911   2.81138   2.90150
 Alpha virt. eigenvalues --    2.91168   2.93916   2.95203   2.96245   2.97933
 Alpha virt. eigenvalues --    3.02178   3.11588   3.14482   3.19985   3.24332
 Alpha virt. eigenvalues --    3.26979   3.29144   3.31151   3.37722   3.42904
 Alpha virt. eigenvalues --    3.60392   3.62195   3.65061   3.73025   3.84136
 Alpha virt. eigenvalues --    3.85354   3.89828   3.93507   4.01936   4.13831
 Alpha virt. eigenvalues --    4.16736   4.27682   5.10096   5.12857   5.15546
 Alpha virt. eigenvalues --    5.19645   5.31498   5.43831   5.61025   5.72979
 Alpha virt. eigenvalues --    5.93706  23.61206  23.92524  23.92798  24.05077
 Alpha virt. eigenvalues --   24.59267  49.98389  49.99034  50.10526
  Beta  occ. eigenvalues --  -19.69503 -19.64488 -19.63531 -10.71807 -10.64028
  Beta  occ. eigenvalues --  -10.61523 -10.59092 -10.54575  -1.26808  -1.17446
  Beta  occ. eigenvalues --   -1.08308  -0.90800  -0.87616  -0.79142  -0.71708
  Beta  occ. eigenvalues --   -0.65671  -0.61545  -0.59468  -0.57466  -0.54293
  Beta  occ. eigenvalues --   -0.51105  -0.50250  -0.47628  -0.46156  -0.43742
  Beta  occ. eigenvalues --   -0.42889  -0.41650  -0.39764  -0.38925  -0.34172
  Beta virt. eigenvalues --   -0.08812  -0.03039  -0.00566   0.00828   0.01339
  Beta virt. eigenvalues --    0.02006   0.02695   0.04235   0.05201   0.05676
  Beta virt. eigenvalues --    0.06425   0.06958   0.07911   0.08392   0.08857
  Beta virt. eigenvalues --    0.10532   0.11300   0.11751   0.12048   0.12920
  Beta virt. eigenvalues --    0.13107   0.13645   0.14048   0.14274   0.14456
  Beta virt. eigenvalues --    0.15628   0.16266   0.17210   0.17601   0.18819
  Beta virt. eigenvalues --    0.19305   0.20239   0.21429   0.23088   0.23659
  Beta virt. eigenvalues --    0.24536   0.24999   0.26287   0.28268   0.29140
  Beta virt. eigenvalues --    0.29530   0.29966   0.30452   0.32256   0.32639
  Beta virt. eigenvalues --    0.33485   0.33810   0.34741   0.35824   0.37738
  Beta virt. eigenvalues --    0.38791   0.39773   0.41540   0.45181   0.46314
  Beta virt. eigenvalues --    0.48442   0.49872   0.50668   0.52920   0.55611
  Beta virt. eigenvalues --    0.58921   0.60941   0.61833   0.63184   0.63562
  Beta virt. eigenvalues --    0.65289   0.66448   0.68155   0.68229   0.69936
  Beta virt. eigenvalues --    0.71622   0.72345   0.74834   0.75369   0.77642
  Beta virt. eigenvalues --    0.80004   0.84189   0.86983   0.90071   0.94549
  Beta virt. eigenvalues --    0.96181   0.99451   1.02165   1.06298   1.07327
  Beta virt. eigenvalues --    1.10978   1.14265   1.17130   1.18889   1.19562
  Beta virt. eigenvalues --    1.21186   1.21270   1.23403   1.25397   1.29530
  Beta virt. eigenvalues --    1.32535   1.35056   1.36870   1.39608   1.41407
  Beta virt. eigenvalues --    1.46751   1.47296   1.50438   1.51844   1.54000
  Beta virt. eigenvalues --    1.55763   1.57300   1.58860   1.59402   1.61101
  Beta virt. eigenvalues --    1.61978   1.66603   1.69061   1.72081   1.72849
  Beta virt. eigenvalues --    1.74832   1.78703   1.80127   1.83838   1.86701
  Beta virt. eigenvalues --    1.90949   1.93172   1.95774   1.96304   1.99751
  Beta virt. eigenvalues --    2.05761   2.12061   2.13636   2.18786   2.22771
  Beta virt. eigenvalues --    2.24418   2.26938   2.32634   2.35820   2.50467
  Beta virt. eigenvalues --    2.52829   2.53570   2.58380   2.61096   2.61874
  Beta virt. eigenvalues --    2.62657   2.64326   2.66083   2.67649   2.69727
  Beta virt. eigenvalues --    2.72616   2.78050   2.79023   2.80797   2.81563
  Beta virt. eigenvalues --    2.90232   2.91731   2.94132   2.96065   2.97726
  Beta virt. eigenvalues --    2.99199   3.03758   3.11894   3.14705   3.20661
  Beta virt. eigenvalues --    3.24588   3.27674   3.30610   3.31545   3.38428
  Beta virt. eigenvalues --    3.43016   3.60051   3.62198   3.64884   3.73248
  Beta virt. eigenvalues --    3.84145   3.85361   3.89888   3.94724   4.02006
  Beta virt. eigenvalues --    4.14008   4.17444   4.27800   5.11129   5.12940
  Beta virt. eigenvalues --    5.15748   5.22465   5.32065   5.43970   5.62164
  Beta virt. eigenvalues --    5.73223   5.93784  23.61389  23.92551  23.92825
  Beta virt. eigenvalues --   24.05078  24.59795  49.97791  49.99021  50.10418
          Condensed to atoms (all electrons):
               1          2          3          4          5          6
     1  O    8.058987   0.258567   0.103809  -0.045674  -0.091834   0.035337
     2  H    0.258567   0.488952   0.105863   0.011864  -0.015206  -0.112536
     3  C    0.103809   0.105863  10.958996   0.518412  -2.161069  -2.905979
     4  H   -0.045674   0.011864   0.518412   0.441913  -0.097024  -0.042207
     5  C   -0.091834  -0.015206  -2.161069  -0.097024   9.399902  -1.861231
     6  C    0.035337  -0.112536  -2.905979  -0.042207  -1.861231  11.403507
     7  O    0.002757   0.011649   0.225587  -0.000020   0.124086  -0.017860
     8  O   -0.004991   0.000855   0.183311   0.002285  -0.304566  -0.130713
     9  C   -0.000216  -0.000630   0.034314  -0.000468  -0.106488  -0.017881
    10  C   -0.001496  -0.000193   0.040288   0.000847  -0.047750  -0.124626
    11  H    0.000060   0.000014   0.004074  -0.000092   0.016035  -0.005530
    12  H   -0.000187  -0.000265  -0.015032  -0.000077  -0.035985   0.036176
    13  H   -0.000107  -0.000004   0.004233   0.000053   0.013769  -0.021114
    14  H    0.000151   0.000005  -0.011835  -0.000093  -0.010566   0.033630
    15  H    0.000255  -0.000316  -0.000942  -0.000248  -0.027538   0.009996
               7          8          9         10         11         12
     1  O    0.002757  -0.004991  -0.000216  -0.001496   0.000060  -0.000187
     2  H    0.011649   0.000855  -0.000630  -0.000193   0.000014  -0.000265
     3  C    0.225587   0.183311   0.034314   0.040288   0.004074  -0.015032
     4  H   -0.000020   0.002285  -0.000468   0.000847  -0.000092  -0.000077
     5  C    0.124086  -0.304566  -0.106488  -0.047750   0.016035  -0.035985
     6  C   -0.017860  -0.130713  -0.017881  -0.124626  -0.005530   0.036176
     7  O    8.082145  -0.145516   0.051275  -0.063360   0.004751  -0.026178
     8  O   -0.145516   8.381052   0.134527  -0.034194  -0.094787  -0.001680
     9  C    0.051275   0.134527   5.378902   0.030851   0.439887   0.403903
    10  C   -0.063360  -0.034194   0.030851   5.488469  -0.052575  -0.024610
    11  H    0.004751  -0.094787   0.439887  -0.052575   0.526749  -0.036805
    12  H   -0.026178  -0.001680   0.403903  -0.024610  -0.036805   0.511526
    13  H    0.000023   0.017562  -0.050175   0.407573   0.000813  -0.006920
    14  H    0.000241  -0.007738  -0.030636   0.404767  -0.012127   0.006108
    15  H    0.005141  -0.019883   0.001859   0.384209   0.010584  -0.010491
              13         14         15
     1  O   -0.000107   0.000151   0.000255
     2  H   -0.000004   0.000005  -0.000316
     3  C    0.004233  -0.011835  -0.000942
     4  H    0.000053  -0.000093  -0.000248
     5  C    0.013769  -0.010566  -0.027538
     6  C   -0.021114   0.033630   0.009996
     7  O    0.000023   0.000241   0.005141
     8  O    0.017562  -0.007738  -0.019883
     9  C   -0.050175  -0.030636   0.001859
    10  C    0.407573   0.404767   0.384209
    11  H    0.000813  -0.012127   0.010584
    12  H   -0.006920   0.006108  -0.010491
    13  H    0.535973  -0.035718  -0.031635
    14  H   -0.035718   0.542704  -0.048058
    15  H   -0.031635  -0.048058   0.542860
          Atomic-Atomic Spin Densities.
               1          2          3          4          5          6
     1  O    0.380739   0.006186   0.094676  -0.008869  -0.144644  -0.026551
     2  H    0.006186  -0.012969  -0.018687  -0.000065   0.011413   0.009499
     3  C    0.094676  -0.018687  -0.022645   0.004410  -0.204964  -0.021332
     4  H   -0.008869  -0.000065   0.004410   0.024618   0.002920   0.010003
     5  C   -0.144644   0.011413  -0.204964   0.002920   1.160083   0.047893
     6  C   -0.026551   0.009499  -0.021332   0.010003   0.047893  -0.081295
     7  O    0.009183  -0.002226   0.030842  -0.000730  -0.055807  -0.033309
     8  O   -0.001245   0.000246  -0.024191  -0.000673  -0.001202   0.068468
     9  C   -0.000272   0.000113  -0.004601  -0.000074  -0.003663  -0.004224
    10  C    0.000806  -0.000250   0.003269  -0.000286  -0.003829   0.012780
    11  H   -0.000011   0.000010  -0.000517   0.000020  -0.001513   0.000928
    12  H   -0.000132   0.000052  -0.000122   0.000021   0.002507  -0.000473
    13  H    0.000015  -0.000006  -0.000422  -0.000018  -0.000556   0.001012
    14  H   -0.000040   0.000012  -0.000129   0.000025   0.000713  -0.000627
    15  H    0.000003  -0.000001   0.000285   0.000013  -0.000144  -0.001048
               7          8          9         10         11         12
     1  O    0.009183  -0.001245  -0.000272   0.000806  -0.000011  -0.000132
     2  H   -0.002226   0.000246   0.000113  -0.000250   0.000010   0.000052
     3  C    0.030842  -0.024191  -0.004601   0.003269  -0.000517  -0.000122
     4  H   -0.000730  -0.000673  -0.000074  -0.000286   0.000020   0.000021
     5  C   -0.055807  -0.001202  -0.003663  -0.003829  -0.001513   0.002507
     6  C   -0.033309   0.068468  -0.004224   0.012780   0.000928  -0.000473
     7  O    0.093402  -0.003166  -0.004263   0.002873  -0.000222   0.000378
     8  O   -0.003166  -0.029293   0.006866  -0.012621  -0.000274   0.000511
     9  C   -0.004263   0.006866   0.004009   0.000489   0.001144  -0.000712
    10  C    0.002873  -0.012621   0.000489   0.001248  -0.000407  -0.001600
    11  H   -0.000222  -0.000274   0.001144  -0.000407   0.000633   0.000146
    12  H    0.000378   0.000511  -0.000712  -0.001600   0.000146   0.000102
    13  H   -0.000076  -0.000695   0.000014   0.000071   0.000072  -0.000013
    14  H    0.000011   0.000508   0.000202  -0.000529   0.000018   0.000019
    15  H   -0.000028   0.000530   0.000011   0.000234   0.000022  -0.000036
              13         14         15
     1  O    0.000015  -0.000040   0.000003
     2  H   -0.000006   0.000012  -0.000001
     3  C   -0.000422  -0.000129   0.000285
     4  H   -0.000018   0.000025   0.000013
     5  C   -0.000556   0.000713  -0.000144
     6  C    0.001012  -0.000627  -0.001048
     7  O   -0.000076   0.000011  -0.000028
     8  O   -0.000695   0.000508   0.000530
     9  C    0.000014   0.000202   0.000011
    10  C    0.000071  -0.000529   0.000234
    11  H    0.000072   0.000018   0.000022
    12  H   -0.000013   0.000019  -0.000036
    13  H    0.000972  -0.000120   0.000007
    14  H   -0.000120   0.000145  -0.000119
    15  H    0.000007  -0.000119   0.000026
 Mulliken charges and spin densities:
               1          2
     1  O   -0.315419   0.309844
     2  H    0.251380  -0.006674
     3  C   -1.084030  -0.164128
     4  H    0.210529   0.031316
     5  C    1.205465   0.809207
     6  C   -0.278969  -0.018276
     7  O   -0.254721   0.036863
     8  O    0.024476   0.003769
     9  C   -0.269024  -0.004963
    10  C   -0.408202   0.002247
    11  H    0.198952   0.000048
    12  H    0.200515   0.000646
    13  H    0.165673   0.000257
    14  H    0.169166   0.000090
    15  H    0.184207  -0.000245
 Sum of Mulliken charges =  -0.00000   1.00000
 Mulliken charges and spin densities with hydrogens summed into heavy atoms:
               1          2
     1  O   -0.064038   0.303170
     3  C   -0.873502  -0.132812
     5  C    1.205465   0.809207
     6  C   -0.278969  -0.018276
     7  O   -0.254721   0.036863
     8  O    0.024476   0.003769
     9  C    0.130444  -0.004269
    10  C    0.110844   0.002349
 APT charges:
               1
     1  O   -0.514225
     2  H    0.240373
     3  C    0.267091
     4  H    0.153180
     5  C   -0.421713
     6  C    1.498669
     7  O   -0.780954
     8  O   -0.977889
     9  C    0.546798
    10  C   -0.042425
    11  H   -0.011542
    12  H   -0.010701
    13  H    0.011908
    14  H    0.011331
    15  H    0.030098
 Sum of APT charges =  -0.00000
 APT charges with hydrogens summed into heavy atoms:
               1
     1  O   -0.273852
     3  C    0.420272
     5  C   -0.421713
     6  C    1.498669
     7  O   -0.780954
     8  O   -0.977889
     9  C    0.524555
    10  C    0.010912
 Electronic spatial extent (au):  <R**2>=           1306.3651
 Charge=             -0.0000 electrons
 Dipole moment (field-independent basis, Debye):
    X=             -3.2473    Y=             -1.8027    Z=              0.1262  Tot=              3.7163
 Quadrupole moment (field-independent basis, Debye-Ang):
   XX=            -47.3406   YY=            -48.4985   ZZ=            -47.7416
   XY=             -5.8942   XZ=              1.1719   YZ=             -0.2352
 Traceless Quadrupole moment (field-independent basis, Debye-Ang):
   XX=              0.5196   YY=             -0.6383   ZZ=              0.1187
   XY=             -5.8942   XZ=              1.1719   YZ=             -0.2352
 Octapole moment (field-independent basis, Debye-Ang**2):
  XXX=            -53.6262  YYY=              4.3957  ZZZ=             -3.5806  XYY=              9.4818
  XXY=            -22.5373  XXZ=             -1.1008  XZZ=             -3.8465  YZZ=              0.9171
  YYZ=              1.1236  XYZ=             -4.6622
 Hexadecapole moment (field-independent basis, Debye-Ang**3):
 XXXX=          -1453.3948 YYYY=           -209.5624 ZZZZ=           -113.7421 XXXY=            -81.9552
 XXXZ=             18.7451 YYYX=             11.8002 YYYZ=             -1.1248 ZZZX=              2.1357
 ZZZY=             -2.3647 XXYY=           -232.9153 XXZZ=           -253.2114 YYZZ=            -54.8483
 XXYZ=            -13.5722 YYXZ=              3.4954 ZZXY=              3.4145
 N-N= 3.517795191572D+02 E-N=-1.687613831739D+03  KE= 4.186084234848D+02
  Exact polarizability: 103.086   3.621  68.142   3.035  -2.213  50.659
 Approx polarizability: 106.290   6.529  88.847   5.081  -4.714  59.053
                          Isotropic Fermi Contact Couplings
        Atom                 a.u.       MegaHertz       Gauss      10(-4) cm-1
     1  O(17)              0.04362     -26.43957      -9.43430      -8.81929
     2  H(1)              -0.00502     -22.44043      -8.00730      -7.48532
     3  C(13)             -0.01101     -12.37187      -4.41459      -4.12681
     4  H(1)               0.01235      55.20286      19.69775      18.41369
     5  C(13)              0.19537     219.63178      78.37008      73.26128
     6  C(13)             -0.02454     -27.58414      -9.84271      -9.20108
     7  O(17)              0.02482     -15.04640      -5.36893      -5.01894
     8  O(17)              0.02256     -13.67539      -4.87972      -4.56162
     9  C(13)              0.00314       3.52671       1.25842       1.17638
    10  C(13)              0.00009       0.09975       0.03559       0.03327
    11  H(1)               0.00001       0.03095       0.01105       0.01033
    12  H(1)               0.00002       0.09140       0.03262       0.03049
    13  H(1)               0.00003       0.14287       0.05098       0.04766
    14  H(1)               0.00002       0.09183       0.03277       0.03063
    15  H(1)              -0.00003      -0.11621      -0.04147      -0.03876
 --------------------------------------------------------
       Center         ----  Spin Dipole Couplings  ----
                      3XX-RR        3YY-RR        3ZZ-RR
 --------------------------------------------------------
     1   Atom        0.221566      0.466530     -0.688096
     2   Atom        0.023422      0.021191     -0.044613
     3   Atom        0.120356     -0.034064     -0.086292
     4   Atom        0.004107     -0.000156     -0.003951
     5   Atom       -0.400649      0.743993     -0.343343
     6   Atom        0.023997      0.002026     -0.026023
     7   Atom        0.115629     -0.067668     -0.047961
     8   Atom        0.016957     -0.006946     -0.010010
     9   Atom        0.008060     -0.003734     -0.004326
    10   Atom        0.002511     -0.000976     -0.001535
    11   Atom        0.003132     -0.001491     -0.001641
    12   Atom        0.002690     -0.001238     -0.001451
    13   Atom        0.001557     -0.000672     -0.000885
    14   Atom        0.002208     -0.001323     -0.000885
    15   Atom        0.002117     -0.000727     -0.001390
 --------------------------------------------------------
                        XY            XZ            YZ
 --------------------------------------------------------
     1   Atom        1.000090     -0.053683     -0.070470
     2   Atom       -0.029682      0.015113     -0.016519
     3   Atom       -0.087439      0.044398     -0.022287
     4   Atom        0.005859      0.000033      0.000169
     5   Atom        0.417123     -0.078750     -0.135491
     6   Atom       -0.012749      0.008963     -0.006925
     7   Atom       -0.115348      0.042643     -0.013174
     8   Atom       -0.025288      0.007720     -0.004449
     9   Atom       -0.001816      0.000983     -0.000112
    10   Atom       -0.001204     -0.001042      0.000311
    11   Atom        0.000489      0.001087      0.000142
    12   Atom       -0.001262      0.002228     -0.000828
    13   Atom       -0.000645     -0.000258      0.000069
    14   Atom       -0.000445     -0.001426      0.000126
    15   Atom       -0.001843     -0.001436      0.000569
 --------------------------------------------------------


 ---------------------------------------------------------------------------------
              Anisotropic Spin Dipole Couplings in Principal Axis System
 ---------------------------------------------------------------------------------

       Atom             a.u.   MegaHertz   Gauss  10(-4) cm-1        Axes

              Baa    -0.6933    50.169    17.902    16.735 -0.1315  0.1727  0.9762
     1 O(17)  Bbb    -0.6621    47.909    17.095    15.981  0.7379 -0.6406  0.2127
              Bcc     1.3554   -98.078   -34.997   -32.715  0.6620  0.7482 -0.0432
 
              Baa    -0.0496   -26.451    -9.438    -8.823 -0.1319  0.1725  0.9761
     2 H(1)   Bbb    -0.0074    -3.923    -1.400    -1.309  0.7017  0.7118 -0.0309
              Bcc     0.0569    30.374    10.838    10.132  0.7001 -0.6809  0.2150
 
              Baa    -0.0961   -12.897    -4.602    -4.302 -0.1362  0.1593  0.9778
     3 C(13)  Bbb    -0.0733    -9.839    -3.511    -3.282  0.4265  0.9003 -0.0872
              Bcc     0.1694    22.736     8.113     7.584  0.8942 -0.4051  0.1906
 
              Baa    -0.0043    -2.295    -0.819    -0.765 -0.5399  0.7766 -0.3246
     4 H(1)   Bbb    -0.0039    -2.087    -0.745    -0.696 -0.1941  0.2604  0.9458
              Bcc     0.0082     4.381     1.563     1.461  0.8190  0.5737  0.0102
 
              Baa    -0.5425   -72.793   -25.974   -24.281  0.9415 -0.2866  0.1773
     5 C(13)  Bbb    -0.3563   -47.815   -17.062   -15.949 -0.1321  0.1703  0.9765
              Bcc     0.8988   120.608    43.036    40.230  0.3101  0.9428 -0.1225
 
              Baa    -0.0284    -3.808    -1.359    -1.270 -0.1259  0.1698  0.9774
     6 C(13)  Bbb    -0.0036    -0.479    -0.171    -0.160  0.4438  0.8908 -0.0976
              Bcc     0.0319     4.287     1.530     1.430  0.8873 -0.4215  0.1875
 
              Baa    -0.1240     8.971     3.201     2.993  0.4455  0.8901 -0.0956
     7 O(17)  Bbb    -0.0559     4.043     1.443     1.349 -0.1289  0.1695  0.9771
              Bcc     0.1799   -13.014    -4.644    -4.341  0.8859 -0.4230  0.1903
 
              Baa    -0.0230     1.663     0.593     0.555  0.5392  0.8416 -0.0323
     8 O(17)  Bbb    -0.0118     0.852     0.304     0.284 -0.1473  0.1319  0.9803
              Bcc     0.0347    -2.514    -0.897    -0.839  0.8292 -0.5238  0.1951
 
              Baa    -0.0044    -0.591    -0.211    -0.197 -0.0893 -0.0758  0.9931
     9 C(13)  Bbb    -0.0040    -0.537    -0.192    -0.179  0.1412  0.9861  0.0880
              Bcc     0.0084     1.129     0.403     0.376  0.9859 -0.1481  0.0774
 
              Baa    -0.0018    -0.240    -0.086    -0.080  0.2251 -0.0387  0.9736
    10 C(13)  Bbb    -0.0014    -0.181    -0.065    -0.060  0.2903  0.9565 -0.0291
              Bcc     0.0031     0.421     0.150     0.141  0.9301 -0.2892 -0.2266
 
              Baa    -0.0019    -1.003    -0.358    -0.335 -0.2012 -0.1035  0.9741
    11 H(1)   Bbb    -0.0015    -0.822    -0.293    -0.274 -0.1222  0.9893  0.0799
              Bcc     0.0034     1.825     0.651     0.609  0.9719  0.1029  0.2117
 
              Baa    -0.0025    -1.331    -0.475    -0.444 -0.3230  0.2730  0.9062
    12 H(1)   Bbb    -0.0016    -0.845    -0.301    -0.282  0.3523  0.9233 -0.1526
              Bcc     0.0041     2.176     0.776     0.726  0.8784 -0.2700  0.3944
 
              Baa    -0.0009    -0.487    -0.174    -0.162  0.0966 -0.0287  0.9949
    13 H(1)   Bbb    -0.0008    -0.451    -0.161    -0.150  0.2594  0.9658  0.0027
              Bcc     0.0018     0.938     0.335     0.313  0.9609 -0.2578 -0.1007
 
              Baa    -0.0015    -0.781    -0.279    -0.260  0.3706  0.4442  0.8157
    14 H(1)   Bbb    -0.0014    -0.722    -0.258    -0.241 -0.0699  0.8891 -0.4524
              Bcc     0.0028     1.503     0.536     0.501  0.9262 -0.1106 -0.3605
 
              Baa    -0.0019    -1.025    -0.366    -0.342  0.4128  0.2149  0.8851
    15 H(1)   Bbb    -0.0016    -0.846    -0.302    -0.282  0.3022  0.8844 -0.3557
              Bcc     0.0035     1.872     0.668     0.624  0.8592 -0.4143 -0.3002
 

 ---------------------------------------------------------------------------------

 Calling FoFJK, ICntrl=    100127 FMM=F ISym2X=0 I1Cent= 0 IOpClX= 1 NMat=1 NMatS=1 NMatT=0.
 Full mass-weighted force constant matrix:
 Low frequencies --- -609.3312  -12.4237   -0.0003   -0.0002    0.0003   14.6772
 Low frequencies ---   22.9174   75.7177  110.2555
 ******    1 imaginary frequencies (negative Signs) ****** 
 Diagonal vibrational polarizability:
       26.2941938       9.2942601      31.6925431
 Harmonic frequencies (cm**-1), IR intensities (KM/Mole), Raman scattering
 activities (A**4/AMU), depolarization ratios for plane and unpolarized
 incident light, reduced masses (AMU), force constants (mDyne/A),
 and normal coordinates:
                      1                      2                      3
                      A                      A                      A
 Frequencies --   -609.3312                68.8823               108.4704
 Red. masses --     11.8329                 5.7167                 3.3806
 Frc consts  --      2.5885                 0.0160                 0.0234
 IR Inten    --     60.5593                 0.9309                 0.2304
  Atom  AN      X      Y      Z        X      Y      Z        X      Y      Z
     1   8    -0.24  -0.45   0.05     0.06  -0.04  -0.23    -0.09   0.08   0.02
     2   1    -0.02  -0.21   0.03     0.04  -0.01  -0.09    -0.13   0.05   0.08
     3   6     0.28   0.72  -0.09     0.05  -0.02  -0.12    -0.01   0.03  -0.01
     4   1    -0.23   0.10  -0.04     0.07  -0.04  -0.24     0.03   0.07  -0.01
     5   6    -0.02  -0.14   0.02     0.02   0.02   0.11    -0.01  -0.06  -0.04
     6   6     0.04  -0.00   0.01     0.00   0.02   0.21    -0.03  -0.08   0.01
     7   8     0.02   0.01   0.00    -0.02   0.04   0.32    -0.07  -0.05   0.17
     8   8     0.00   0.01  -0.00     0.02  -0.00   0.11    -0.01  -0.10  -0.12
     9   6     0.01   0.00   0.00     0.04  -0.05  -0.10    -0.01  -0.06  -0.00
    10   6     0.00   0.00  -0.00    -0.18   0.04  -0.25     0.23   0.21  -0.04
    11   1     0.01   0.01  -0.00     0.11  -0.09  -0.14    -0.11  -0.08   0.25
    12   1     0.00   0.01   0.00     0.15  -0.11  -0.14    -0.10  -0.22  -0.15
    13   1    -0.00   0.00   0.00    -0.16  -0.02  -0.44     0.19   0.16   0.06
    14   1     0.00  -0.00  -0.00    -0.28   0.11  -0.19     0.38   0.38   0.12
    15   1     0.00  -0.00   0.00    -0.26   0.09  -0.22     0.28   0.27  -0.33
                      4                      5                      6
                      A                      A                      A
 Frequencies --    128.0076               172.4351               217.5874
 Red. masses --      4.2872                 5.6615                 1.3254
 Frc consts  --      0.0414                 0.0992                 0.0370
 IR Inten    --      0.1632                 1.4606                 2.7868
  Atom  AN      X      Y      Z        X      Y      Z        X      Y      Z
     1   8     0.22  -0.18   0.10     0.04  -0.09  -0.21     0.06   0.00   0.01
     2   1     0.34  -0.03   0.10     0.07  -0.07  -0.28     0.09   0.03   0.00
     3   6     0.00  -0.01  -0.02    -0.07   0.01   0.17     0.01   0.04  -0.01
     4   1    -0.13  -0.16  -0.02    -0.12   0.00   0.32    -0.00   0.02  -0.00
     5   6     0.02   0.20  -0.09    -0.09   0.11   0.36     0.01   0.04  -0.00
     6   6    -0.05   0.11  -0.04    -0.04   0.06   0.04    -0.03  -0.03   0.00
     7   8    -0.21   0.11  -0.02    -0.05   0.06   0.03    -0.09  -0.03  -0.00
     8   8     0.04  -0.01   0.00     0.01   0.00  -0.25    -0.02  -0.05   0.01
     9   6    -0.05  -0.17   0.05    -0.00   0.03  -0.09     0.01   0.02  -0.01
    10   6     0.01   0.01  -0.02     0.16  -0.14   0.08     0.03   0.02   0.00
    11   1    -0.00  -0.28   0.27    -0.04   0.07  -0.14    -0.04   0.07  -0.05
    12   1    -0.20  -0.31  -0.10    -0.08   0.14  -0.01     0.07   0.04   0.02
    13   1    -0.08  -0.21   0.03     0.12  -0.13   0.30     0.26   0.53  -0.16
    14   1     0.24   0.18   0.14     0.31  -0.26  -0.01    -0.49  -0.09  -0.14
    15   1    -0.09   0.19  -0.29     0.19  -0.17   0.10     0.34  -0.32   0.29
                      7                      8                      9
                      A                      A                      A
 Frequencies --    282.6807               312.9547               345.5111
 Red. masses --      3.2574                 2.0961                 2.3312
 Frc consts  --      0.1534                 0.1210                 0.1640
 IR Inten    --      5.2845                 6.5144                39.1467
  Atom  AN      X      Y      Z        X      Y      Z        X      Y      Z
     1   8     0.21   0.05   0.00    -0.01   0.01   0.04     0.08   0.02  -0.02
     2   1     0.28   0.11  -0.08    -0.10   0.12   0.68     0.01   0.16   0.65
     3   6     0.07   0.12   0.03     0.01  -0.02  -0.16     0.02   0.04  -0.02
     4   1     0.05   0.12   0.10     0.06  -0.09  -0.54     0.04   0.03  -0.11
     5   6     0.05  -0.01  -0.00    -0.03   0.04   0.17    -0.01  -0.03   0.08
     6   6    -0.05  -0.15  -0.01    -0.03  -0.01   0.07     0.01  -0.01  -0.02
     7   8    -0.04  -0.14   0.02    -0.05  -0.04  -0.10     0.15  -0.00   0.00
     8   8    -0.12  -0.07  -0.05    -0.01  -0.02   0.05    -0.03   0.03  -0.12
     9   6    -0.05   0.15  -0.02     0.04   0.04  -0.05    -0.14  -0.10   0.06
    10   6    -0.09   0.03   0.04     0.07   0.00  -0.02    -0.09   0.02   0.03
    11   1    -0.13   0.27  -0.18     0.01   0.08  -0.11    -0.10  -0.21   0.27
    12   1     0.08   0.26   0.09     0.13   0.06  -0.01    -0.36  -0.20  -0.06
    13   1    -0.26  -0.35   0.17     0.02  -0.09   0.10    -0.01   0.19  -0.07
    14   1     0.29   0.04   0.07     0.23  -0.02  -0.02    -0.28   0.09   0.07
    15   1    -0.34   0.27  -0.08     0.03   0.05  -0.07     0.02  -0.06   0.02
                     10                     11                     12
                      A                      A                      A
 Frequencies --    371.6768               443.7855               575.3005
 Red. masses --      1.6160                 3.6468                 4.7682
 Frc consts  --      0.1315                 0.4232                 0.9298
 IR Inten    --     84.4529                 4.8396                 4.2087
  Atom  AN      X      Y      Z        X      Y      Z        X      Y      Z
     1   8    -0.02  -0.03  -0.10     0.10   0.02  -0.02    -0.13  -0.04  -0.01
     2   1    -0.17   0.12   0.88     0.17   0.14   0.12    -0.33  -0.28   0.01
     3   6    -0.01  -0.00   0.12    -0.10   0.09   0.03     0.26  -0.13   0.06
     4   1    -0.04   0.03   0.30    -0.14   0.09   0.13     0.28  -0.10   0.07
     5   6     0.02   0.00  -0.10    -0.09  -0.06  -0.11     0.29   0.23  -0.03
     6   6     0.01  -0.00  -0.04    -0.07   0.01   0.04     0.01  -0.05   0.04
     7   8    -0.06   0.01   0.02     0.12   0.02   0.03    -0.00  -0.05   0.01
     8   8     0.02  -0.01   0.02    -0.12   0.08   0.18    -0.11   0.07   0.03
     9   6     0.05   0.04   0.00    -0.09  -0.06  -0.15    -0.22   0.03  -0.11
    10   6    -0.00  -0.01   0.00     0.15  -0.11  -0.07    -0.01  -0.01  -0.01
    11   1     0.04   0.08  -0.07    -0.04  -0.11  -0.13    -0.15  -0.06  -0.01
    12   1     0.11   0.08   0.05    -0.03  -0.10  -0.19    -0.25  -0.03  -0.17
    13   1    -0.02  -0.06  -0.03     0.14   0.07   0.35    -0.02   0.16   0.35
    14   1     0.01  -0.02  -0.01     0.38  -0.22  -0.15     0.18  -0.11  -0.08
    15   1    -0.06   0.03   0.03     0.40  -0.26  -0.16     0.21  -0.14  -0.08
                     13                     14                     15
                      A                      A                      A
 Frequencies --    614.1576               766.4468               799.2645
 Red. masses --      7.9062                 5.4610                 1.2049
 Frc consts  --      1.7570                 1.8901                 0.4535
 IR Inten    --     13.0972                 7.5372                 5.4962
  Atom  AN      X      Y      Z        X      Y      Z        X      Y      Z
     1   8    -0.08  -0.08   0.00     0.00  -0.01  -0.04    -0.00  -0.00   0.00
     2   1    -0.03  -0.02   0.00     0.01  -0.00  -0.04     0.01   0.01   0.01
     3   6    -0.20   0.07  -0.04    -0.03   0.04   0.19    -0.02   0.00  -0.03
     4   1    -0.37  -0.10  -0.03     0.09  -0.12  -0.73    -0.06   0.02   0.15
     5   6    -0.07   0.53  -0.09     0.03  -0.03  -0.23    -0.01   0.03  -0.00
     6   6    -0.10  -0.10  -0.02    -0.07   0.08   0.50     0.00  -0.04   0.01
     7   8     0.34  -0.07   0.06     0.02  -0.03  -0.14    -0.00  -0.05   0.01
     8   8    -0.03  -0.23   0.00     0.02  -0.02  -0.14     0.00   0.04   0.00
     9   6     0.08  -0.03   0.06     0.02   0.01   0.00     0.05   0.06  -0.01
    10   6     0.00   0.01   0.01     0.01   0.00   0.01     0.03   0.02  -0.02
    11   1    -0.06   0.17  -0.17    -0.01  -0.01   0.12    -0.01  -0.09   0.52
    12   1     0.31   0.09   0.20    -0.08  -0.03  -0.05    -0.15  -0.31  -0.35
    13   1     0.00  -0.09  -0.18     0.00  -0.05  -0.08    -0.05  -0.18  -0.01
    14   1    -0.07   0.11   0.09    -0.06  -0.03  -0.01     0.01  -0.31  -0.30
    15   1    -0.11   0.10  -0.02    -0.09   0.04   0.10    -0.19   0.02   0.41
                     16                     17                     18
                      A                      A                      A
 Frequencies --    810.4176               890.9037               925.5888
 Red. masses --      1.6014                 3.0943                 2.7968
 Frc consts  --      0.6197                 1.4470                 1.4117
 IR Inten    --     48.1815                 8.6682                 0.8542
  Atom  AN      X      Y      Z        X      Y      Z        X      Y      Z
     1   8    -0.00   0.01   0.02    -0.01  -0.01   0.00    -0.01  -0.01   0.00
     2   1    -0.01   0.01   0.08    -0.00  -0.00  -0.00     0.10   0.12  -0.01
     3   6     0.03  -0.03  -0.15    -0.03   0.01  -0.00    -0.12   0.03  -0.02
     4   1    -0.12   0.16   0.93    -0.05  -0.01  -0.01    -0.19  -0.03  -0.02
     5   6     0.00  -0.01  -0.01     0.00   0.06  -0.01    -0.04   0.06  -0.02
     6   6    -0.02   0.03   0.15    -0.00  -0.10   0.01     0.13  -0.08   0.04
     7   8     0.01  -0.00  -0.04    -0.04  -0.14   0.02    -0.04  -0.13   0.01
     8   8     0.00  -0.01  -0.03    -0.07   0.26  -0.03     0.17   0.09  -0.01
     9   6    -0.01  -0.01   0.00     0.08  -0.02   0.11    -0.02  -0.01  -0.10
    10   6    -0.00  -0.00   0.01     0.10  -0.12  -0.05    -0.14   0.06   0.07
    11   1     0.00   0.01  -0.08     0.21  -0.08   0.00     0.32  -0.23  -0.17
    12   1     0.01   0.06   0.06    -0.22   0.21   0.26    -0.04  -0.01  -0.11
    13   1     0.01   0.03  -0.02     0.20  -0.12  -0.57    -0.12   0.36   0.57
    14   1    -0.02   0.07   0.07    -0.17   0.24   0.23     0.15   0.08   0.11
    15   1     0.02   0.01  -0.07     0.02   0.04  -0.33     0.22  -0.13  -0.13
                     19                     20                     21
                      A                      A                      A
 Frequencies --    994.5160              1069.8351              1127.4138
 Red. masses --      1.1042                 3.7017                 2.0547
 Frc consts  --      0.6435                 2.4963                 1.5388
 IR Inten    --     56.9602                20.7788                18.8371
  Atom  AN      X      Y      Z        X      Y      Z        X      Y      Z
     1   8    -0.04  -0.06   0.00     0.01   0.00   0.00     0.00   0.00   0.00
     2   1     0.35   0.40  -0.02    -0.14  -0.18   0.01    -0.04  -0.06   0.00
     3   6    -0.03  -0.03   0.00     0.07  -0.01   0.01     0.01  -0.00   0.00
     4   1     0.55   0.64  -0.03     0.17   0.09   0.00     0.04   0.03  -0.00
     5   6     0.01   0.02  -0.00     0.01  -0.01   0.00    -0.00  -0.00   0.00
     6   6     0.00   0.00  -0.00    -0.15   0.00  -0.03    -0.03   0.00   0.00
     7   8     0.00  -0.00   0.00     0.02   0.01   0.00     0.00   0.00  -0.00
     8   8    -0.00   0.00  -0.00    -0.17   0.09  -0.05    -0.04   0.01  -0.05
     9   6    -0.00   0.00   0.00     0.28  -0.18  -0.11     0.08   0.01   0.21
    10   6     0.00  -0.00  -0.00    -0.08   0.09   0.15    -0.09   0.00  -0.17
    11   1    -0.00   0.00   0.00     0.33  -0.18  -0.22     0.08   0.05   0.13
    12   1    -0.00   0.00   0.00     0.37  -0.27  -0.19     0.17  -0.02   0.21
    13   1     0.00  -0.00  -0.00    -0.09   0.14   0.31    -0.12   0.19   0.44
    14   1     0.00   0.00  -0.00    -0.01   0.12   0.19     0.41  -0.22  -0.32
    15   1     0.00  -0.00  -0.00    -0.06   0.05   0.25     0.33  -0.31  -0.18
                     22                     23                     24
                      A                      A                      A
 Frequencies --   1166.4902              1204.2196              1300.0400
 Red. masses --      1.1829                 1.7473                 3.0615
 Frc consts  --      0.9484                 1.4929                 3.0486
 IR Inten    --    112.6692                 6.1940               547.9919
  Atom  AN      X      Y      Z        X      Y      Z        X      Y      Z
     1   8    -0.06   0.01  -0.01    -0.01   0.00  -0.00     0.02  -0.00   0.00
     2   1     0.49   0.66  -0.04     0.09   0.13  -0.01    -0.16  -0.22   0.01
     3   6     0.04  -0.02   0.01     0.03  -0.01   0.01    -0.09   0.02  -0.02
     4   1    -0.33  -0.43   0.03    -0.04  -0.09   0.01     0.02   0.17  -0.03
     5   6     0.04  -0.01   0.01     0.01  -0.01   0.00    -0.01   0.03  -0.01
     6   6     0.04   0.01   0.00    -0.05   0.01  -0.01     0.35   0.04   0.04
     7   8    -0.00   0.00  -0.00     0.01   0.03  -0.00    -0.04   0.01  -0.01
     8   8    -0.05   0.01  -0.01    -0.03  -0.07   0.01    -0.16  -0.02  -0.01
     9   6     0.02  -0.04   0.01     0.09   0.16  -0.03     0.08  -0.05  -0.02
    10   6     0.00   0.02  -0.00    -0.06  -0.12   0.03    -0.03  -0.05   0.01
    11   1    -0.07   0.04  -0.05     0.23  -0.11   0.40    -0.64   0.40   0.19
    12   1     0.07  -0.01   0.03    -0.28  -0.12  -0.32     0.07  -0.15  -0.12
    13   1    -0.02  -0.02   0.03     0.10   0.27  -0.04     0.02   0.11   0.04
    14   1     0.01  -0.02  -0.03     0.02   0.25   0.34     0.02   0.15   0.19
    15   1    -0.01   0.00   0.07     0.13  -0.09  -0.44     0.01  -0.05  -0.09
                     25                     26                     27
                      A                      A                      A
 Frequencies --   1348.9324              1402.5613              1431.4451
 Red. masses --      1.2825                 1.2912                 1.3871
 Frc consts  --      1.3750                 1.4966                 1.6746
 IR Inten    --    146.4586                36.6435                11.5486
  Atom  AN      X      Y      Z        X      Y      Z        X      Y      Z
     1   8    -0.00  -0.00  -0.00    -0.00   0.00  -0.00     0.00  -0.00   0.00
     2   1     0.03   0.03  -0.00     0.01   0.02  -0.00    -0.01  -0.01   0.00
     3   6     0.02  -0.00   0.00     0.01  -0.00   0.00    -0.01   0.00  -0.00
     4   1    -0.00  -0.03   0.00     0.01  -0.02   0.00    -0.01   0.01  -0.00
     5   6     0.00  -0.00   0.00    -0.00  -0.00  -0.00     0.00   0.00   0.00
     6   6    -0.08  -0.01  -0.01    -0.06   0.00  -0.01     0.06  -0.00   0.01
     7   8     0.00  -0.02   0.00     0.01  -0.02   0.00    -0.01   0.01  -0.00
     8   8     0.07   0.06  -0.01     0.05   0.02   0.01    -0.04  -0.01  -0.02
     9   6    -0.04   0.01   0.01     0.04  -0.03  -0.03    -0.08   0.06   0.07
    10   6    -0.02  -0.05   0.03     0.02  -0.05  -0.11     0.07  -0.05  -0.06
    11   1    -0.45   0.27   0.14    -0.32   0.16   0.20     0.45  -0.22  -0.24
    12   1     0.68  -0.36  -0.20    -0.21   0.22   0.16     0.37  -0.32  -0.20
    13   1     0.03   0.03  -0.07    -0.02   0.17   0.50     0.03   0.06   0.33
    14   1    -0.03   0.04   0.10    -0.14   0.36   0.25    -0.30   0.20   0.13
    15   1     0.05  -0.02  -0.19    -0.28   0.03   0.35    -0.28   0.15   0.14
                     28                     29                     30
                      A                      A                      A
 Frequencies --   1493.0271              1502.9302              1514.8819
 Red. masses --      1.0413                 1.0623                 1.0848
 Frc consts  --      1.3676                 1.4138                 1.4668
 IR Inten    --      9.8543                 2.7708                18.4231
  Atom  AN      X      Y      Z        X      Y      Z        X      Y      Z
     1   8    -0.00  -0.00   0.00     0.00  -0.00   0.00     0.00  -0.00   0.00
     2   1     0.00   0.00  -0.00    -0.00  -0.00  -0.00    -0.00  -0.00   0.00
     3   6     0.00   0.00   0.00    -0.00   0.00  -0.00    -0.01   0.00  -0.00
     4   1    -0.00  -0.00   0.00    -0.00   0.00  -0.00    -0.00   0.01  -0.00
     5   6     0.00  -0.00  -0.00     0.00   0.00   0.00     0.00   0.00   0.00
     6   6    -0.00   0.01  -0.00     0.02  -0.01   0.00     0.02  -0.01   0.00
     7   8    -0.00  -0.01   0.00    -0.00   0.01  -0.00    -0.00   0.01  -0.00
     8   8     0.01   0.00  -0.00    -0.02  -0.00  -0.01    -0.02  -0.00  -0.01
     9   6    -0.02  -0.01   0.02    -0.01  -0.02  -0.05    -0.05   0.01  -0.05
    10   6    -0.03  -0.04  -0.00     0.02  -0.02   0.03    -0.02   0.01  -0.02
    11   1     0.02   0.01  -0.14     0.05  -0.24   0.44     0.15  -0.28   0.36
    12   1    -0.02  -0.06  -0.03     0.30   0.31   0.29     0.38   0.20   0.18
    13   1     0.25   0.52  -0.30     0.09   0.27   0.12    -0.05  -0.19  -0.21
    14   1     0.58  -0.04   0.03    -0.13  -0.27  -0.22     0.25   0.27   0.24
    15   1    -0.35   0.13   0.26    -0.25   0.30  -0.30     0.20  -0.29   0.37
                     31                     32                     33
                      A                      A                      A
 Frequencies --   1797.5637              1870.1745              3076.1889
 Red. masses --     10.7120                 8.3333                 1.0354
 Frc consts  --     20.3934                17.1724                 5.7728
 IR Inten    --    211.1259               198.2598                 9.2801
  Atom  AN      X      Y      Z        X      Y      Z        X      Y      Z
     1   8     0.00   0.02  -0.00    -0.01  -0.04   0.01    -0.00  -0.00  -0.00
     2   1     0.02   0.02  -0.00    -0.07  -0.12   0.01     0.00   0.00  -0.00
     3   6     0.24  -0.05   0.04    -0.38   0.09  -0.07     0.00   0.00   0.00
     4   1     0.30  -0.14   0.06    -0.50   0.24  -0.11    -0.00   0.00   0.00
     5   6    -0.31   0.05  -0.05     0.57  -0.13   0.10    -0.00   0.00  -0.00
     6   6     0.05   0.64  -0.11    -0.12   0.32  -0.07     0.00   0.00   0.00
     7   8     0.02  -0.45   0.08     0.01  -0.16   0.03     0.00  -0.00  -0.00
     8   8    -0.03  -0.06   0.00    -0.02  -0.02   0.00    -0.00  -0.00  -0.00
     9   6    -0.03   0.03  -0.01     0.00   0.01  -0.00     0.00   0.00  -0.00
    10   6     0.01  -0.00   0.01     0.00  -0.00   0.00    -0.02   0.02   0.04
    11   1     0.14  -0.13   0.10     0.05  -0.04   0.04     0.00   0.01   0.00
    12   1     0.16   0.05   0.01     0.04   0.02   0.01    -0.00  -0.02   0.02
    13   1    -0.01  -0.05  -0.04    -0.00  -0.02  -0.01     0.56  -0.21   0.12
    14   1    -0.03   0.00   0.01    -0.01  -0.00  -0.00     0.03   0.39  -0.44
    15   1     0.04  -0.01  -0.04     0.02  -0.01  -0.02    -0.31  -0.40  -0.13
                     34                     35                     36
                      A                      A                      A
 Frequencies --   3108.9927              3151.7305              3155.9956
 Red. masses --      1.0609                 1.1014                 1.1049
 Frc consts  --      6.0415                 6.4460                 6.4840
 IR Inten    --     17.0738                13.9402                 1.5322
  Atom  AN      X      Y      Z        X      Y      Z        X      Y      Z
     1   8    -0.00  -0.00   0.00    -0.00  -0.00   0.00    -0.00   0.00  -0.00
     2   1     0.00  -0.00  -0.00     0.00   0.00  -0.00     0.00  -0.00  -0.00
     3   6     0.00   0.00   0.00     0.00  -0.00   0.00     0.00   0.00   0.00
     4   1     0.00  -0.00   0.00    -0.00   0.00  -0.00     0.00  -0.00   0.00
     5   6    -0.00   0.00  -0.00    -0.00   0.00  -0.00    -0.00  -0.00  -0.00
     6   6     0.00   0.00   0.00     0.00   0.00  -0.00    -0.00   0.00  -0.00
     7   8     0.00  -0.00   0.00    -0.00  -0.00   0.00    -0.00  -0.00   0.00
     8   8    -0.00   0.00  -0.00     0.00  -0.00   0.00     0.00  -0.00  -0.00
     9   6    -0.02   0.01  -0.06    -0.01  -0.02  -0.01     0.02   0.05  -0.01
    10   6     0.01  -0.01   0.01    -0.05   0.06  -0.05    -0.06  -0.04  -0.01
    11   1     0.32   0.42   0.15     0.16   0.22   0.08    -0.25  -0.33  -0.12
    12   1    -0.09  -0.54   0.61    -0.00   0.01  -0.01    -0.04  -0.23   0.27
    13   1    -0.12   0.04  -0.03     0.61  -0.22   0.12     0.36  -0.15   0.08
    14   1     0.01   0.05  -0.05    -0.05  -0.45   0.52    -0.00   0.12  -0.14
    15   1    -0.01  -0.02  -0.00    -0.01   0.01  -0.01     0.40   0.54   0.19
                     37                     38                     39
                      A                      A                      A
 Frequencies --   3176.9311              3314.2944              3809.4249
 Red. masses --      1.1075                 1.1136                 1.0681
 Frc consts  --      6.5858                 7.2071                 9.1327
 IR Inten    --     14.3200                16.1095                45.4644
  Atom  AN      X      Y      Z        X      Y      Z        X      Y      Z
     1   8    -0.00  -0.00   0.00     0.00  -0.00   0.00    -0.05   0.04  -0.01
     2   1     0.00   0.00  -0.00    -0.01  -0.00  -0.00     0.75  -0.62   0.21
     3   6     0.00  -0.00   0.00    -0.08   0.06  -0.02    -0.00  -0.00   0.00
     4   1    -0.00   0.00  -0.00     0.73  -0.64   0.21     0.00  -0.01   0.00
     5   6    -0.00   0.00  -0.00     0.02  -0.00   0.00     0.00   0.00   0.00
     6   6     0.00  -0.00   0.00    -0.00   0.00  -0.00     0.00  -0.00   0.00
     7   8    -0.00   0.00  -0.00    -0.00   0.00  -0.00    -0.00   0.00  -0.00
     8   8     0.00   0.00   0.00    -0.00  -0.00   0.00    -0.00   0.00  -0.00
     9   6    -0.04  -0.07   0.01    -0.00  -0.00   0.00     0.00  -0.00   0.00
    10   6    -0.03  -0.05   0.01    -0.00  -0.00   0.00    -0.00  -0.00  -0.00
    11   1     0.37   0.50   0.19     0.00   0.00   0.00    -0.00   0.00  -0.00
    12   1     0.05   0.28  -0.33     0.00   0.00  -0.00    -0.00   0.00  -0.00
    13   1     0.07  -0.04   0.02     0.00  -0.00   0.00    -0.00   0.00   0.00
    14   1     0.02   0.23  -0.27    -0.00   0.00  -0.00     0.00   0.00  -0.00
    15   1     0.29   0.38   0.14    -0.00   0.00   0.00     0.00   0.00   0.00

 -------------------
 - Thermochemistry -
 -------------------
 Temperature   298.150 Kelvin.  Pressure   1.00000 Atm.
 Atom     1 has atomic number  8 and mass  15.99491
 Atom     2 has atomic number  1 and mass   1.00783
 Atom     3 has atomic number  6 and mass  12.00000
 Atom     4 has atomic number  1 and mass   1.00783
 Atom     5 has atomic number  6 and mass  12.00000
 Atom     6 has atomic number  6 and mass  12.00000
 Atom     7 has atomic number  8 and mass  15.99491
 Atom     8 has atomic number  8 and mass  15.99491
 Atom     9 has atomic number  6 and mass  12.00000
 Atom    10 has atomic number  6 and mass  12.00000
 Atom    11 has atomic number  1 and mass   1.00783
 Atom    12 has atomic number  1 and mass   1.00783
 Atom    13 has atomic number  1 and mass   1.00783
 Atom    14 has atomic number  1 and mass   1.00783
 Atom    15 has atomic number  1 and mass   1.00783
 Molecular mass:   115.03952 amu.
 Principal axes and moments of inertia in atomic units:
                           1         2         3
     Eigenvalues --   313.739821896.434722057.07161
           X            0.99993  -0.00981  -0.00584
           Y            0.00991   0.99981   0.01657
           Z            0.00568  -0.01663   0.99985
 This molecule is an asymmetric top.
 Rotational symmetry number  1.
 Rotational temperatures (Kelvin)      0.27607     0.04567     0.04211
 Rotational constants (GHZ):           5.75235     0.95165     0.87734
    1 imaginary frequencies ignored.
 Zero-point vibrational energy     298179.1 (Joules/Mol)
                                   71.26653 (Kcal/Mol)
 Warning -- explicit consideration of  12 degrees of freedom as
           vibrations may cause significant error
 Vibrational temperatures:     99.11   156.06   184.17   248.10   313.06
          (Kelvin)            406.71   450.27   497.11   534.76   638.51
                              827.73   883.64  1102.75  1149.96  1166.01
                             1281.81  1331.72  1430.89  1539.25  1622.10
                             1678.32  1732.60  1870.47  1940.81  2017.97
                             2059.53  2148.13  2162.38  2179.58  2586.29
                             2690.76  4425.95  4473.15  4534.64  4540.77
                             4570.90  4768.53  5480.91
 
 Zero-point correction=                           0.113570 (Hartree/Particle)
 Thermal correction to Energy=                    0.122408
 Thermal correction to Enthalpy=                  0.123352
 Thermal correction to Gibbs Free Energy=         0.079089
 Sum of electronic and zero-point Energies=           -420.111580
 Sum of electronic and thermal Energies=              -420.102743
 Sum of electronic and thermal Enthalpies=            -420.101799
 Sum of electronic and thermal Free Energies=         -420.146061
 
                     E (Thermal)             CV                S
                      KCal/Mol        Cal/Mol-Kelvin    Cal/Mol-Kelvin
 Total                   76.812             30.510             93.158
 Electronic               0.000              0.000              1.377
 Translational            0.889              2.981             40.136
 Rotational               0.889              2.981             28.594
 Vibrational             75.034             24.549             23.051
 Vibration     1          0.598              1.969              4.185
 Vibration     2          0.606              1.942              3.296
 Vibration     3          0.611              1.925              2.976
 Vibration     4          0.626              1.876              2.409
 Vibration     5          0.646              1.814              1.979
 Vibration     6          0.682              1.706              1.517
 Vibration     7          0.701              1.649              1.347
 Vibration     8          0.724              1.584              1.187
 Vibration     9          0.743              1.530              1.073
 Vibration    10          0.803              1.375              0.815
 Vibration    11          0.932              1.085              0.494
 Vibration    12          0.974              1.002              0.426
                       Q            Log10(Q)             Ln(Q)
 Total Bot       0.418331D-36        -36.378480        -83.764545
 Total V=0       0.724852D+16         15.860249         36.519573
 Vib (Bot)       0.108903D-49        -49.962958       -115.043963
 Vib (Bot)    1  0.299458D+01          0.476336          1.096805
 Vib (Bot)    2  0.188879D+01          0.276183          0.635935
 Vib (Bot)    3  0.159339D+01          0.202322          0.465865
 Vib (Bot)    4  0.116777D+01          0.067357          0.155096
 Vib (Bot)    5  0.909991D+00         -0.040963         -0.094321
 Vib (Bot)    6  0.679171D+00         -0.168021         -0.386882
 Vib (Bot)    7  0.603178D+00         -0.219555         -0.505544
 Vib (Bot)    8  0.535538D+00         -0.271210         -0.624483
 Vib (Bot)    9  0.489269D+00         -0.310452         -0.714842
 Vib (Bot)   10  0.388361D+00         -0.410765         -0.945821
 Vib (Bot)   11  0.266119D+00         -0.574924         -1.323811
 Vib (Bot)   12  0.239582D+00         -0.620545         -1.428858
 Vib (V=0)       0.188699D+03          2.275771          5.240155
 Vib (V=0)    1  0.353604D+01          0.548517          1.263007
 Vib (V=0)    2  0.245385D+01          0.389848          0.897657
 Vib (V=0)    3  0.217000D+01          0.336459          0.774727
 Vib (V=0)    4  0.177031D+01          0.248049          0.571155
 Vib (V=0)    5  0.153831D+01          0.187043          0.430683
 Vib (V=0)    6  0.134337D+01          0.128196          0.295182
 Vib (V=0)    7  0.128347D+01          0.108385          0.249566
 Vib (V=0)    8  0.123267D+01          0.090846          0.209180
 Vib (V=0)    9  0.119956D+01          0.079022          0.181955
 Vib (V=0)   10  0.113311D+01          0.054271          0.124963
 Vib (V=0)   11  0.106641D+01          0.027924          0.064297
 Vib (V=0)   12  0.105444D+01          0.023020          0.053006
 Electronic      0.200000D+01          0.301030          0.693147
 Translational   0.484981D+08          7.685724         17.697035
 Rotational      0.396026D+06          5.597724         12.889236
 ***** Axes restored to original set *****
 -------------------------------------------------------------------
 Center     Atomic                   Forces (Hartrees/Bohr)
 Number     Number              X              Y              Z
 -------------------------------------------------------------------
      1        8          -0.027706535   -0.058547471    0.005842298
      2        1          -0.000295273   -0.002132803    0.000317183
      3        6           0.030716811    0.072768816   -0.007748630
      4        1          -0.002827459   -0.000219299   -0.000337557
      5        6          -0.003060853   -0.014119874    0.001869945
      6        6           0.002670883    0.000064319    0.000324779
      7        8           0.000706433    0.001298475   -0.000110600
      8        8          -0.000300766    0.000759428   -0.000178200
      9        6           0.000215219    0.000040498    0.000006585
     10        6          -0.000077392    0.000036450   -0.000003317
     11        1          -0.000015593    0.000021180   -0.000001437
     12        1          -0.000034945    0.000027242    0.000005427
     13        1          -0.000011896    0.000012048    0.000021635
     14        1           0.000009385   -0.000001244   -0.000000886
     15        1           0.000011980   -0.000007766   -0.000007225
 -------------------------------------------------------------------
 Cartesian Forces:  Max     0.072768816 RMS     0.015465936

 GradGradGradGradGradGradGradGradGradGradGradGradGradGradGradGradGradGrad
 Berny optimization.
 Search for a local minimum.
 Step number   1 out of a maximum of    2
 All quantities printed in internal units (Hartrees-Bohrs-Radians)
 Second derivative matrix not updated -- analytic derivatives used.
 ITU=  0
     Eigenvalues ---   -0.17670   0.00121   0.00165   0.00262   0.00424
     Eigenvalues ---    0.00511   0.01292   0.01549   0.01640   0.02416
     Eigenvalues ---    0.03235   0.03539   0.05116   0.06211   0.06586
     Eigenvalues ---    0.07716   0.08601   0.10279   0.11271   0.12266
     Eigenvalues ---    0.13105   0.14285   0.17058   0.19021   0.19911
     Eigenvalues ---    0.28424   0.29291   0.43532   0.49034   0.61975
     Eigenvalues ---    0.69871   0.76449   0.79142   0.86544   0.90036
     Eigenvalues ---    0.93941   1.00817   1.66550   1.80324
 Eigenvalue     1 is  -1.77D-01 should be greater than     0.000000 Eigenvector:
                          Y3        Y1        X3        X1        Y5
   1                    0.70003  -0.50378   0.30901  -0.30420  -0.15228
                          X4        Y2        Y4        Z3        X6
   1                   -0.11993  -0.10011   0.08555  -0.07315   0.05237
 Quadratic step=7.632D-01 exceeds max=3.000D-01 adjusted using Lamda=-1.669D-01.
 Angle between NR and scaled steps=  37.45 degrees.
 Angle between quadratic step and forces=   5.74 degrees.
 Linear search not attempted -- first point.
 B after Tr=    -0.000955   -0.001764    0.000126
         Rot=    1.000000   -0.000016    0.000018    0.000153 Ang=  -0.02 deg.
 Variable       Old X    -DE/DX   Delta X   Delta X   Delta X     New X
                                 (Linear)    (Quad)   (Total)
    X1        6.10391  -0.02771   0.00000  -0.09127  -0.09188   6.01204
    Y1        1.33140  -0.05855   0.00000  -0.15983  -0.16344   1.16795
    Z1        0.24590   0.00584   0.00000   0.01389   0.01427   0.26017
    X2        4.73127  -0.00030   0.00000   0.01579   0.01560   4.74687
    Y2        2.48438  -0.00213   0.00000  -0.00913  -0.01235   2.47203
    Z2       -0.12873   0.00032   0.00000   0.00380   0.00418  -0.12455
    X3        4.54541   0.03072   0.00000   0.10000   0.09861   4.64402
    Y3       -1.55835   0.07277   0.00000   0.20806   0.20485  -1.35350
    Z3        0.50885  -0.00775   0.00000  -0.02049  -0.02024   0.48861
    X4        6.03043  -0.00283   0.00000  -0.01507  -0.01694   6.01349
    Y4       -2.88752  -0.00022   0.00000   0.00719   0.00355  -2.88398
    Z4        0.92416  -0.00034   0.00000  -0.00320  -0.00295   0.92120
    X5        2.17218  -0.00306   0.00000  -0.00099  -0.00241   2.16977
    Y5       -1.43764  -0.01412   0.00000  -0.03737  -0.03981  -1.47745
    Z5        0.17066   0.00187   0.00000   0.00606   0.00621   0.17687
    X6       -0.15353   0.00267   0.00000   0.01047   0.00951  -0.14402
    Y6       -0.06784   0.00006   0.00000   0.00320   0.00149  -0.06635
    Z6       -0.36467   0.00032   0.00000   0.00078   0.00090  -0.36377
    X7       -0.20630   0.00071   0.00000  -0.00340  -0.00366  -0.20996
    Y7        2.17550   0.00130   0.00000   0.00673   0.00505   2.18055
    Z7       -0.73691  -0.00011   0.00000  -0.00156  -0.00137  -0.73828
    X8       -2.13930  -0.00030   0.00000   0.00017  -0.00126  -2.14057
    Y8       -1.60262   0.00076   0.00000   0.00365   0.00256  -1.60006
    Z8       -0.39277  -0.00018   0.00000  -0.00080  -0.00080  -0.39357
    X9       -4.56114   0.00022   0.00000   0.00038  -0.00068  -4.56182
    Y9       -0.44022   0.00004   0.00000  -0.00020  -0.00053  -0.44075
    Z9       -0.87863   0.00001   0.00000  -0.00001  -0.00006  -0.87869
   X10       -5.59153  -0.00008   0.00000  -0.00037  -0.00113  -5.59266
   Y10        0.80878   0.00004   0.00000   0.00004  -0.00006   0.80873
   Z10        1.48378  -0.00000   0.00000   0.00004  -0.00001   1.48377
   X11       -5.74631  -0.00002   0.00000  -0.00110  -0.00262  -5.74893
   Y11       -2.00341   0.00002   0.00000  -0.00043  -0.00039  -2.00379
   Z11       -1.49587  -0.00000   0.00000  -0.00002  -0.00016  -1.49603
   X12       -4.34340  -0.00003   0.00000  -0.00083  -0.00142  -4.34482
   Y12        0.91109   0.00003   0.00000  -0.00038  -0.00073   0.91036
   Z12       -2.41916   0.00001   0.00000  -0.00016  -0.00016  -2.41932
   X13       -7.48089  -0.00001   0.00000  -0.00025  -0.00077  -7.48166
   Y13        1.54465   0.00001   0.00000   0.00000   0.00050   1.54515
   Z13        1.10417   0.00002   0.00000   0.00054   0.00045   1.10462
   X14       -5.72031   0.00001   0.00000   0.00042  -0.00081  -5.72112
   Y14       -0.55714  -0.00000   0.00000  -0.00000  -0.00011  -0.55725
   Z14        3.02247  -0.00000   0.00000   0.00025   0.00016   3.02263
   X15       -4.38915   0.00001   0.00000   0.00015  -0.00015  -4.38930
   Y15        2.37724  -0.00001   0.00000  -0.00010  -0.00058   2.37665
   Z15        2.06506  -0.00001   0.00000  -0.00046  -0.00041   2.06465
         Item               Value     Threshold  Converged?
 Maximum Force            0.072769     0.000450     NO 
 RMS     Force            0.015466     0.000300     NO 
 Maximum Displacement     0.204852     0.001800     NO 
 RMS     Displacement     0.044713     0.001200     NO 
 Predicted change in Energy=-3.861214D-02
 GradGradGradGradGradGradGradGradGradGradGradGradGradGradGradGradGradGrad


 ----------------------------------------------------------------------

 Electric dipole moment (input orientation):
 (Debye = 10**-18 statcoulomb cm , SI units = C m)
                  (au)            (Debye)         (10**-30 SI)
   Tot        0.146211D+01      0.371630D+01      0.123962D+02
   x         -0.128096D+01     -0.325588D+01     -0.108604D+02
   y         -0.703723D+00     -0.178869D+01     -0.596642D+01
   z          0.407673D-01      0.103620D+00      0.345640D+00

 Dipole polarizability, Alpha (input orientation).
 (esu units = cm**3 , SI units = C**2 m**2 J**-1)
 Alpha(0;0):
               (au)            (10**-24 esu)      (10**-40 SI)
   iso        0.739625D+02      0.109601D+02      0.121948D+02
   aniso      0.471099D+02      0.698096D+01      0.776737D+01
   xx         0.103118D+03      0.152804D+02      0.170018D+02
   yx         0.341986D+01      0.506771D+00      0.563859D+00
   yy         0.681592D+02      0.101002D+02      0.112379D+02
   zx         0.308479D+01      0.457118D+00      0.508612D+00
   zy        -0.201729D+01     -0.298932D+00     -0.332606D+00
   zz         0.506107D+02      0.749974D+01      0.834458D+01

 ----------------------------------------------------------------------

 Dipole orientation:
     8          1.21509605         -1.35437698         -5.98164282
     1          0.06625545         -0.07844514         -5.34443869
     6          2.23625349         -2.82692842         -3.21803215
     1          3.52147930         -4.26586854         -3.86775018
     6          1.28940996         -1.92260342         -1.20635530
     6         -0.33054024         -0.16508812          0.15698914
     8         -1.59033213          1.41515377         -0.88689047
     8         -0.22844317         -0.55284864          2.63466386
     6         -1.74431997          1.10726101          4.18342750
     6         -0.44793263          3.63452732          4.55088211
     1         -1.94395150          0.08549753          5.95693673
     1         -3.59320296          1.32323184          3.29932054
     1         -1.56088861          4.79692755          5.84139727
     1          1.42786749          3.36985780          5.36404319
     1         -0.27760068          4.63600509          2.75876732

 Electric dipole moment (dipole orientation):
 (Debye = 10**-18 statcoulomb cm , SI units = C m)
                  (au)            (Debye)         (10**-30 SI)
   Tot        0.146211D+01      0.371630D+01      0.123962D+02
   x          0.000000D+00      0.000000D+00      0.000000D+00
   y          0.000000D+00      0.000000D+00      0.000000D+00
   z          0.146211D+01      0.371630D+01      0.123962D+02

 Dipole polarizability, Alpha (dipole orientation).
 (esu units = cm**3 , SI units = C**2 m**2 J**-1)
 Alpha(0;0):
               (au)            (10**-24 esu)      (10**-40 SI)
   iso        0.739625D+02      0.109601D+02      0.121948D+02
   aniso      0.471099D+02      0.698096D+01      0.776737D+01
   xx         0.590402D+02      0.874885D+01      0.973441D+01
   yx        -0.114888D+02     -0.170246D+01     -0.189425D+01
   yy         0.650814D+02      0.964406D+01      0.107305D+02
   zx        -0.884521D+01     -0.131072D+01     -0.145838D+01
   zy         0.977103D+01      0.144792D+01      0.161103D+01
   zz         0.977659D+02      0.144874D+02      0.161194D+02

 ----------------------------------------------------------------------
 1\1\GINC-AJ\Freq\UM062X\6-311++G(d,p)\C5H7O3(2)\AAYUSH\16-Aug-2025\0\\
 # freq 6-311++g(d,p) m062x\\Title Card Required\\0,2\O,3.230052,0.7045
 45,0.130124\H,2.503678,1.314675,-0.068119\C,2.405325,-0.824642,0.26927
 1\H,3.191166,-1.528012,0.489042\C,1.149466,-0.760765,0.09031\C,-0.0812
 42,-0.0359,-0.192975\O,-0.10917,1.151225,-0.389954\O,-1.132071,-0.8480
 7,-0.207845\C,-2.413649,-0.232952,-0.464953\C,-2.958911,0.42799,0.7851
 83\H,-3.040817,-1.060158,-0.791578\H,-2.29843,0.48213,-1.280163\H,-3.9
 58715,0.817395,0.5843\H,-3.027059,-0.294828,1.599422\H,-2.32264,1.2579
 8,1.092783\\Version=ES64L-G16RevA.03\State=2-A\HF=-420.2251504\S2=0.78
 0084\S2-1=0.\S2A=0.750536\RMSD=4.519e-09\RMSF=1.547e-02\ZeroPoint=0.11
 35704\Thermal=0.1224075\Dipole=-1.2809622,-0.7037233,0.0407673\DipoleD
 eriv=-0.4975009,0.0288976,0.0010578,-0.4206265,-0.5695532,-0.0313092,0
 .0669503,0.0191762,-0.4756218,0.1190819,-0.0090043,-0.0270704,0.106512
 8,0.2928515,0.014607,-0.0448516,0.0011292,0.3091859,0.4541771,-0.02202
 48,0.0547319,0.3588136,0.3220175,-0.0126163,-0.0000668,-0.0525143,0.02
 50791,0.1625674,-0.0192783,-0.000609,-0.0473721,0.110392,0.007828,0.00
 5415,0.009411,0.1865816,-0.8746029,0.2005518,-0.1083224,0.1242828,-0.2
 600317,0.0389637,-0.1205546,0.0528306,-0.1305043,2.6007721,0.1533103,0
 .1533057,0.3334874,1.4314589,-0.1916592,0.2014876,-0.1459668,0.4637772
 ,-0.9094219,0.0634463,-0.0470391,0.0663213,-1.0421503,0.1561148,-0.058
 6336,0.1279291,-0.3912891,-1.9518262,-0.2555861,-0.0125994,-0.3341876,
 -0.6490164,0.002845,-0.1230907,-0.0172824,-0.3328235,1.0100422,-0.0733
 078,-0.0173415,-0.2484505,0.2989026,0.0294248,0.0711705,0.0680802,0.33
 14487,-0.0856059,-0.0095434,0.009882,0.0485785,0.0082719,-0.0457867,0.
 0138978,-0.091011,-0.0499421,-0.0483453,-0.0302587,-0.0189129,-0.05792
 34,-0.0319658,-0.0744647,-0.0209794,-0.0441997,0.0456863,-0.0195371,-0
 .0239618,0.0627716,0.0664664,0.0241349,0.0649019,0.0031265,0.0307289,-
 0.0367022,-0.0953734,0.0623438,-0.0187912,0.0742597,0.0761849,-0.00074
 83,-0.0197559,0.0163699,0.0549124,0.0879704,0.0154095,0.002308,-0.0086
 462,-0.0166931,0.088146,0.0341486,0.0455057,-0.0372838,0.0476025,-0.08
 09941,-0.033371,-0.0615161,0.0051965,-0.0462468,-0.0082638,-0.0201865,
 0.0374956\Polar=103.1175295,3.4198611,68.1591972,3.0847855,-2.0172908,
 50.6107318\Quadrupole=0.3442218,-0.4287137,0.0844919,-4.3960582,0.8181
 666,-0.1868257\PG=C01 [X(C5H7O3)]\NImag=1\\0.36920110,-0.26064702,0.19
 806800,0.08923427,-0.06327562,0.04860034,-0.31846807,0.24278067,-0.082
 55940,0.30922375,0.20992012,-0.21821367,0.06341128,-0.22433724,0.23310
 181,-0.07719490,0.06787026,-0.02497931,0.07813573,-0.06759818,0.026223
 19,-0.00712885,0.10710438,-0.01352349,0.00897493,0.02102534,-0.0019566
 6,0.85989271,0.07829177,0.06719505,-0.00634929,-0.01279358,-0.00949751
 ,-0.00052410,-0.40188992,0.12872756,-0.00896762,-0.00260299,-0.0371568
 9,0.00358991,0.00408655,-0.00215132,0.16693660,-0.05797302,0.13557829,
 0.00448014,-0.01489246,0.00247717,-0.00173446,-0.00291746,0.00004696,-
 0.20963819,0.17033365,-0.05156746,0.22355901,0.00568015,-0.02323434,0.
 00523966,-0.00355110,-0.00374614,0.00036602,0.18029881,-0.16190687,0.0
 4516398,-0.16255244,0.18331283,-0.00083336,0.00252818,0.00365270,0.000
 14701,0.00044736,0.00139979,-0.05321087,0.04384238,-0.04653817,0.05404
 086,-0.04859272,0.03321769,-0.05251377,-0.08523296,0.00535874,-0.00055
 809,-0.00272560,0.00039346,-0.62807818,0.16746585,-0.10678492,-0.01719
 365,-0.02011329,0.00053124,0.95585455,-0.03812781,-0.02862022,0.001310
 03,-0.00104522,-0.00036573,-0.00004680,0.11953074,-0.02007920,0.013967
 12,0.00803663,0.00400212,0.00087735,-0.19303449,0.16085678,-0.00222135
 ,-0.00494426,0.01136579,0.00010085,-0.00033066,0.00004963,-0.09917602,
 0.02025226,-0.05080354,-0.00401590,-0.00282543,0.00304999,0.15288246,-
 0.04398126,0.07902101,0.01020324,0.01801399,-0.00120530,0.00117520,-0.
 00385201,0.00065167,-0.02881304,-0.00682252,-0.00274150,0.00101688,0.0
 0130740,-0.00107776,-0.18725146,0.08224383,-0.02938690,0.61395966,0.00
 341110,-0.00593471,0.00110043,-0.00841921,0.00063270,-0.00121752,-0.01
 258623,0.00671439,-0.00292774,0.00069841,0.00050070,0.00125923,0.08597
 185,-0.07657038,0.01283581,-0.01925900,0.95546878,0.00111748,0.0029626
 9,-0.00271501,0.00143689,-0.00051450,0.00083267,-0.00171240,-0.0020110
 6,-0.00051457,-0.00101330,0.00131819,0.00730822,-0.03005254,0.01248989
 ,-0.07395704,0.05858732,-0.12472914,0.23516261,-0.00373350,-0.00417023
 ,-0.00002144,0.00091791,0.00181709,0.00005368,0.00705771,0.00183444,0.
 00059887,-0.00049555,-0.00057569,0.00020996,-0.00607261,0.03549894,-0.
 00949848,-0.10747936,0.04483753,-0.01175413,0.10459459,0.00259973,0.01
 034640,-0.00116437,0.00542985,-0.00199323,0.00085200,-0.01677613,-0.00
 982137,-0.00053328,0.00118334,0.00116399,-0.00025510,0.04785533,-0.048
 95420,0.01782377,0.01954567,-0.71973407,0.10715332,-0.01165176,0.85107
 991,-0.00105840,-0.00203391,0.00144894,-0.00058060,0.00032444,-0.00156
 449,0.00356376,0.00197322,0.00078588,-0.00006714,-0.00049126,-0.001320
 12,-0.01151453,0.01610801,0.01650490,-0.00689792,0.11214282,-0.0972410
 0,0.01193938,-0.13471059,0.05693767,-0.00285989,-0.00379306,0.00022266
 ,0.00080363,0.00141511,-0.00012069,-0.00072520,0.00432775,-0.00090980,
 0.00005557,-0.00059448,0.00019269,-0.06453576,-0.01113533,-0.00884668,
 -0.24526747,-0.10278373,-0.00498394,0.00306515,-0.05777489,0.00354474,
 0.54043036,-0.00102707,0.00061817,-0.00027216,0.00183662,-0.00010896,0
 .00031464,0.00387715,-0.00203780,0.00097987,0.00015338,-0.00003702,-0.
 00005615,0.00392856,0.01085549,0.00071939,-0.07461996,-0.17842169,0.00
 844455,-0.06177742,-0.07853095,0.00874391,0.06997453,0.37086309,-0.000
 21027,-0.00062752,-0.00008997,-0.00020161,0.00023808,0.00014066,-0.000
 70721,0.00095947,0.00076367,0.00005549,-0.00013974,-0.00040583,-0.0105
 2323,-0.00141857,0.00901522,-0.01185291,0.00384677,-0.06916584,0.00566
 366,0.00968378,0.02958915,0.04735024,-0.03637550,0.09650642,0.00122512
 ,0.00156212,-0.00002015,-0.00036415,-0.00056094,-0.00001386,-0.0016545
 2,-0.00163669,0.00001403,-0.00004965,0.00020464,-0.00006113,0.00311807
 ,-0.00138910,0.00075836,-0.06360540,-0.01211071,-0.00907577,0.00448796
 ,0.01692564,-0.00174780,-0.15001896,0.03172458,-0.01966750,0.48414233,
 -0.00027455,-0.00044095,0.00003600,0.00010581,0.00022751,-0.00005878,-
 0.00050488,0.00101567,-0.00016312,-0.00007226,-0.00008910,-0.00004842,
 -0.00581297,-0.00137479,-0.00004411,-0.01273459,0.02629357,-0.00621076
 ,-0.00292804,-0.00841803,-0.00002424,0.05347113,-0.11831381,0.01909570
 ,0.10101074,0.59915578,0.00017708,0.00022614,-0.00015433,-0.00004378,-
 0.00006864,0.00008965,-0.00025537,-0.00030299,0.00005411,0.00003640,-0
 .00002109,-0.00037522,-0.00022141,0.00080957,0.00606765,-0.00905319,-0
 .00898359,0.00037591,-0.00044300,0.00361878,-0.00621645,-0.02315938,0.
 01722687,-0.07287709,0.00674072,-0.02368114,0.55960144,-0.00020239,-0.
 00034285,0.00004083,0.00002076,0.00010814,-0.00001003,0.00017179,0.000
 36813,-0.00009986,-0.00000473,-0.00002761,0.00012706,-0.00078727,-0.00
 030679,-0.00152874,0.00330244,0.00733699,0.00209187,-0.00004635,-0.002
 50734,0.00107694,-0.03364797,0.02171909,0.02809749,-0.08570572,0.00808
 384,0.02820465,0.57359402,0.00011205,0.00007505,-0.00003081,-0.0000551
 9,-0.00002631,0.00004316,-0.00008433,-0.00008724,-0.00002856,0.0000110
 3,0.00001451,-0.00003643,0.00051788,0.00005242,0.00073918,-0.00193638,
 0.00023800,0.00033690,0.00138443,0.00018391,-0.00173112,0.01652860,-0.
 00826781,-0.01082614,0.01098580,-0.10552226,-0.04588788,0.01806727,0.5
 7090613,-0.00008330,-0.00015407,0.00002260,0.00000234,0.00004064,-0.00
 002586,-0.00001360,0.00019311,-0.00001548,0.00000209,-0.00001569,0.000
 05567,-0.00002529,-0.00023715,-0.00064237,0.00193489,0.00457278,0.0005
 0394,0.00080588,-0.00238213,-0.00026037,-0.00474516,0.00166262,0.01052
 426,0.03922191,-0.05037579,-0.18503004,0.03181069,-0.03373781,0.525406
 67,-0.00015133,-0.00021478,0.00000990,0.00002935,0.00007956,-0.0000053
 5,-0.00011869,0.00033984,-0.00003762,-0.00000966,-0.00004919,-0.000020
 27,-0.00154297,-0.00038097,0.00015708,-0.00119507,0.00547619,-0.002863
 34,0.00054878,-0.00120268,0.00031603,-0.03635385,-0.02127927,-0.009826
 51,-0.13117916,-0.11680094,-0.04360179,0.01003373,0.01065116,0.0039424
 7,0.15975138,-0.00001954,0.00002231,0.00001245,0.00002504,-0.00000721,
 -0.00001537,0.00015297,-0.00012965,0.00003609,0.00001002,0.00001120,0.
 00002868,0.00066619,0.00023694,-0.00035354,0.00234695,-0.00344504,0.00
 156424,-0.00142611,0.00180153,-0.00070962,0.01796370,0.01340094,0.0065
 1092,-0.13007571,-0.21935493,-0.06198972,-0.00684619,-0.00958238,-0.00
 316188,0.12596961,0.22918168,0.00001342,-0.00000278,0.00000576,-0.0000
 1776,-0.00000956,-0.00000741,-0.00005610,0.00005291,-0.00002720,-0.000
 00288,-0.00001164,-0.00002007,-0.00035074,-0.00003592,0.00022133,0.000
 62387,0.00309752,-0.00068597,0.00139198,-0.00089956,0.00080676,-0.0083
 5982,-0.00446777,-0.00125263,-0.04428148,-0.05845309,-0.07563941,-0.01
 551414,-0.02299610,-0.00843596,0.05006761,0.06739912,0.07780057,-0.000
 06738,-0.00017590,0.00001365,-0.00002744,0.00003036,-0.00000836,0.0000
 9025,0.00019081,-0.00005276,0.00002365,-0.00002824,-0.00005855,-0.0004
 2289,0.00009167,0.00103235,0.00377784,0.00695824,-0.00213962,-0.001057
 92,-0.00350911,0.00012112,-0.01341743,0.02674354,-0.02900292,-0.054946
 79,-0.03032860,0.03151929,0.00002327,-0.00872710,0.00921511,-0.0000738
 9,-0.01078167,0.01426384,0.06597007,0.00013132,0.00015406,-0.00002936,
 -0.00001952,-0.00003272,0.00003234,-0.00019271,-0.00012784,-0.00003872
 ,0.00000695,0.00002022,-0.00000094,0.00047876,-0.00014366,0.00034696,-
 0.00375555,-0.00153538,-0.00027482,-0.00130580,0.00071911,-0.00110908,
 0.01018460,-0.01149572,0.01045784,-0.02163443,-0.16746042,0.13261361,0
 .00118940,0.01219232,-0.01339549,-0.00292146,-0.01338066,0.01737737,0.
 01731933,0.18112323,0.00002817,0.00000592,0.00000490,-0.00003231,-0.00
 000827,-0.00001054,-0.00000494,-0.00000614,0.00000808,0.00000167,0.000
 00596,-0.00000415,-0.00003371,-0.00015369,-0.00006619,0.00159055,0.004
 14787,0.00026851,0.00150213,-0.00200134,0.00061452,-0.00650369,0.00388
 029,-0.00279899,0.02316477,0.13037456,-0.20081473,0.00453014,0.0173044
 3,-0.02001814,-0.00001631,-0.00714023,0.00950305,-0.02590606,-0.143836
 04,0.21504713,-0.00009646,-0.00013750,0.00002127,0.00002782,0.00005164
 ,-0.00001876,0.00011825,0.00012706,-0.00000257,0.00000833,-0.00002148,
 0.00001286,-0.00027346,0.00003168,-0.00026605,0.00173488,0.00064740,-0
 .00014880,-0.00037203,-0.00024193,0.00048430,-0.00084949,0.00064524,0.
 00270203,-0.01065108,0.00236050,-0.00462156,-0.27532221,0.08927670,-0.
 04625582,0.00036701,0.00022594,0.00018104,0.00012154,-0.00030799,0.000
 32616,0.29747174,0.00004523,0.00006879,-0.00000274,0.00000077,-0.00001
 570,-0.00000486,-0.00005137,-0.00006001,0.00002458,-0.00000278,0.00000
 671,-0.00000909,0.00019507,0.00003655,0.00006978,-0.00124461,-0.002484
 56,-0.00032824,-0.00034169,0.00111441,0.00035485,0.00395801,-0.0002772
 8,-0.00320689,0.01145813,-0.00563152,0.00563271,0.08837435,-0.08010279
 ,0.01699430,-0.00049508,-0.00005611,0.00039472,-0.00010258,0.00040106,
 -0.00001268,-0.09845301,0.08382440,0.00005285,0.00010417,0.00000720,-0
 .00000100,-0.00002735,-0.00001060,0.00000763,-0.00013140,0.00000782,0.
 00000602,0.00000799,-0.00003481,0.00027611,0.00014823,0.00043244,-0.00
 135504,-0.00262257,-0.00046604,-0.00002456,0.00115947,-0.00014704,0.00
 665961,-0.00333157,-0.00468039,0.02377884,-0.00739767,0.00846670,-0.04
 799608,0.01810630,-0.05756481,-0.00081399,-0.00003472,0.00103198,-0.00
 039056,0.00113605,0.00055678,0.05014077,-0.01814055,0.05885306,0.00002
 600,0.00005054,-0.00002518,0.00001101,-0.00001910,0.00001320,-0.000052
 87,-0.00004512,0.00000895,-0.00000952,0.00000637,0.00000748,0.00005157
 ,0.00004283,-0.00002859,-0.00089019,-0.00147938,0.00026277,-0.00035031
 ,0.00087181,0.00007596,0.00197384,-0.00080851,-0.00069531,-0.00275872,
 -0.00761097,0.01036355,-0.04811400,-0.01214196,0.01074740,0.00019525,0
 .00024090,-0.00079307,-0.00018138,0.00123212,0.00214336,0.00351141,0.0
 1968920,-0.02289378,0.04743302,-0.00003539,-0.00003496,-0.00002346,0.0
 0001311,0.00000338,0.00001735,0.00003724,0.00002396,0.00000618,-0.0000
 0306,-0.00000246,0.00001285,-0.00009623,0.00006981,-0.00012590,0.00029
 948,-0.00026200,0.00033985,-0.00037464,0.00032793,0.00024378,-0.001948
 86,0.00086146,0.00065078,0.00171201,0.01150507,-0.01417856,-0.01200778
 ,-0.17207907,0.13679255,-0.00043980,0.00092669,0.00069804,0.00186386,-
 0.00104114,-0.00300377,-0.00169907,-0.00766920,0.00686899,0.01175819,0
 .18214370,0.00000864,0.00001315,0.00000980,-0.00000741,-0.00000545,-0.
 00000761,0.00002297,-0.00003147,0.00000527,0.00000158,0.00000651,-0.00
 000240,0.00009562,0.00001049,-0.00002889,0.00021289,0.00036748,-0.0001
 5023,-0.00006624,-0.00022636,0.00019003,-0.00127460,0.00007549,0.00285
 385,0.00120156,0.02014010,-0.02378524,0.01220785,0.13391846,-0.1961180
 6,-0.00043331,0.00000387,0.00088998,0.00197089,-0.00366491,-0.00327669
 ,0.00031513,0.00233031,-0.00376371,-0.01468135,-0.14611764,0.21507635,
 0.00008606,0.00009505,-0.00002352,-0.00003216,-0.00003501,0.00003392,-
 0.00009609,-0.00009146,0.00001574,-0.00000817,0.00001615,-0.00000723,0
 .00020594,-0.00005661,0.00003762,-0.00066813,0.00130056,0.00024752,-0.
 00106446,-0.00074752,0.00074417,0.00134748,-0.00109046,-0.00118145,0.0
 0796068,0.01203576,0.00435781,-0.14331539,-0.12458996,-0.04655960,-0.0
 0030088,0.00154790,0.00283423,0.00018851,-0.00040501,-0.00078993,-0.01
 579625,-0.02302965,-0.00744683,-0.00084509,0.00092092,0.00042578,0.152
 33795,-0.00006007,-0.00006897,0.00003795,0.00002919,0.00004178,-0.0000
 3017,0.00005896,0.00007085,0.00000305,0.00000705,-0.00001634,0.0000028
 2,-0.00006397,-0.00000194,-0.00018199,0.00046730,-0.00146031,-0.000541
 10,-0.00082105,0.00071469,0.00091878,0.00020690,0.00089188,0.00115102,
 -0.00817608,-0.01159179,-0.00501406,-0.12320865,-0.20799448,-0.0567959
 9,0.00126780,0.00037468,-0.00214327,0.00045540,0.00060754,0.00044313,0
 .00749481,0.01084525,0.00415462,-0.01178692,-0.01477318,-0.00682003,0.
 13412933,0.22236035,-0.00006271,-0.00006938,-0.00002252,0.00003113,0.0
 0001426,0.00002155,0.00008571,0.00005611,0.00000404,-0.00000156,-0.000
 01074,0.00001669,-0.00003123,0.00015270,-0.00022993,-0.00003069,-0.002
 89015,0.00044384,-0.00035769,0.00188161,-0.00012838,0.00093383,0.00245
 553,0.00187750,-0.02001250,-0.02318925,-0.00976294,-0.04303866,-0.0551
 7357,-0.06840206,0.00312540,-0.00215028,-0.00419077,-0.00057742,0.0003
 8518,0.00098645,-0.00287000,-0.00409622,-0.00268859,0.01549461,0.01781
 894,0.00810756,0.04731177,0.06481526,0.07396756\\0.02770653,0.05854747
 ,-0.00584230,0.00029527,0.00213280,-0.00031718,-0.03071681,-0.07276882
 ,0.00774863,0.00282746,0.00021930,0.00033756,0.00306085,0.01411987,-0.
 00186995,-0.00267088,-0.00006432,-0.00032478,-0.00070643,-0.00129847,0
 .00011060,0.00030077,-0.00075943,0.00017820,-0.00021522,-0.00004050,-0
 .00000659,0.00007739,-0.00003645,0.00000332,0.00001559,-0.00002118,0.0
 0000144,0.00003494,-0.00002724,-0.00000543,0.00001190,-0.00001205,-0.0
 0002163,-0.00000939,0.00000124,0.00000089,-0.00001198,0.00000777,0.000
 00722\\\@


 IF NO USE IS MADE OF THE LABOR OF PAST AGES,
 THE WORLD MUST REMAIN ALWAYS IN THE INFANCY OF KNOWLEDGE.

                          -- CICERO
 Job cpu time:       0 days  0 hours 52 minutes 15.9 seconds.
 Elapsed time:       0 days  0 hours  2 minutes 10.7 seconds.
 File lengths (MBytes):  RWF=    153 Int=      0 D2E=      0 Chk=      6 Scr=      1
 Normal termination of Gaussian 16 at Sat Aug 16 17:09:59 2025.
