 Entering Gaussian System, Link 0=g16
 Initial command:
 /opt/g16/l1.exe "/home/aayush/scratches/g16/Gau-17916.inp" -scrdir="/home/aayush/scratches/g16/"
 Entering Link 1 = /opt/g16/l1.exe PID=     17919.
  
 Copyright (c) 1988,1990,1992,1993,1995,1998,2003,2009,2016,
            Gaussian, Inc.  All Rights Reserved.
  
 This is part of the Gaussian(R) 16 program.  It is based on
 the Gaussian(R) 09 system (copyright 2009, Gaussian, Inc.),
 the Gaussian(R) 03 system (copyright 2003, Gaussian, Inc.),
 the Gaussian(R) 98 system (copyright 1998, Gaussian, Inc.),
 the Gaussian(R) 94 system (copyright 1995, Gaussian, Inc.),
 the Gaussian 92(TM) system (copyright 1992, Gaussian, Inc.),
 the Gaussian 90(TM) system (copyright 1990, Gaussian, Inc.),
 the Gaussian 88(TM) system (copyright 1988, Gaussian, Inc.),
 the Gaussian 86(TM) system (copyright 1986, Carnegie Mellon
 University), and the Gaussian 82(TM) system (copyright 1983,
 Carnegie Mellon University). Gaussian is a federally registered
 trademark of Gaussian, Inc.
  
 This software contains proprietary and confidential information,
 including trade secrets, belonging to Gaussian, Inc.
  
 This software is provided under written license and may be
 used, copied, transmitted, or stored only in accord with that
 written license.
  
 The following legend is applicable only to US Government
 contracts under FAR:
  
                    RESTRICTED RIGHTS LEGEND
  
 Use, reproduction and disclosure by the US Government is
 subject to restrictions as set forth in subparagraphs (a)
 and (c) of the Commercial Computer Software - Restricted
 Rights clause in FAR 52.227-19.
  
 Gaussian, Inc.
 340 Quinnipiac St., Bldg. 40, Wallingford CT 06492
  
  
 ---------------------------------------------------------------
 Warning -- This program may not be used in any manner that
 competes with the business of Gaussian, Inc. or will provide
 assistance to any competitor of Gaussian, Inc.  The licensee
 of this program is prohibited from giving any competitor of
 Gaussian, Inc. access to this program.  By using this program,
 the user acknowledges that Gaussian, Inc. is engaged in the
 business of creating and licensing software in the field of
 computational chemistry and represents and warrants to the
 licensee that it is not a competitor of Gaussian, Inc. and that
 it will not use this program in any manner prohibited above.
 ---------------------------------------------------------------
  

 Cite this work as:
 Gaussian 16, Revision A.03,
 M. J. Frisch, G. W. Trucks, H. B. Schlegel, G. E. Scuseria, 
 M. A. Robb, J. R. Cheeseman, G. Scalmani, V. Barone, 
 G. A. Petersson, H. Nakatsuji, X. Li, M. Caricato, A. V. Marenich, 
 J. Bloino, B. G. Janesko, R. Gomperts, B. Mennucci, H. P. Hratchian, 
 J. V. Ortiz, A. F. Izmaylov, J. L. Sonnenberg, D. Williams-Young, 
 F. Ding, F. Lipparini, F. Egidi, J. Goings, B. Peng, A. Petrone, 
 T. Henderson, D. Ranasinghe, V. G. Zakrzewski, J. Gao, N. Rega, 
 G. Zheng, W. Liang, M. Hada, M. Ehara, K. Toyota, R. Fukuda, 
 J. Hasegawa, M. Ishida, T. Nakajima, Y. Honda, O. Kitao, H. Nakai, 
 T. Vreven, K. Throssell, J. A. Montgomery, Jr., J. E. Peralta, 
 F. Ogliaro, M. J. Bearpark, J. J. Heyd, E. N. Brothers, K. N. Kudin, 
 V. N. Staroverov, T. A. Keith, R. Kobayashi, J. Normand, 
 K. Raghavachari, A. P. Rendell, J. C. Burant, S. S. Iyengar, 
 J. Tomasi, M. Cossi, J. M. Millam, M. Klene, C. Adamo, R. Cammi, 
 J. W. Ochterski, R. L. Martin, K. Morokuma, O. Farkas, 
 J. B. Foresman, and D. J. Fox, Gaussian, Inc., Wallingford CT, 2016.
 
 ******************************************
 Gaussian 16:  ES64L-G16RevA.03 25-Dec-2016
                24-Aug-2025 
 ******************************************
 %chk=ethyl_propiolate.chk
 %nprocshared=24
 Will use up to   24 processors via shared memory.
 %mem=12GB
 --------------------------
 # ccsd(t)/6-311++g(d,p) sp
 --------------------------
 1/38=1,172=1/1;
 2/12=2,17=6,18=5,40=1/2;
 3/5=4,6=6,7=1111,11=9,25=1,30=1/1,2,3;
 4//1;
 5/5=2,38=5/2;
 8/6=4,9=120000,10=2/1,4;
 9/5=7,14=2/13;
 6/7=2,8=2,9=2,10=2/1;
 99/5=1,9=1/99;
 -------------------
 Title Card Required
 -------------------
 Symbolic Z-matrix:
 Charge =  0 Multiplicity = 2
 O                     3.29659   0.84633   0.1159 
 H                     2.51763   1.39632  -0.07984 
 C                     2.3044   -1.05129   0.29259 
 H                     3.25693  -1.48519   0.49094 
 C                     1.15974  -0.73361   0.08742 
 C                    -0.08337  -0.0358   -0.19325 
 O                    -0.11181   1.15148  -0.39037 
 O                    -1.13182  -0.84822  -0.20776 
 C                    -2.41319  -0.23302  -0.46488 
 C                    -2.95889   0.42791   0.78517 
 H                    -3.04029  -1.06028  -0.79148 
 H                    -2.29803   0.48224  -1.27991 
 H                    -3.95872   0.81721   0.58415 
 H                    -3.02692  -0.29493   1.59939 
 H                    -2.32257   1.25784   1.09276 
 
                          Input orientation:                          
 ---------------------------------------------------------------------
 Center     Atomic      Atomic             Coordinates (Angstroms)
 Number     Number       Type             X           Y           Z
 ---------------------------------------------------------------------
      1          8           0        3.296587    0.846332    0.115899
      2          1           0        2.517628    1.396322   -0.079840
      3          6           0        2.304402   -1.051285    0.292589
      4          1           0        3.256926   -1.485188    0.490943
      5          6           0        1.159743   -0.733613    0.087418
      6          6           0       -0.083370   -0.035803   -0.193251
      7          8           0       -0.111806    1.151482   -0.390367
      8          8           0       -1.131816   -0.848215   -0.207755
      9          6           0       -2.413187   -0.233017   -0.464883
     10          6           0       -2.958890    0.427908    0.785165
     11          1           0       -3.040288   -1.060285   -0.791475
     12          1           0       -2.298030    0.482237   -1.279905
     13          1           0       -3.958724    0.817212    0.584153
     14          1           0       -3.026919   -0.294926    1.599389
     15          1           0       -2.322569    1.257836    1.092756
 ---------------------------------------------------------------------
                    Distance matrix (angstroms):
                    1          2          3          4          5
     1  O    0.000000
     2  H    0.973437   0.000000
     3  C    2.148628   2.484944   0.000000
     4  H    2.361825   3.029101   1.065325   0.000000
     5  C    2.657657   2.531492   1.205510   2.264039   0.000000
     6  C    3.506828   2.971369   2.639829   3.704918   1.452943
     7  O    3.459272   2.659003   3.340161   4.367733   2.323510
     8  O    4.752578   4.286345   3.478387   4.489429   2.313332
     9  C    5.839848   5.207297   4.847574   5.884872   3.649858
    10  C    6.305076   5.628349   5.489343   6.510213   4.335795
    11  H    6.679409   6.118151   5.453530   6.440500   4.303420
    12  H    5.777592   5.046412   5.099687   6.153389   3.912040
    13  H    7.270464   6.536007   6.542403   7.574651   5.371267
    14  H    6.594690   6.035075   5.541010   6.490923   4.472878
    15  H    5.718260   4.982135   5.232702   6.246369   4.135586
                    6          7          8          9         10
     6  C    0.000000
     7  O    1.203872   0.000000
     8  O    1.326447   2.252233   0.000000
     9  C    2.353874   2.686772   1.444471   0.000000
    10  C    3.072611   3.164067   2.439791   1.515663   0.000000
    11  H    3.186032   3.691722   2.006980   1.088251   2.169594
    12  H    2.520695   2.453312   2.068735   1.090463   2.168917
    13  H    4.043558   3.982487   3.375230   2.142928   1.091619
    14  H    3.456180   3.814329   2.676437   2.154465   1.090907
    15  H    2.888136   2.664289   2.746757   2.158030   1.090090
                   11         12         13         14         15
    11  H    0.000000
    12  H    1.780136   0.000000
    13  H    2.502173   2.518894   0.000000
    14  H    2.510415   3.070113   1.770823   0.000000
    15  H    3.072317   2.496333   1.769132   1.778723   0.000000
 Stoichiometry    C5H7O3(2)
 Framework group  C1[X(C5H7O3)]
 Deg. of freedom    39
 Full point group                 C1      NOp   1
 Largest Abelian subgroup         C1      NOp   1
 Largest concise Abelian subgroup C1      NOp   1
                         Standard orientation:                         
 ---------------------------------------------------------------------
 Center     Atomic      Atomic             Coordinates (Angstroms)
 Number     Number       Type             X           Y           Z
 ---------------------------------------------------------------------
      1          8           0        3.370993    0.827005    0.108697
      2          1           0        2.593641    1.380419   -0.083754
      3          6           0        2.373389   -1.068856    0.273305
      4          1           0        3.324634   -1.506694    0.469133
      5          6           0        1.229681   -0.746658    0.069895
      6          6           0       -0.011385   -0.043579   -0.206653
      7          8           0       -0.036409    1.144992   -0.396339
      8          8           0       -1.062129   -0.852905   -0.226454
      9          6           0       -2.341693   -0.232474   -0.479985
     10          6           0       -2.885793    0.422161    0.774064
     11          1           0       -2.971066   -1.055899   -0.811876
     12          1           0       -2.224327    0.487537   -1.290491
     13          1           0       -3.884474    0.815552    0.575290
     14          1           0       -2.956052   -0.305559    1.583734
     15          1           0       -2.247188    1.248338    1.086973
 ---------------------------------------------------------------------
 Rotational constants (GHZ):           5.2568927           0.9478340           0.8619951
 Standard basis: 6-311++G(d,p) (5D, 7F)
 There are   233 symmetry adapted cartesian basis functions of A   symmetry.
 There are   225 symmetry adapted basis functions of A   symmetry.
   225 basis functions,   351 primitive gaussians,   233 cartesian basis functions
    31 alpha electrons       30 beta electrons
       nuclear repulsion energy       348.5673831214 Hartrees.
 NAtoms=   15 NActive=   15 NUniq=   15 SFac= 1.00D+00 NAtFMM=   60 NAOKFM=F Big=F
 Integral buffers will be    131072 words long.
 Raffenetti 2 integral format.
 Two-electron integral symmetry is turned on.
 One-electron integrals computed using PRISM.
 NBasis=   225 RedAO= T EigKep=  1.57D-06  NBF=   225
 NBsUse=   225 1.00D-06 EigRej= -1.00D+00 NBFU=   225
 ExpMin= 3.60D-02 ExpMax= 8.59D+03 ExpMxC= 1.30D+03 IAcc=3 IRadAn=         5 AccDes= 0.00D+00
 Harris functional with IExCor=  205 and IRadAn=       5 diagonalized for initial guess.
 HarFok:  IExCor=  205 AccDes= 0.00D+00 IRadAn=         5 IDoV= 1 UseB2=F ITyADJ=14
 ICtDFT=  3500011 ScaDFX=  1.000000  1.000000  1.000000  1.000000
 FoFCou: FMM=F IPFlag=           0 FMFlag=      100000 FMFlg1=           0
         NFxFlg=           0 DoJE=T BraDBF=F KetDBF=T FulRan=T
         wScrn=  0.000000 ICntrl=       500 IOpCl=  0 I1Cent=   200000004 NGrid=           0
         NMat0=    1 NMatS0=      1 NMatT0=    0 NMatD0=    1 NMtDS0=    0 NMtDT0=    0
 Petite list used in FoFCou.
 Initial guess <Sx>= 0.0000 <Sy>= 0.0000 <Sz>= 0.5000 <S**2>= 0.7500 S= 0.5000
 Requested convergence on RMS density matrix=1.00D-08 within 128 cycles.
 Requested convergence on MAX density matrix=1.00D-06.
 Requested convergence on             energy=1.00D-06.
 No special actions if energy rises.
 Initial convergence to 1.0D-05 achieved.  Increase integral accuracy.
 SCF Done:  E(UHF) =  -417.989231675     A.U. after   35 cycles
            NFock= 35  Conv=0.34D-08     -V/T= 2.0006
 <Sx>= 0.0000 <Sy>= 0.0000 <Sz>= 0.5000 <S**2>= 0.9146 S= 0.5792
 <L.S>=  0.00000000000    
 Annihilation of the first spin contaminant:
 S**2 before annihilation     0.9146,   after     0.7673
 ExpMin= 3.60D-02 ExpMax= 8.59D+03 ExpMxC= 1.30D+03 IAcc=3 IRadAn=         5 AccDes= 0.00D+00
 HarFok:  IExCor=  205 AccDes= 0.00D+00 IRadAn=         5 IDoV=-2 UseB2=F ITyADJ=14
 ICtDFT= 12500011 ScaDFX=  1.000000  1.000000  1.000000  1.000000
 Range of M.O.s used for correlation:     9   225
 NBasis=   225 NAE=    31 NBE=    30 NFC=     8 NFV=     0
 NROrb=    217 NOA=    23 NOB=    22 NVA=   194 NVB=   195

 **** Warning!!: The largest alpha MO coefficient is  0.16515667D+03


 **** Warning!!: The largest beta MO coefficient is  0.20806891D+03

 Semi-Direct transformation.
 ModeAB=           4 MOrb=            23 LenV=    1609179999
 LASXX=    109339976 LTotXX=   109339976 LenRXX=   221407890
 LTotAB=   112067914 MaxLAS=   125254136 LenRXY=           0
 NonZer=   330747866 LenScr=   498067456 LnRSAI=   125254136
 LnScr1=   188641280 LExtra=           0 Total=   1033370762
 MaxDsk=          -1 SrtSym=           T ITran=            4
 JobTyp=1 Pass  1:  I=   1 to  23.
 (rs|ai) integrals will be sorted in core.
 ModeAB=           4 MOrb=            22 LenV=    1609179999
 LASXX=    104936601 LTotXX=   104936601 LenRXX=   190867446
 LTotAB=    85930845 MaxLAS=   119808304 LenRXY=           0
 NonZer=   295804047 LenScr=   445446144 LnRSAI=   119808304
 LnScr1=   180483072 LExtra=           0 Total=    936604966
 MaxDsk=          -1 SrtSym=           T ITran=            4
 JobTyp=2 Pass  1:  I=   1 to  22.
 (rs|ai) integrals will be sorted in core.
 SymMOI:  orbitals are not symmetric.
 Spin components of T(2) and E(2):
     alpha-alpha T2 =       0.5131980416D-01 E2=     -0.1682578128D+00
     alpha-beta  T2 =       0.2833798009D+00 E2=     -0.9309509924D+00
     beta-beta   T2 =       0.5043983138D-01 E2=     -0.1568470715D+00
 ANorm=    0.1176919469D+01
 E2 =    -0.1256055877D+01 EUMP2 =    -0.41924528755158D+03
 (S**2,0)=  0.91459D+00           (S**2,1)=  0.86855D+00
 E(PUHF)=      -0.41800293838D+03        E(PMP2)=      -0.41925718918D+03
 Keep R2 and R3 ints in memory in canonical form, NReq=652884060.
 CIDS: In Core Option IDoMem=           1.
 Iterations=  50 Convergence= 0.100D-06
 Produce multiple copies of IABC intergrals
 Iteration Nr.   1
 **********************
 DD1Dir will call FoFMem   1 times, MxPair=      1496
 NAB=   506 NAA=   253 NBB=   231.
 E(PMP3)=      -0.41928290046D+03
 MP4(R+Q)=  0.24837190D-01
 E3=       -0.28871842D-01        EUMP3=      -0.41927415939D+03
 E4(DQ)=   -0.55410167D-02        UMP4(DQ)=   -0.41927970041D+03
 E4(SDQ)=  -0.25571593D-01        UMP4(SDQ)=  -0.41929973099D+03
 DE(Corr)=  -1.2596756     E(Corr)=     -419.24890731    
 NORM(A)=   0.11850535D+01
 Iteration Nr.   2
 **********************
 DD1Dir will call FoFMem   1 times, MxPair=      1496
 NAB=   506 NAA=   253 NBB=   231.
 DE(Corr)=  -1.3024473     E(CORR)=     -419.29167894     Delta=-4.28D-02
 NORM(A)=   0.12051893D+01
 Iteration Nr.   3
 **********************
 DD1Dir will call FoFMem   1 times, MxPair=      1496
 NAB=   506 NAA=   253 NBB=   231.
 DE(Corr)=  -1.3049802     E(CORR)=     -419.29421186     Delta=-2.53D-03
 NORM(A)=   0.12153492D+01
 Iteration Nr.   4
 **********************
 DD1Dir will call FoFMem   1 times, MxPair=      1496
 NAB=   506 NAA=   253 NBB=   231.
 DE(Corr)=  -1.3114778     E(CORR)=     -419.30070946     Delta=-6.50D-03
 NORM(A)=   0.12216014D+01
 Iteration Nr.   5
 **********************
 DD1Dir will call FoFMem   1 times, MxPair=      1496
 NAB=   506 NAA=   253 NBB=   231.
 DE(Corr)=  -1.3131753     E(CORR)=     -419.30240702     Delta=-1.70D-03
 NORM(A)=   0.12248950D+01
 Iteration Nr.   6
 **********************
 DD1Dir will call FoFMem   1 times, MxPair=      1496
 NAB=   506 NAA=   253 NBB=   231.
 DE(Corr)=  -1.3137040     E(CORR)=     -419.30293567     Delta=-5.29D-04
 NORM(A)=   0.12254526D+01
 Iteration Nr.   7
 **********************
 DD1Dir will call FoFMem   1 times, MxPair=      1496
 NAB=   506 NAA=   253 NBB=   231.
 DE(Corr)=  -1.3137836     E(CORR)=     -419.30301527     Delta=-7.96D-05
 NORM(A)=   0.12255673D+01
 Iteration Nr.   8
 **********************
 DD1Dir will call FoFMem   1 times, MxPair=      1496
 NAB=   506 NAA=   253 NBB=   231.
 DE(Corr)=  -1.3137665     E(CORR)=     -419.30299816     Delta= 1.71D-05
 NORM(A)=   0.12255908D+01
 Iteration Nr.   9
 **********************
 DD1Dir will call FoFMem   1 times, MxPair=      1496
 NAB=   506 NAA=   253 NBB=   231.
 DE(Corr)=  -1.3137782     E(CORR)=     -419.30300987     Delta=-1.17D-05
 NORM(A)=   0.12255913D+01
 Iteration Nr.  10
 **********************
 DD1Dir will call FoFMem   1 times, MxPair=      1496
 NAB=   506 NAA=   253 NBB=   231.
 DE(Corr)=  -1.3137764     E(CORR)=     -419.30300809     Delta= 1.78D-06
 NORM(A)=   0.12255953D+01
 Iteration Nr.  11
 **********************
 DD1Dir will call FoFMem   1 times, MxPair=      1496
 NAB=   506 NAA=   253 NBB=   231.
 DE(Corr)=  -1.3137856     E(CORR)=     -419.30301732     Delta=-9.24D-06
 NORM(A)=   0.12256067D+01
 Iteration Nr.  12
 **********************
 DD1Dir will call FoFMem   1 times, MxPair=      1496
 NAB=   506 NAA=   253 NBB=   231.
 DE(Corr)=  -1.3137876     E(CORR)=     -419.30301923     Delta=-1.91D-06
 NORM(A)=   0.12256197D+01
 Iteration Nr.  13
 **********************
 DD1Dir will call FoFMem   1 times, MxPair=      1496
 NAB=   506 NAA=   253 NBB=   231.
 DE(Corr)=  -1.3137916     E(CORR)=     -419.30302327     Delta=-4.04D-06
 NORM(A)=   0.12256312D+01
 Iteration Nr.  14
 **********************
 DD1Dir will call FoFMem   1 times, MxPair=      1496
 NAB=   506 NAA=   253 NBB=   231.
 DE(Corr)=  -1.3137939     E(CORR)=     -419.30302561     Delta=-2.34D-06
 NORM(A)=   0.12256390D+01
 Iteration Nr.  15
 **********************
 DD1Dir will call FoFMem   1 times, MxPair=      1496
 NAB=   506 NAA=   253 NBB=   231.
 DE(Corr)=  -1.3137952     E(CORR)=     -419.30302683     Delta=-1.22D-06
 NORM(A)=   0.12256432D+01
 Iteration Nr.  16
 **********************
 DD1Dir will call FoFMem   1 times, MxPair=      1496
 NAB=   506 NAA=   253 NBB=   231.
 DE(Corr)=  -1.3137962     E(CORR)=     -419.30302783     Delta=-1.00D-06
 NORM(A)=   0.12256451D+01
 Iteration Nr.  17
 **********************
 DD1Dir will call FoFMem   1 times, MxPair=      1496
 NAB=   506 NAA=   253 NBB=   231.
 DE(Corr)=  -1.3137964     E(CORR)=     -419.30302803     Delta=-1.96D-07
 NORM(A)=   0.12256456D+01
 Iteration Nr.  18
 **********************
 DD1Dir will call FoFMem   1 times, MxPair=      1496
 NAB=   506 NAA=   253 NBB=   231.
 DE(Corr)=  -1.3137965     E(CORR)=     -419.30302818     Delta=-1.51D-07
 NORM(A)=   0.12256457D+01
 Iteration Nr.  19
 **********************
 DD1Dir will call FoFMem   1 times, MxPair=      1496
 NAB=   506 NAA=   253 NBB=   231.
 DE(Corr)=  -1.3137965     E(CORR)=     -419.30302817     Delta= 7.32D-09
 NORM(A)=   0.12256457D+01
 Wavefunction amplitudes converged. E(Corr)=     -419.30302817    
 Largest amplitude= 7.10D-02
 Time for triples=    36725.90 seconds.
 T4(CCSD)= -0.56813775D-01
 T5(CCSD)=  0.37725483D-02
 CCSD(T)= -0.41935606940D+03

 S**2, projected HF & approx projected MPn energies after annihilation of
 unwanted spin states (see manual for definitions):

 spins       (S**2,0) (S**2,1)    PUHF        PMP2        PMP3        PMP4
 annihilated
 s+1         0.73979  0.74619 -418.002938 -419.257189 -419.282900
 s+1,s+2     0.75013  0.74997 -418.002194 -419.256486 -419.282252
 s+1 to s+3  0.75000  0.75000 -418.002206 -419.256495 -419.282255
 s+1 to s+4  0.75000  0.75000 -418.002205 -419.256495 -419.282254
 s+1 to s+5  0.75000  0.75000 -418.002205
 s+1 to s+6  0.75000  0.75000 -418.002205

 Discarding MO integrals.

 **********************************************************************

            Population analysis using the SCF density.

 **********************************************************************

 Orbital symmetries:
 Alpha Orbitals:
       Occupied  (A) (A) (A) (A) (A) (A) (A) (A) (A) (A) (A) (A)
                 (A) (A) (A) (A) (A) (A) (A) (A) (A) (A) (A) (A)
                 (A) (A) (A) (A) (A) (A) (A)
       Virtual   (A) (A) (A) (A) (A) (A) (A) (A) (A) (A) (A) (A)
                 (A) (A) (A) (A) (A) (A) (A) (A) (A) (A) (A) (A)
                 (A) (A) (A) (A) (A) (A) (A) (A) (A) (A) (A) (A)
                 (A) (A) (A) (A) (A) (A) (A) (A) (A) (A) (A) (A)
                 (A) (A) (A) (A) (A) (A) (A) (A) (A) (A) (A) (A)
                 (A) (A) (A) (A) (A) (A) (A) (A) (A) (A) (A) (A)
                 (A) (A) (A) (A) (A) (A) (A) (A) (A) (A) (A) (A)
                 (A) (A) (A) (A) (A) (A) (A) (A) (A) (A) (A) (A)
                 (A) (A) (A) (A) (A) (A) (A) (A) (A) (A) (A) (A)
                 (A) (A) (A) (A) (A) (A) (A) (A) (A) (A) (A) (A)
                 (A) (A) (A) (A) (A) (A) (A) (A) (A) (A) (A) (A)
                 (A) (A) (A) (A) (A) (A) (A) (A) (A) (A) (A) (A)
                 (A) (A) (A) (A) (A) (A) (A) (A) (A) (A) (A) (A)
                 (A) (A) (A) (A) (A) (A) (A) (A) (A) (A) (A) (A)
                 (A) (A) (A) (A) (A) (A) (A) (A) (A) (A) (A) (A)
                 (A) (A) (A) (A) (A) (A) (A) (A) (A) (A) (A) (A)
                 (A) (A)
 Beta  Orbitals:
       Occupied  (A) (A) (A) (A) (A) (A) (A) (A) (A) (A) (A) (A)
                 (A) (A) (A) (A) (A) (A) (A) (A) (A) (A) (A) (A)
                 (A) (A) (A) (A) (A) (A)
       Virtual   (A) (A) (A) (A) (A) (A) (A) (A) (A) (A) (A) (A)
                 (A) (A) (A) (A) (A) (A) (A) (A) (A) (A) (A) (A)
                 (A) (A) (A) (A) (A) (A) (A) (A) (A) (A) (A) (A)
                 (A) (A) (A) (A) (A) (A) (A) (A) (A) (A) (A) (A)
                 (A) (A) (A) (A) (A) (A) (A) (A) (A) (A) (A) (A)
                 (A) (A) (A) (A) (A) (A) (A) (A) (A) (A) (A) (A)
                 (A) (A) (A) (A) (A) (A) (A) (A) (A) (A) (A) (A)
                 (A) (A) (A) (A) (A) (A) (A) (A) (A) (A) (A) (A)
                 (A) (A) (A) (A) (A) (A) (A) (A) (A) (A) (A) (A)
                 (A) (A) (A) (A) (A) (A) (A) (A) (A) (A) (A) (A)
                 (A) (A) (A) (A) (A) (A) (A) (A) (A) (A) (A) (A)
                 (A) (A) (A) (A) (A) (A) (A) (A) (A) (A) (A) (A)
                 (A) (A) (A) (A) (A) (A) (A) (A) (A) (A) (A) (A)
                 (A) (A) (A) (A) (A) (A) (A) (A) (A) (A) (A) (A)
                 (A) (A) (A) (A) (A) (A) (A) (A) (A) (A) (A) (A)
                 (A) (A) (A) (A) (A) (A) (A) (A) (A) (A) (A) (A)
                 (A) (A) (A)
 The electronic state is 2-A.
 Alpha  occ. eigenvalues --  -20.62269 -20.61636 -20.57163 -11.42232 -11.30420
 Alpha  occ. eigenvalues --  -11.26760 -11.26232 -11.23167  -1.49275  -1.39337
 Alpha  occ. eigenvalues --   -1.37266  -1.09067  -1.04635  -0.92813  -0.84444
 Alpha  occ. eigenvalues --   -0.77404  -0.73484  -0.70790  -0.67464  -0.66055
 Alpha  occ. eigenvalues --   -0.64563  -0.63892  -0.59317  -0.56168  -0.54825
 Alpha  occ. eigenvalues --   -0.54475  -0.51433  -0.49848  -0.47952  -0.43023
 Alpha  occ. eigenvalues --   -0.41875
 Alpha virt. eigenvalues --    0.03891   0.04708   0.05629   0.06305   0.07171
 Alpha virt. eigenvalues --    0.08531   0.08817   0.09368   0.11061   0.12279
 Alpha virt. eigenvalues --    0.12727   0.13637   0.14501   0.14988   0.16601
 Alpha virt. eigenvalues --    0.17221   0.18032   0.18476   0.18667   0.19708
 Alpha virt. eigenvalues --    0.19784   0.20337   0.21465   0.21877   0.22472
 Alpha virt. eigenvalues --    0.23107   0.24624   0.27627   0.28013   0.28988
 Alpha virt. eigenvalues --    0.29457   0.29706   0.31040   0.33216   0.33674
 Alpha virt. eigenvalues --    0.33926   0.35575   0.36023   0.37023   0.38306
 Alpha virt. eigenvalues --    0.38704   0.39174   0.40629   0.41809   0.42027
 Alpha virt. eigenvalues --    0.44572   0.45490   0.46218   0.48126   0.48312
 Alpha virt. eigenvalues --    0.50598   0.53272   0.57167   0.59852   0.62050
 Alpha virt. eigenvalues --    0.62747   0.63934   0.69175   0.70778   0.71760
 Alpha virt. eigenvalues --    0.76550   0.78416   0.78829   0.80885   0.82824
 Alpha virt. eigenvalues --    0.83191   0.84084   0.85873   0.87274   0.88608
 Alpha virt. eigenvalues --    0.89378   0.90415   0.91125   0.93903   0.96621
 Alpha virt. eigenvalues --    1.02969   1.04686   1.09380   1.13094   1.19037
 Alpha virt. eigenvalues --    1.20012   1.23561   1.25167   1.26306   1.30457
 Alpha virt. eigenvalues --    1.32690   1.34331   1.35371   1.38371   1.38675
 Alpha virt. eigenvalues --    1.40991   1.43360   1.45614   1.51311   1.52475
 Alpha virt. eigenvalues --    1.55388   1.56551   1.57415   1.61515   1.64342
 Alpha virt. eigenvalues --    1.65828   1.69105   1.71749   1.72031   1.73775
 Alpha virt. eigenvalues --    1.79845   1.81210   1.82524   1.84336   1.87023
 Alpha virt. eigenvalues --    1.90455   1.91931   1.93180   1.96024   1.98184
 Alpha virt. eigenvalues --    2.03821   2.06689   2.09389   2.10620   2.11266
 Alpha virt. eigenvalues --    2.20080   2.22021   2.25461   2.30190   2.30996
 Alpha virt. eigenvalues --    2.37020   2.38928   2.41196   2.48837   2.59928
 Alpha virt. eigenvalues --    2.63318   2.69738   2.74234   2.81952   2.83483
 Alpha virt. eigenvalues --    2.84451   2.88721   2.91605   2.92421   2.93682
 Alpha virt. eigenvalues --    2.95790   2.97987   3.02529   3.04090   3.05592
 Alpha virt. eigenvalues --    3.09442   3.11694   3.15217   3.18211   3.22098
 Alpha virt. eigenvalues --    3.24347   3.27454   3.28960   3.32285   3.35398
 Alpha virt. eigenvalues --    3.40046   3.45460   3.46387   3.48471   3.50761
 Alpha virt. eigenvalues --    3.56376   3.59480   3.64993   3.69023   3.74548
 Alpha virt. eigenvalues --    3.77679   3.89613   4.01114   4.09380   4.20752
 Alpha virt. eigenvalues --    4.22012   4.24559   4.27212   4.41227   4.53329
 Alpha virt. eigenvalues --    4.54444   4.66806   5.48882   5.54640   5.57765
 Alpha virt. eigenvalues --    5.61364   5.76704   5.90398   6.02258   6.20688
 Alpha virt. eigenvalues --    6.42549  24.70258  25.00595  25.01435  25.14285
 Alpha virt. eigenvalues --   26.21440  51.50861  51.59361  51.71868
  Beta  occ. eigenvalues --  -20.62253 -20.57652 -20.56805 -11.42500 -11.30416
  Beta  occ. eigenvalues --  -11.28098 -11.24658 -11.23166  -1.49080  -1.38726
  Beta  occ. eigenvalues --   -1.22513  -1.07619  -1.04667  -0.93266  -0.84420
  Beta  occ. eigenvalues --   -0.77316  -0.73314  -0.70330  -0.67142  -0.63868
  Beta  occ. eigenvalues --   -0.61979  -0.58978  -0.55473  -0.54727  -0.51245
  Beta  occ. eigenvalues --   -0.50103  -0.48894  -0.47103  -0.43541  -0.42625
  Beta virt. eigenvalues --    0.03891   0.04666   0.05632   0.05976   0.06955
  Beta virt. eigenvalues --    0.07699   0.08544   0.09103   0.10209   0.12013
  Beta virt. eigenvalues --    0.12747   0.13118   0.13667   0.14500   0.14764
  Beta virt. eigenvalues --    0.16702   0.17230   0.18088   0.18400   0.18633
  Beta virt. eigenvalues --    0.19610   0.19880   0.20356   0.21445   0.22090
  Beta virt. eigenvalues --    0.22765   0.23942   0.25239   0.27727   0.27978
  Beta virt. eigenvalues --    0.29133   0.29720   0.30458   0.31623   0.33608
  Beta virt. eigenvalues --    0.33681   0.34503   0.35776   0.36783   0.37104
  Beta virt. eigenvalues --    0.38537   0.39159   0.40709   0.40836   0.41911
  Beta virt. eigenvalues --    0.42320   0.45064   0.45560   0.47164   0.48288
  Beta virt. eigenvalues --    0.48719   0.51011   0.53797   0.57181   0.60011
  Beta virt. eigenvalues --    0.61901   0.62985   0.63857   0.69558   0.69968
  Beta virt. eigenvalues --    0.71629   0.77103   0.78159   0.78554   0.80449
  Beta virt. eigenvalues --    0.82671   0.83840   0.84530   0.86218   0.87269
  Beta virt. eigenvalues --    0.88635   0.89813   0.90677   0.92289   0.93993
  Beta virt. eigenvalues --    0.96969   1.03004   1.05444   1.09581   1.13126
  Beta virt. eigenvalues --    1.19127   1.21520   1.25638   1.26464   1.27502
  Beta virt. eigenvalues --    1.30539   1.33746   1.35201   1.36826   1.39374
  Beta virt. eigenvalues --    1.39963   1.41515   1.43501   1.46628   1.52104
  Beta virt. eigenvalues --    1.54014   1.55104   1.57708   1.58193   1.61422
  Beta virt. eigenvalues --    1.64571   1.65485   1.69790   1.72235   1.73852
  Beta virt. eigenvalues --    1.75627   1.79943   1.81309   1.82557   1.84373
  Beta virt. eigenvalues --    1.87584   1.90625   1.92430   1.93257   1.96044
  Beta virt. eigenvalues --    1.98289   2.03990   2.07242   2.09483   2.10725
  Beta virt. eigenvalues --    2.11347   2.20227   2.22175   2.25560   2.30230
  Beta virt. eigenvalues --    2.31074   2.38089   2.39367   2.41199   2.48860
  Beta virt. eigenvalues --    2.59932   2.63344   2.69720   2.74685   2.81957
  Beta virt. eigenvalues --    2.83493   2.84496   2.88401   2.91641   2.92486
  Beta virt. eigenvalues --    2.93792   2.95786   2.98080   3.02193   3.04019
  Beta virt. eigenvalues --    3.06034   3.09792   3.13729   3.21004   3.22762
  Beta virt. eigenvalues --    3.24726   3.26605   3.29303   3.31563   3.33364
  Beta virt. eigenvalues --    3.35889   3.42890   3.46306   3.47378   3.50437
  Beta virt. eigenvalues --    3.54422   3.59044   3.60836   3.65114   3.69037
  Beta virt. eigenvalues --    3.74930   3.78150   3.89413   4.01341   4.09710
  Beta virt. eigenvalues --    4.20762   4.22018   4.27176   4.27988   4.41254
  Beta virt. eigenvalues --    4.53521   4.54597   4.66828   5.51315   5.57834
  Beta virt. eigenvalues --    5.62212   5.67116   5.77120   5.90456   6.04808
  Beta virt. eigenvalues --    6.20812   6.42643  24.70449  25.00419  25.01404
  Beta virt. eigenvalues --   25.14283  26.21449  51.53147  51.59392  51.72062
          Condensed to atoms (all electrons):
               1          2          3          4          5          6
     1  O    8.057474   0.294146   0.153481  -0.015425  -0.164626  -0.081499
     2  H    0.294146   0.426204   0.006794   0.000827  -0.020881   0.016763
     3  C    0.153481   0.006794  26.332096   0.659280  -9.863809  -9.532476
     4  H   -0.015425   0.000827   0.659280   0.407335  -0.257650   0.009844
     5  C   -0.164626  -0.020881  -9.863809  -0.257650  17.362592  -3.354274
     6  C   -0.081499   0.016763  -9.532476   0.009844  -3.354274  19.792211
     7  O   -0.000054   0.006252   0.430940  -0.000891   0.328839  -0.397626
     8  O   -0.002786  -0.000315   0.241500   0.000045  -0.230869  -0.223028
     9  C   -0.000309   0.000373   0.053987   0.001217  -0.312616   0.102421
    10  C   -0.000699  -0.000488   0.066999   0.000703  -0.076766  -0.112698
    11  H    0.000024  -0.000010   0.004257   0.000039   0.014443  -0.012652
    12  H   -0.000119  -0.000106  -0.016900  -0.000090  -0.051146   0.042721
    13  H   -0.000045  -0.000042   0.005714   0.000013   0.009730  -0.022495
    14  H    0.000024   0.000029  -0.015511  -0.000077  -0.004551   0.024400
    15  H    0.000063  -0.000137   0.002847  -0.000015  -0.026723   0.009344
               7          8          9         10         11         12
     1  O   -0.000054  -0.002786  -0.000309  -0.000699   0.000024  -0.000119
     2  H    0.006252  -0.000315   0.000373  -0.000488  -0.000010  -0.000106
     3  C    0.430940   0.241500   0.053987   0.066999   0.004257  -0.016900
     4  H   -0.000891   0.000045   0.001217   0.000703   0.000039  -0.000090
     5  C    0.328839  -0.230869  -0.312616  -0.076766   0.014443  -0.051146
     6  C   -0.397626  -0.223028   0.102421  -0.112698  -0.012652   0.042721
     7  O    8.146389  -0.111880   0.008891  -0.051131   0.001599  -0.026543
     8  O   -0.111880   8.338599   0.208347  -0.076884  -0.081148  -0.013107
     9  C    0.008891   0.208347   5.326080  -0.013007   0.433374   0.451362
    10  C   -0.051131  -0.076884  -0.013007   5.464738  -0.042632  -0.036411
    11  H    0.001599  -0.081148   0.433374  -0.042632   0.542095  -0.033587
    12  H   -0.026543  -0.013107   0.451362  -0.036411  -0.033587   0.508775
    13  H   -0.000128   0.017160  -0.043193   0.404883   0.001914  -0.004257
    14  H    0.002217  -0.009090  -0.025253   0.412997  -0.005855  -0.000614
    15  H   -0.002708  -0.011385  -0.035275   0.416812   0.006294  -0.001732
              13         14         15
     1  O   -0.000045   0.000024   0.000063
     2  H   -0.000042   0.000029  -0.000137
     3  C    0.005714  -0.015511   0.002847
     4  H    0.000013  -0.000077  -0.000015
     5  C    0.009730  -0.004551  -0.026723
     6  C   -0.022495   0.024400   0.009344
     7  O   -0.000128   0.002217  -0.002708
     8  O    0.017160  -0.009090  -0.011385
     9  C   -0.043193  -0.025253  -0.035275
    10  C    0.404883   0.412997   0.416812
    11  H    0.001914  -0.005855   0.006294
    12  H   -0.004257  -0.000614  -0.001732
    13  H    0.558987  -0.031589  -0.032900
    14  H   -0.031589   0.553296  -0.046455
    15  H   -0.032900  -0.046455   0.549656
          Atomic-Atomic Spin Densities.
               1          2          3          4          5          6
     1  O    0.979466   0.004778   0.152095   0.005729  -0.134102  -0.057023
     2  H    0.004778  -0.038864  -0.024977  -0.000833   0.011497   0.014949
     3  C    0.152095  -0.024977  -0.117912   0.064438  -0.184765  -0.569392
     4  H    0.005729  -0.000833   0.064438   0.049491  -0.047103  -0.012941
     5  C   -0.134102   0.011497  -0.184765  -0.047103   0.965826   0.196730
     6  C   -0.057023   0.014949  -0.569392  -0.012941   0.196730   0.271521
     7  O    0.003320  -0.000603   0.026638  -0.000019  -0.012142  -0.050185
     8  O   -0.000298  -0.000129   0.014437   0.000132  -0.063186   0.070388
     9  C    0.000405  -0.000502   0.033259   0.000269  -0.017306  -0.028001
    10  C    0.000404  -0.000149   0.015621   0.000087   0.002688  -0.009803
    11  H   -0.000002   0.000002   0.001008   0.000006  -0.000995  -0.000374
    12  H   -0.000147   0.000085  -0.006639  -0.000046  -0.003607   0.009913
    13  H    0.000018  -0.000025   0.002251   0.000014   0.000671  -0.003098
    14  H   -0.000039   0.000029  -0.003656  -0.000026  -0.001041   0.004558
    15  H   -0.000012  -0.000004  -0.000542  -0.000004  -0.000658   0.000141
               7          8          9         10         11         12
     1  O    0.003320  -0.000298   0.000405   0.000404  -0.000002  -0.000147
     2  H   -0.000603  -0.000129  -0.000502  -0.000149   0.000002   0.000085
     3  C    0.026638   0.014437   0.033259   0.015621   0.001008  -0.006639
     4  H   -0.000019   0.000132   0.000269   0.000087   0.000006  -0.000046
     5  C   -0.012142  -0.063186  -0.017306   0.002688  -0.000995  -0.003607
     6  C   -0.050185   0.070388  -0.028001  -0.009803  -0.000374   0.009913
     7  O    0.102126  -0.000297  -0.004240   0.001858  -0.000218  -0.000043
     8  O   -0.000297  -0.020238   0.006264  -0.004964   0.000101  -0.000697
     9  C   -0.004240   0.006264   0.004460   0.000754   0.000602   0.001789
    10  C    0.001858  -0.004964   0.000754  -0.001604  -0.000850  -0.001070
    11  H   -0.000218   0.000101   0.000602  -0.000850   0.000509   0.000324
    12  H   -0.000043  -0.000697   0.001789  -0.001070   0.000324   0.000009
    13  H   -0.000008   0.000060   0.000447  -0.000354  -0.000078  -0.000053
    14  H    0.000043  -0.000014   0.000135  -0.000440   0.000059   0.000086
    15  H   -0.000193   0.000526   0.000209   0.000030   0.000152   0.000110
              13         14         15
     1  O    0.000018  -0.000039  -0.000012
     2  H   -0.000025   0.000029  -0.000004
     3  C    0.002251  -0.003656  -0.000542
     4  H    0.000014  -0.000026  -0.000004
     5  C    0.000671  -0.001041  -0.000658
     6  C   -0.003098   0.004558   0.000141
     7  O   -0.000008   0.000043  -0.000193
     8  O    0.000060  -0.000014   0.000526
     9  C    0.000447   0.000135   0.000209
    10  C   -0.000354  -0.000440   0.000030
    11  H   -0.000078   0.000059   0.000152
    12  H   -0.000053   0.000086   0.000110
    13  H    0.000353  -0.000130   0.000095
    14  H   -0.000130   0.000348  -0.000010
    15  H    0.000095  -0.000010   0.000175
 Mulliken charges and spin densities:
               1          2
     1  O   -0.239650   0.954593
     2  H    0.270590  -0.034746
     3  C   -2.529199  -0.598138
     4  H    0.194846   0.059193
     5  C    2.648307   0.712505
     6  C   -0.260954  -0.162617
     7  O   -0.334166   0.066037
     8  O   -0.045159   0.002084
     9  C   -0.156398  -0.001455
    10  C   -0.356416   0.002207
    11  H    0.171846   0.000246
    12  H    0.181755   0.000013
    13  H    0.136249   0.000164
    14  H    0.146033  -0.000100
    15  H    0.172316   0.000013
 Sum of Mulliken charges =  -0.00000   1.00000
 Mulliken charges and spin densities with hydrogens summed into heavy atoms:
               1          2
     1  O    0.030940   0.919847
     3  C   -2.334353  -0.538945
     5  C    2.648307   0.712505
     6  C   -0.260954  -0.162617
     7  O   -0.334166   0.066037
     8  O   -0.045159   0.002084
     9  C    0.197203  -0.001195
    10  C    0.098182   0.002284
 Electronic spatial extent (au):  <R**2>=           1322.5828
 Charge=             -0.0000 electrons
 Dipole moment (field-independent basis, Debye):
    X=             -2.2341    Y=             -1.0000    Z=              0.0674  Tot=              2.4486
 Quadrupole moment (field-independent basis, Debye-Ang):
   XX=            -42.5282   YY=            -48.9024   ZZ=            -47.7243
   XY=             -3.5206   XZ=              1.3093   YZ=             -0.0712
 Traceless Quadrupole moment (field-independent basis, Debye-Ang):
   XX=              3.8568   YY=             -2.5175   ZZ=             -1.3394
   XY=             -3.5206   XZ=              1.3093   YZ=             -0.0712
 Octapole moment (field-independent basis, Debye-Ang**2):
  XXX=            -28.7195  YYY=              8.7680  ZZZ=             -3.7984  XYY=             12.2825
  XXY=            -15.4239  XXZ=             -1.1725  XZZ=             -3.3583  YZZ=              1.5368
  YYZ=              1.0321  XYZ=             -4.2189
 Hexadecapole moment (field-independent basis, Debye-Ang**3):
 XXXX=          -1356.4762 YYYY=           -230.3228 ZZZZ=           -113.1730 XXXY=            -56.8803
 XXXZ=             23.9627 YYYX=             23.4701 YYYZ=             -0.2966 ZZZX=              2.6962
 ZZZY=             -1.7029 XXYY=           -223.6201 XXZZ=           -252.0130 YYZZ=            -58.2195
 XXYZ=            -13.7214 YYXZ=              3.5059 ZZXY=              4.9341
 N-N= 3.485673831214D+02 E-N=-1.680035944333D+03  KE= 4.177403261716D+02
 1\1\GINC-AJ\SP\UCCSD(T)-FC\6-311++G(d,p)\C5H7O3(2)\AAYUSH\24-Aug-2025\
 0\\# ccsd(t)/6-311++g(d,p) sp\\Title Card Required\\0,2\O,0,3.296587,0
 .846332,0.115899\H,0,2.517628,1.396322,-0.07984\C,0,2.304402,-1.051285
 ,0.292589\H,0,3.256926,-1.485188,0.490943\C,0,1.159743,-0.733613,0.087
 418\C,0,-0.08337,-0.035803,-0.193251\O,0,-0.111806,1.151482,-0.390367\
 O,0,-1.131816,-0.848215,-0.207755\C,0,-2.413187,-0.233017,-0.464883\C,
 0,-2.95889,0.427908,0.785165\H,0,-3.040288,-1.060285,-0.791475\H,0,-2.
 29803,0.482237,-1.279905\H,0,-3.958724,0.817212,0.584153\H,0,-3.026919
 ,-0.294926,1.599389\H,0,-2.322569,1.257836,1.092756\\Version=ES64L-G16
 RevA.03\State=2-A\HF=-417.9892317\MP2=-419.2452876\MP3=-419.2741594\MP
 4D=-419.3045376\MP4DQ=-419.2797004\PUHF=-418.0029384\PMP2-0=-419.25718
 92\PMP3-0=-419.2829005\MP4SDQ=-419.299731\CCSD=-419.3030282\CCSD(T)=-4
 19.3560694\S2=0.914586\S2-1=0.868547\S2A=0.767296\RMSD=3.423e-09\PG=C0
 1 [X(C5H7O3)]\\@


 AN OPTIMIST IS A GUY
 THAT HAS NEVER HAD
 MUCH EXPERIENCE
   (CERTAIN MAXIMS OF ARCHY  -- DON MARQUIS)
 Job cpu time:       0 days 16 hours 46 minutes  3.8 seconds.
 Elapsed time:       0 days  0 hours 42 minutes 12.2 seconds.
 File lengths (MBytes):  RWF=  44733 Int=      0 D2E=      0 Chk=      7 Scr=      1
 Normal termination of Gaussian 16 at Sun Aug 24 22:14:40 2025.
