 Entering Gaussian System, Link 0=g16
 Initial command:
 /opt/g16/l1.exe "/home/aayush/scratches/g16/Gau-43494.inp" -scrdir="/home/aayush/scratches/g16/"
 Entering Link 1 = /opt/g16/l1.exe PID=     43497.
  
 Copyright (c) 1988,1990,1992,1993,1995,1998,2003,2009,2016,
            Gaussian, Inc.  All Rights Reserved.
  
 This is part of the Gaussian(R) 16 program.  It is based on
 the Gaussian(R) 09 system (copyright 2009, Gaussian, Inc.),
 the Gaussian(R) 03 system (copyright 2003, Gaussian, Inc.),
 the Gaussian(R) 98 system (copyright 1998, Gaussian, Inc.),
 the Gaussian(R) 94 system (copyright 1995, Gaussian, Inc.),
 the Gaussian 92(TM) system (copyright 1992, Gaussian, Inc.),
 the Gaussian 90(TM) system (copyright 1990, Gaussian, Inc.),
 the Gaussian 88(TM) system (copyright 1988, Gaussian, Inc.),
 the Gaussian 86(TM) system (copyright 1986, Carnegie Mellon
 University), and the Gaussian 82(TM) system (copyright 1983,
 Carnegie Mellon University). Gaussian is a federally registered
 trademark of Gaussian, Inc.
  
 This software contains proprietary and confidential information,
 including trade secrets, belonging to Gaussian, Inc.
  
 This software is provided under written license and may be
 used, copied, transmitted, or stored only in accord with that
 written license.
  
 The following legend is applicable only to US Government
 contracts under FAR:
  
                    RESTRICTED RIGHTS LEGEND
  
 Use, reproduction and disclosure by the US Government is
 subject to restrictions as set forth in subparagraphs (a)
 and (c) of the Commercial Computer Software - Restricted
 Rights clause in FAR 52.227-19.
  
 Gaussian, Inc.
 340 Quinnipiac St., Bldg. 40, Wallingford CT 06492
  
  
 ---------------------------------------------------------------
 Warning -- This program may not be used in any manner that
 competes with the business of Gaussian, Inc. or will provide
 assistance to any competitor of Gaussian, Inc.  The licensee
 of this program is prohibited from giving any competitor of
 Gaussian, Inc. access to this program.  By using this program,
 the user acknowledges that Gaussian, Inc. is engaged in the
 business of creating and licensing software in the field of
 computational chemistry and represents and warrants to the
 licensee that it is not a competitor of Gaussian, Inc. and that
 it will not use this program in any manner prohibited above.
 ---------------------------------------------------------------
  

 Cite this work as:
 Gaussian 16, Revision A.03,
 M. J. Frisch, G. W. Trucks, H. B. Schlegel, G. E. Scuseria, 
 M. A. Robb, J. R. Cheeseman, G. Scalmani, V. Barone, 
 G. A. Petersson, H. Nakatsuji, X. Li, M. Caricato, A. V. Marenich, 
 J. Bloino, B. G. Janesko, R. Gomperts, B. Mennucci, H. P. Hratchian, 
 J. V. Ortiz, A. F. Izmaylov, J. L. Sonnenberg, D. Williams-Young, 
 F. Ding, F. Lipparini, F. Egidi, J. Goings, B. Peng, A. Petrone, 
 T. Henderson, D. Ranasinghe, V. G. Zakrzewski, J. Gao, N. Rega, 
 G. Zheng, W. Liang, M. Hada, M. Ehara, K. Toyota, R. Fukuda, 
 J. Hasegawa, M. Ishida, T. Nakajima, Y. Honda, O. Kitao, H. Nakai, 
 T. Vreven, K. Throssell, J. A. Montgomery, Jr., J. E. Peralta, 
 F. Ogliaro, M. J. Bearpark, J. J. Heyd, E. N. Brothers, K. N. Kudin, 
 V. N. Staroverov, T. A. Keith, R. Kobayashi, J. Normand, 
 K. Raghavachari, A. P. Rendell, J. C. Burant, S. S. Iyengar, 
 J. Tomasi, M. Cossi, J. M. Millam, M. Klene, C. Adamo, R. Cammi, 
 J. W. Ochterski, R. L. Martin, K. Morokuma, O. Farkas, 
 J. B. Foresman, and D. J. Fox, Gaussian, Inc., Wallingford CT, 2016.
 
 ******************************************
 Gaussian 16:  ES64L-G16RevA.03 25-Dec-2016
                23-Jun-2025 
 ******************************************
 %nprocshared=24
 Will use up to   24 processors via shared memory.
 %mem=12GB
 %chk=ethyl_propiolate_ts1.chk
 --------------------------
 # freq 6-311++g(d,p) m062x
 --------------------------
 1/10=4,30=1,38=1/1,3;
 2/12=2,17=6,18=5,40=1/2;
 3/5=4,6=6,7=1111,11=2,25=1,30=1,71=2,74=-55,140=1/1,2,3;
 4//1;
 5/5=2,38=5,98=1/2;
 8/6=4,10=90,11=11/1;
 11/6=1,8=1,9=11,15=111,16=1/1,2,10;
 10/6=1/2;
 6/7=2,8=2,9=2,10=2,28=1/1;
 7/8=1,10=1,25=1/1,2,3,16;
 1/10=4,30=1/3;
 99//99;
 -------------------
 Title Card Required
 -------------------
 Symbolic Z-matrix:
 Charge =  0 Multiplicity = 2
 O                     3.28792   0.69368   0.1076 
 H                     2.5677    1.3072   -0.10013 
 C                     2.49835  -0.77636   0.2629 
 H                     3.25669  -1.50908   0.49541 
 C                     1.22555  -0.76785   0.08938 
 C                    -0.00656  -0.04711  -0.20527 
 O                    -0.04263   1.13728  -0.42049 
 O                    -1.05449  -0.86498  -0.20766 
 C                    -2.33937  -0.26144  -0.47344 
 C                    -2.88816   0.41528   0.76674 
 H                    -2.96218  -1.09694  -0.78723 
 H                    -2.2289    0.44201  -1.29942 
 H                    -3.89027   0.79596   0.56056 
 H                    -2.95181  -0.2955    1.59189 
 H                    -2.25639   1.25337   1.06142 
 

 GradGradGradGradGradGradGradGradGradGradGradGradGradGradGradGradGradGrad
 Berny optimization.
 Initialization pass.
 Trust Radius=3.00D-01 FncErr=1.00D-07 GrdErr=1.00D-07 EigMax=2.50D+02 EigMin=1.00D-04
 Number of steps in this run=      2 maximum allowed number of steps=      2.
 GradGradGradGradGradGradGradGradGradGradGradGradGradGradGradGradGradGrad

                          Input orientation:                          
 ---------------------------------------------------------------------
 Center     Atomic      Atomic             Coordinates (Angstroms)
 Number     Number       Type             X           Y           Z
 ---------------------------------------------------------------------
      1          8           0        3.287920    0.693681    0.107604
      2          1           0        2.567702    1.307200   -0.100133
      3          6           0        2.498350   -0.776358    0.262899
      4          1           0        3.256690   -1.509083    0.495405
      5          6           0        1.225549   -0.767849    0.089378
      6          6           0       -0.006562   -0.047110   -0.205267
      7          8           0       -0.042632    1.137280   -0.420488
      8          8           0       -1.054495   -0.864983   -0.207662
      9          6           0       -2.339373   -0.261437   -0.473438
     10          6           0       -2.888163    0.415283    0.766743
     11          1           0       -2.962177   -1.096937   -0.787233
     12          1           0       -2.228903    0.442009   -1.299415
     13          1           0       -3.890268    0.795964    0.560556
     14          1           0       -2.951810   -0.295500    1.591887
     15          1           0       -2.256390    1.253365    1.061416
 ---------------------------------------------------------------------
                    Distance matrix (angstroms):
                    1          2          3          4          5
     1  O    0.000000
     2  H    0.968646   0.000000
     3  C    1.675873   2.116085   0.000000
     4  H    2.236858   2.959868   1.079826   0.000000
     5  C    2.527801   2.478531   1.284603   2.199959   0.000000
     6  C    3.391205   2.910678   2.650578   3.643778   1.457525
     7  O    3.401211   2.635402   3.253555   4.327542   2.344731
     8  O    4.624434   4.224956   3.584967   4.415369   2.301362
     9  C    5.737272   5.165207   4.920457   5.814740   3.644432
    10  C    6.217393   5.595842   5.539710   6.444845   4.333734
    11  H    6.562832   6.068900   5.569821   6.363123   4.291130
    12  H    5.698980   5.019388   5.125638   6.092608   3.914810
    13  H    7.193192   6.511778   6.585988   7.509760   5.370205
    14  H    6.489669   5.991376   5.630424   6.420322   4.464412
    15  H    5.653528   4.962253   5.231153   6.192377   4.141746
                    6          7          8          9         10
     6  C    0.000000
     7  O    1.204326   0.000000
     8  O    1.329318   2.253490   0.000000
     9  C    2.357935   2.689653   1.444235   0.000000
    10  C    3.076075   3.166677   2.439443   1.515642   0.000000
    11  H    3.190060   3.694587   2.007226   1.088307   2.169592
    12  H    2.524915   2.456765   2.068668   1.090540   2.168951
    13  H    4.047275   3.985379   3.374983   2.143016   1.091625
    14  H    3.459183   3.816520   2.676283   2.154485   1.090929
    15  H    2.890925   2.666503   2.746363   2.158075   1.090115
                   11         12         13         14         15
    11  H    0.000000
    12  H    1.779993   0.000000
    13  H    2.502191   2.518910   0.000000
    14  H    2.510502   3.070202   1.770774   0.000000
    15  H    3.072386   2.496513   1.769077   1.778761   0.000000
 Stoichiometry    C5H7O3(2)
 Framework group  C1[X(C5H7O3)]
 Deg. of freedom    39
 Full point group                 C1      NOp   1
 Largest Abelian subgroup         C1      NOp   1
 Largest concise Abelian subgroup C1      NOp   1
                         Standard orientation:                         
 ---------------------------------------------------------------------
 Center     Atomic      Atomic             Coordinates (Angstroms)
 Number     Number       Type             X           Y           Z
 ---------------------------------------------------------------------
      1          8           0        3.287920    0.693681    0.107604
      2          1           0        2.567702    1.307200   -0.100133
      3          6           0        2.498350   -0.776358    0.262899
      4          1           0        3.256690   -1.509083    0.495405
      5          6           0        1.225549   -0.767849    0.089378
      6          6           0       -0.006562   -0.047110   -0.205267
      7          8           0       -0.042632    1.137280   -0.420488
      8          8           0       -1.054495   -0.864983   -0.207662
      9          6           0       -2.339373   -0.261437   -0.473438
     10          6           0       -2.888163    0.415283    0.766743
     11          1           0       -2.962177   -1.096937   -0.787233
     12          1           0       -2.228903    0.442009   -1.299415
     13          1           0       -3.890268    0.795964    0.560556
     14          1           0       -2.951810   -0.295500    1.591887
     15          1           0       -2.256390    1.253365    1.061416
 ---------------------------------------------------------------------
 Rotational constants (GHZ):           5.8293540           0.9524003           0.8796956
 Standard basis: 6-311++G(d,p) (5D, 7F)
 There are   233 symmetry adapted cartesian basis functions of A   symmetry.
 There are   225 symmetry adapted basis functions of A   symmetry.
   225 basis functions,   351 primitive gaussians,   233 cartesian basis functions
    31 alpha electrons       30 beta electrons
       nuclear repulsion energy       352.3697653510 Hartrees.
 NAtoms=   15 NActive=   15 NUniq=   15 SFac= 1.00D+00 NAtFMM=   60 NAOKFM=F Big=F
 Integral buffers will be    131072 words long.
 Raffenetti 2 integral format.
 Two-electron integral symmetry is turned on.
 One-electron integrals computed using PRISM.
 NBasis=   225 RedAO= T EigKep=  7.96D-06  NBF=   225
 NBsUse=   225 1.00D-06 EigRej= -1.00D+00 NBFU=   225
 ExpMin= 3.60D-02 ExpMax= 8.59D+03 ExpMxC= 1.30D+03 IAcc=3 IRadAn=         5 AccDes= 0.00D+00
 Harris functional with IExCor= 1009 and IRadAn=       5 diagonalized for initial guess.
 HarFok:  IExCor= 1009 AccDes= 0.00D+00 IRadAn=         5 IDoV= 1 UseB2=F ITyADJ=14
 ICtDFT=  3500011 ScaDFX=  1.000000  1.000000  1.000000  1.000000
 FoFCou: FMM=F IPFlag=           0 FMFlag=      100000 FMFlg1=           0
         NFxFlg=           0 DoJE=T BraDBF=F KetDBF=T FulRan=T
         wScrn=  0.000000 ICntrl=       500 IOpCl=  0 I1Cent=   200000004 NGrid=           0
         NMat0=    1 NMatS0=      1 NMatT0=    0 NMatD0=    1 NMtDS0=    0 NMtDT0=    0
 Petite list used in FoFCou.
 Initial guess <Sx>= 0.0000 <Sy>= 0.0000 <Sz>= 0.5000 <S**2>= 0.7500 S= 0.5000
 Requested convergence on RMS density matrix=1.00D-08 within 128 cycles.
 Requested convergence on MAX density matrix=1.00D-06.
 Requested convergence on             energy=1.00D-06.
 No special actions if energy rises.
 SCF Done:  E(UM062X) =  -420.235560041     A.U. after   19 cycles
            NFock= 19  Conv=0.38D-08     -V/T= 2.0039
 <Sx>= 0.0000 <Sy>= 0.0000 <Sz>= 0.5000 <S**2>= 0.7738 S= 0.5118
 <L.S>=  0.00000000000    
 Annihilation of the first spin contaminant:
 S**2 before annihilation     0.7738,   after     0.7504
 DoSCS=F DFT=T ScalE2(SS,OS)=  1.000000  1.000000
 Range of M.O.s used for correlation:     1   225
 NBasis=   225 NAE=    31 NBE=    30 NFC=     0 NFV=     0
 NROrb=    225 NOA=    31 NOB=    30 NVA=   194 NVB=   195

 **** Warning!!: The largest alpha MO coefficient is  0.94898299D+02


 **** Warning!!: The largest beta MO coefficient is  0.93624863D+02

 Symmetrizing basis deriv contribution to polar:
 IMax=3 JMax=2 DiffMx= 0.00D+00
 G2DrvN: will do    16 centers at a time, making    1 passes.
 Calling FoFCou, ICntrl=  3107 FMM=F I1Cent=   0 AccDes= 0.00D+00.
 End of G2Drv F.D. properties file   721 does not exist.
 End of G2Drv F.D. properties file   722 does not exist.
 End of G2Drv F.D. properties file   788 does not exist.
          IDoAtm=111111111111111
          Differentiating once with respect to electric field.
                with respect to dipole field.
          Differentiating once with respect to nuclear coordinates.
 Keep R1 and R2 ints in memory in canonical form, NReq=671901991.
          There are    48 degrees of freedom in the 1st order CPHF.  IDoFFX=6 NUNeed=     3.
     45 vectors produced by pass  0 Test12= 2.47D-14 2.08D-09 XBig12= 1.07D+02 4.43D+00.
 AX will form    45 AO Fock derivatives at one time.
     45 vectors produced by pass  1 Test12= 2.47D-14 2.08D-09 XBig12= 1.91D+01 9.52D-01.
     45 vectors produced by pass  2 Test12= 2.47D-14 2.08D-09 XBig12= 9.62D-01 1.77D-01.
     45 vectors produced by pass  3 Test12= 2.47D-14 2.08D-09 XBig12= 1.42D-02 1.71D-02.
     45 vectors produced by pass  4 Test12= 2.47D-14 2.08D-09 XBig12= 2.00D-04 1.65D-03.
     45 vectors produced by pass  5 Test12= 2.47D-14 2.08D-09 XBig12= 2.36D-06 1.33D-04.
     40 vectors produced by pass  6 Test12= 2.47D-14 2.08D-09 XBig12= 1.85D-08 1.09D-05.
     25 vectors produced by pass  7 Test12= 2.47D-14 2.08D-09 XBig12= 1.69D-10 9.68D-07.
      4 vectors produced by pass  8 Test12= 2.47D-14 2.08D-09 XBig12= 1.33D-12 1.20D-07.
      2 vectors produced by pass  9 Test12= 2.47D-14 2.08D-09 XBig12= 1.35D-14 1.47D-08.
 InvSVY:  IOpt=1 It=  1 EMax= 7.11D-15
 Solved reduced A of dimension   341 with    48 vectors.
 Isotropic polarizability for W=    0.000000       73.18 Bohr**3.
 End of Minotr F.D. properties file   721 does not exist.
 End of Minotr F.D. properties file   722 does not exist.
 End of Minotr F.D. properties file   788 does not exist.

 **********************************************************************

            Population analysis using the SCF density.

 **********************************************************************

 Orbital symmetries:
 Alpha Orbitals:
       Occupied  (A) (A) (A) (A) (A) (A) (A) (A) (A) (A) (A) (A)
                 (A) (A) (A) (A) (A) (A) (A) (A) (A) (A) (A) (A)
                 (A) (A) (A) (A) (A) (A) (A)
       Virtual   (A) (A) (A) (A) (A) (A) (A) (A) (A) (A) (A) (A)
                 (A) (A) (A) (A) (A) (A) (A) (A) (A) (A) (A) (A)
                 (A) (A) (A) (A) (A) (A) (A) (A) (A) (A) (A) (A)
                 (A) (A) (A) (A) (A) (A) (A) (A) (A) (A) (A) (A)
                 (A) (A) (A) (A) (A) (A) (A) (A) (A) (A) (A) (A)
                 (A) (A) (A) (A) (A) (A) (A) (A) (A) (A) (A) (A)
                 (A) (A) (A) (A) (A) (A) (A) (A) (A) (A) (A) (A)
                 (A) (A) (A) (A) (A) (A) (A) (A) (A) (A) (A) (A)
                 (A) (A) (A) (A) (A) (A) (A) (A) (A) (A) (A) (A)
                 (A) (A) (A) (A) (A) (A) (A) (A) (A) (A) (A) (A)
                 (A) (A) (A) (A) (A) (A) (A) (A) (A) (A) (A) (A)
                 (A) (A) (A) (A) (A) (A) (A) (A) (A) (A) (A) (A)
                 (A) (A) (A) (A) (A) (A) (A) (A) (A) (A) (A) (A)
                 (A) (A) (A) (A) (A) (A) (A) (A) (A) (A) (A) (A)
                 (A) (A) (A) (A) (A) (A) (A) (A) (A) (A) (A) (A)
                 (A) (A) (A) (A) (A) (A) (A) (A) (A) (A) (A) (A)
                 (A) (A)
 Beta  Orbitals:
       Occupied  (A) (A) (A) (A) (A) (A) (A) (A) (A) (A) (A) (A)
                 (A) (A) (A) (A) (A) (A) (A) (A) (A) (A) (A) (A)
                 (A) (A) (A) (A) (A) (A)
       Virtual   (A) (A) (A) (A) (A) (A) (A) (A) (A) (A) (A) (A)
                 (A) (A) (A) (A) (A) (A) (A) (A) (A) (A) (A) (A)
                 (A) (A) (A) (A) (A) (A) (A) (A) (A) (A) (A) (A)
                 (A) (A) (A) (A) (A) (A) (A) (A) (A) (A) (A) (A)
                 (A) (A) (A) (A) (A) (A) (A) (A) (A) (A) (A) (A)
                 (A) (A) (A) (A) (A) (A) (A) (A) (A) (A) (A) (A)
                 (A) (A) (A) (A) (A) (A) (A) (A) (A) (A) (A) (A)
                 (A) (A) (A) (A) (A) (A) (A) (A) (A) (A) (A) (A)
                 (A) (A) (A) (A) (A) (A) (A) (A) (A) (A) (A) (A)
                 (A) (A) (A) (A) (A) (A) (A) (A) (A) (A) (A) (A)
                 (A) (A) (A) (A) (A) (A) (A) (A) (A) (A) (A) (A)
                 (A) (A) (A) (A) (A) (A) (A) (A) (A) (A) (A) (A)
                 (A) (A) (A) (A) (A) (A) (A) (A) (A) (A) (A) (A)
                 (A) (A) (A) (A) (A) (A) (A) (A) (A) (A) (A) (A)
                 (A) (A) (A) (A) (A) (A) (A) (A) (A) (A) (A) (A)
                 (A) (A) (A) (A) (A) (A) (A) (A) (A) (A) (A) (A)
                 (A) (A) (A)
 The electronic state is 2-A.
 Alpha  occ. eigenvalues --  -19.69316 -19.64618 -19.64428 -10.71497 -10.64207
 Alpha  occ. eigenvalues --  -10.61388 -10.59606 -10.54471  -1.26725  -1.17551
 Alpha  occ. eigenvalues --   -1.11401  -0.92100  -0.88342  -0.79174  -0.72121
 Alpha  occ. eigenvalues --   -0.65733  -0.61977  -0.59721  -0.57635  -0.54472
 Alpha  occ. eigenvalues --   -0.53084  -0.50469  -0.49159  -0.47651  -0.46043
 Alpha  occ. eigenvalues --   -0.43228  -0.42731  -0.40588  -0.39590  -0.35421
 Alpha  occ. eigenvalues --   -0.31673
 Alpha virt. eigenvalues --   -0.03170  -0.00481   0.00790   0.01409   0.01797
 Alpha virt. eigenvalues --    0.02572   0.03832   0.05178   0.05851   0.06544
 Alpha virt. eigenvalues --    0.07022   0.07809   0.08185   0.08886   0.10426
 Alpha virt. eigenvalues --    0.11391   0.11824   0.12301   0.12869   0.12902
 Alpha virt. eigenvalues --    0.13238   0.13794   0.14091   0.14533   0.15578
 Alpha virt. eigenvalues --    0.15854   0.16935   0.17665   0.19007   0.19204
 Alpha virt. eigenvalues --    0.20264   0.21393   0.22958   0.23346   0.24335
 Alpha virt. eigenvalues --    0.25073   0.26439   0.28103   0.29354   0.29682
 Alpha virt. eigenvalues --    0.29980   0.30568   0.32347   0.32745   0.33498
 Alpha virt. eigenvalues --    0.33913   0.34886   0.35999   0.37672   0.38522
 Alpha virt. eigenvalues --    0.40135   0.41407   0.44859   0.46128   0.48131
 Alpha virt. eigenvalues --    0.49841   0.50765   0.52612   0.55709   0.58803
 Alpha virt. eigenvalues --    0.60537   0.60908   0.62686   0.63342   0.64962
 Alpha virt. eigenvalues --    0.66718   0.68015   0.68191   0.70036   0.71708
 Alpha virt. eigenvalues --    0.72273   0.74534   0.75816   0.77762   0.79894
 Alpha virt. eigenvalues --    0.83737   0.87110   0.89006   0.94377   0.96180
 Alpha virt. eigenvalues --    0.98899   1.01712   1.06099   1.07000   1.10114
 Alpha virt. eigenvalues --    1.13829   1.16141   1.17416   1.18467   1.21036
 Alpha virt. eigenvalues --    1.21330   1.23252   1.25171   1.30267   1.31915
 Alpha virt. eigenvalues --    1.34814   1.36808   1.39756   1.40470   1.46302
 Alpha virt. eigenvalues --    1.47278   1.50548   1.52434   1.53446   1.54802
 Alpha virt. eigenvalues --    1.57534   1.59097   1.59470   1.61025   1.62144
 Alpha virt. eigenvalues --    1.66703   1.69166   1.71802   1.72798   1.75079
 Alpha virt. eigenvalues --    1.77917   1.78844   1.83864   1.86757   1.91161
 Alpha virt. eigenvalues --    1.92257   1.94934   1.95583   1.99580   2.05905
 Alpha virt. eigenvalues --    2.12141   2.12568   2.17850   2.20667   2.22799
 Alpha virt. eigenvalues --    2.27342   2.32706   2.35601   2.50528   2.52248
 Alpha virt. eigenvalues --    2.53448   2.56003   2.60492   2.61209   2.61884
 Alpha virt. eigenvalues --    2.64057   2.66619   2.67447   2.68696   2.72464
 Alpha virt. eigenvalues --    2.77597   2.77999   2.79369   2.81026   2.90014
 Alpha virt. eigenvalues --    2.90415   2.93777   2.94833   2.96867   2.99419
 Alpha virt. eigenvalues --    3.01673   3.11345   3.14434   3.19435   3.24388
 Alpha virt. eigenvalues --    3.27326   3.30465   3.31204   3.37504   3.42993
 Alpha virt. eigenvalues --    3.62874   3.63284   3.71304   3.74113   3.84253
 Alpha virt. eigenvalues --    3.85468   3.89915   3.93556   4.02138   4.13964
 Alpha virt. eigenvalues --    4.18514   4.27992   5.09839   5.13080   5.15674
 Alpha virt. eigenvalues --    5.23834   5.31916   5.43996   5.60840   5.73333
 Alpha virt. eigenvalues --    5.93849  23.61466  23.92482  23.92900  24.05145
 Alpha virt. eigenvalues --   24.51057  49.98005  49.99176  50.10582
  Beta  occ. eigenvalues --  -19.69290 -19.64287 -19.64199 -10.71535 -10.64343
  Beta  occ. eigenvalues --  -10.61384 -10.58874 -10.54470  -1.26559  -1.17205
  Beta  occ. eigenvalues --   -1.09857  -0.90530  -0.87285  -0.78951  -0.71550
  Beta  occ. eigenvalues --   -0.65538  -0.61410  -0.59266  -0.57252  -0.54180
  Beta  occ. eigenvalues --   -0.51807  -0.50094  -0.47489  -0.46025  -0.45008
  Beta  occ. eigenvalues --   -0.42868  -0.42426  -0.39608  -0.38821  -0.33903
  Beta virt. eigenvalues --   -0.08247  -0.02910  -0.00527   0.00815   0.01385
  Beta virt. eigenvalues --    0.02026   0.02721   0.04205   0.05229   0.05781
  Beta virt. eigenvalues --    0.06495   0.06994   0.08003   0.08483   0.08877
  Beta virt. eigenvalues --    0.10549   0.11270   0.11766   0.12182   0.12978
  Beta virt. eigenvalues --    0.13197   0.13554   0.14283   0.14439   0.14596
  Beta virt. eigenvalues --    0.15699   0.16207   0.17208   0.17709   0.18757
  Beta virt. eigenvalues --    0.19357   0.20334   0.21573   0.23101   0.23766
  Beta virt. eigenvalues --    0.24477   0.25096   0.26334   0.28122   0.29258
  Beta virt. eigenvalues --    0.29634   0.29953   0.30528   0.32267   0.32701
  Beta virt. eigenvalues --    0.33519   0.33898   0.34849   0.36042   0.37786
  Beta virt. eigenvalues --    0.38708   0.39796   0.41399   0.45228   0.46321
  Beta virt. eigenvalues --    0.48476   0.49940   0.50789   0.52855   0.55756
  Beta virt. eigenvalues --    0.58910   0.60835   0.61589   0.63259   0.63358
  Beta virt. eigenvalues --    0.65204   0.66197   0.68202   0.68213   0.69915
  Beta virt. eigenvalues --    0.71450   0.72286   0.74508   0.75384   0.77680
  Beta virt. eigenvalues --    0.79984   0.83637   0.87089   0.89950   0.94434
  Beta virt. eigenvalues --    0.96221   0.99186   1.01967   1.06202   1.07226
  Beta virt. eigenvalues --    1.11116   1.14253   1.16727   1.17970   1.19213
  Beta virt. eigenvalues --    1.21256   1.22031   1.23283   1.25220   1.29497
  Beta virt. eigenvalues --    1.32202   1.35004   1.37732   1.40392   1.41057
  Beta virt. eigenvalues --    1.47014   1.48245   1.50573   1.52554   1.54061
  Beta virt. eigenvalues --    1.55838   1.57549   1.59137   1.60096   1.61315
  Beta virt. eigenvalues --    1.62204   1.66762   1.69271   1.72137   1.73416
  Beta virt. eigenvalues --    1.75240   1.78186   1.78732   1.83897   1.86852
  Beta virt. eigenvalues --    1.91780   1.93018   1.95697   1.96006   1.99742
  Beta virt. eigenvalues --    2.05980   2.12188   2.12854   2.18040   2.21300
  Beta virt. eigenvalues --    2.22825   2.27921   2.33097   2.35770   2.50544
  Beta virt. eigenvalues --    2.52628   2.53518   2.57173   2.60853   2.61229
  Beta virt. eigenvalues --    2.61915   2.64082   2.66443   2.67314   2.69030
  Beta virt. eigenvalues --    2.72515   2.77878   2.78373   2.79889   2.81018
  Beta virt. eigenvalues --    2.90221   2.90765   2.94168   2.95941   2.98039
  Beta virt. eigenvalues --    3.00504   3.03022   3.11723   3.14638   3.19868
  Beta virt. eigenvalues --    3.24637   3.27821   3.31452   3.31758   3.38244
  Beta virt. eigenvalues --    3.43112   3.62930   3.63491   3.70902   3.74333
  Beta virt. eigenvalues --    3.84262   3.85475   3.89970   3.94392   4.02205
  Beta virt. eigenvalues --    4.14135   4.19254   4.28151   5.10546   5.13162
  Beta virt. eigenvalues --    5.15867   5.25636   5.32580   5.44146   5.61632
  Beta virt. eigenvalues --    5.73592   5.93930  23.61684  23.92518  23.92924
  Beta virt. eigenvalues --   24.05146  24.51672  49.97521  49.99163  50.10466
          Condensed to atoms (all electrons):
               1          2          3          4          5          6
     1  O    8.021526   0.259903   0.100937  -0.048730  -0.066329   0.040610
     2  H    0.259903   0.485749   0.103742   0.012989  -0.018429  -0.112158
     3  C    0.100937   0.103742  10.097887   0.493075  -1.778326  -2.473915
     4  H   -0.048730   0.012989   0.493075   0.450950  -0.077041  -0.043714
     5  C   -0.066329  -0.018429  -1.778326  -0.077041   8.871437  -1.616437
     6  C    0.040610  -0.112158  -2.473915  -0.043714  -1.616437  10.647096
     7  O    0.001176   0.012844   0.198902  -0.000026   0.097845   0.031313
     8  O   -0.005252   0.001164   0.170225   0.002027  -0.298578  -0.112728
     9  C    0.000023  -0.000518   0.023923  -0.000676  -0.094979  -0.012928
    10  C   -0.001674  -0.000008   0.036172   0.000793  -0.038720  -0.123295
    11  H    0.000080   0.000019   0.003349  -0.000089   0.014036  -0.003352
    12  H   -0.000206  -0.000306  -0.013023  -0.000082  -0.033663   0.031128
    13  H   -0.000109   0.000014   0.003671   0.000053   0.013528  -0.019927
    14  H    0.000159  -0.000012  -0.010494  -0.000087  -0.010543   0.031618
    15  H    0.000294  -0.000329  -0.001617  -0.000268  -0.028450   0.011582
               7          8          9         10         11         12
     1  O    0.001176  -0.005252   0.000023  -0.001674   0.000080  -0.000206
     2  H    0.012844   0.001164  -0.000518  -0.000008   0.000019  -0.000306
     3  C    0.198902   0.170225   0.023923   0.036172   0.003349  -0.013023
     4  H   -0.000026   0.002027  -0.000676   0.000793  -0.000089  -0.000082
     5  C    0.097845  -0.298578  -0.094979  -0.038720   0.014036  -0.033663
     6  C    0.031313  -0.112728  -0.012928  -0.123295  -0.003352   0.031128
     7  O    8.087964  -0.145800   0.054609  -0.064394   0.005040  -0.026114
     8  O   -0.145800   8.380722   0.127342  -0.035016  -0.095533  -0.001011
     9  C    0.054609   0.127342   5.380671   0.025750   0.441127   0.404016
    10  C   -0.064394  -0.035016   0.025750   5.491672  -0.053289  -0.024875
    11  H    0.005040  -0.095533   0.441127  -0.053289   0.528197  -0.036994
    12  H   -0.026114  -0.001011   0.404016  -0.024875  -0.036994   0.512356
    13  H   -0.000019   0.017470  -0.050783   0.408024   0.000809  -0.006947
    14  H    0.000247  -0.007572  -0.030057   0.404186  -0.012193   0.006144
    15  H    0.005330  -0.019879   0.002064   0.383482   0.010684  -0.010457
              13         14         15
     1  O   -0.000109   0.000159   0.000294
     2  H    0.000014  -0.000012  -0.000329
     3  C    0.003671  -0.010494  -0.001617
     4  H    0.000053  -0.000087  -0.000268
     5  C    0.013528  -0.010543  -0.028450
     6  C   -0.019927   0.031618   0.011582
     7  O   -0.000019   0.000247   0.005330
     8  O    0.017470  -0.007572  -0.019879
     9  C   -0.050783  -0.030057   0.002064
    10  C    0.408024   0.404186   0.383482
    11  H    0.000809  -0.012193   0.010684
    12  H   -0.006947   0.006144  -0.010457
    13  H    0.537345  -0.036012  -0.031871
    14  H   -0.036012   0.543469  -0.047963
    15  H   -0.031871  -0.047963   0.543510
          Atomic-Atomic Spin Densities.
               1          2          3          4          5          6
     1  O    0.275865   0.005110   0.085541  -0.010126  -0.128018  -0.019378
     2  H    0.005110  -0.009033  -0.012881  -0.000042   0.008185   0.005956
     3  C    0.085541  -0.012881  -0.134973   0.005672  -0.119323   0.042432
     4  H   -0.010126  -0.000042   0.005672   0.027090   0.003035   0.007549
     5  C   -0.128018   0.008185  -0.119323   0.003035   1.142255   0.020559
     6  C   -0.019378   0.005956   0.042432   0.007549   0.020559  -0.113947
     7  O    0.009106  -0.002044   0.028016  -0.000880  -0.057578  -0.032601
     8  O   -0.001187   0.000187  -0.024970  -0.000559  -0.001012   0.069364
     9  C   -0.000316   0.000091  -0.004174  -0.000014  -0.003377  -0.006768
    10  C    0.000735  -0.000188   0.001545  -0.000309  -0.003231   0.013688
    11  H   -0.000013   0.000005  -0.000277   0.000026  -0.001195   0.000070
    12  H   -0.000091   0.000035   0.000016   0.000011   0.002094   0.000263
    13  H    0.000008  -0.000004  -0.000495  -0.000016  -0.000370   0.000785
    14  H   -0.000030   0.000007   0.000015   0.000022   0.000610  -0.000453
    15  H    0.000011  -0.000003   0.000443   0.000011  -0.000286  -0.001024
               7          8          9         10         11         12
     1  O    0.009106  -0.001187  -0.000316   0.000735  -0.000013  -0.000091
     2  H   -0.002044   0.000187   0.000091  -0.000188   0.000005   0.000035
     3  C    0.028016  -0.024970  -0.004174   0.001545  -0.000277   0.000016
     4  H   -0.000880  -0.000559  -0.000014  -0.000309   0.000026   0.000011
     5  C   -0.057578  -0.001012  -0.003377  -0.003231  -0.001195   0.002094
     6  C   -0.032601   0.069364  -0.006768   0.013688   0.000070   0.000263
     7  O    0.101127  -0.003870  -0.004270   0.002774  -0.000203   0.000480
     8  O   -0.003870  -0.030057   0.007991  -0.013051  -0.000136   0.000256
     9  C   -0.004270   0.007991   0.003265   0.000911   0.001129  -0.000721
    10  C    0.002774  -0.013051   0.000911   0.001902  -0.000230  -0.001844
    11  H   -0.000203  -0.000136   0.001129  -0.000230   0.000627   0.000093
    12  H    0.000480   0.000256  -0.000721  -0.001844   0.000093   0.000206
    13  H   -0.000105  -0.000647  -0.000015   0.000182   0.000118  -0.000081
    14  H    0.000015   0.000477   0.000220  -0.000707  -0.000022   0.000052
    15  H    0.000045   0.000464   0.000019   0.000173   0.000020  -0.000009
              13         14         15
     1  O    0.000008  -0.000030   0.000011
     2  H   -0.000004   0.000007  -0.000003
     3  C   -0.000495   0.000015   0.000443
     4  H   -0.000016   0.000022   0.000011
     5  C   -0.000370   0.000610  -0.000286
     6  C    0.000785  -0.000453  -0.001024
     7  O   -0.000105   0.000015   0.000045
     8  O   -0.000647   0.000477   0.000464
     9  C   -0.000015   0.000220   0.000019
    10  C    0.000182  -0.000707   0.000173
    11  H    0.000118  -0.000022   0.000020
    12  H   -0.000081   0.000052  -0.000009
    13  H    0.001135  -0.000190  -0.000034
    14  H   -0.000190   0.000214  -0.000113
    15  H   -0.000034  -0.000113   0.000040
 Mulliken charges and spin densities:
               1          2
     1  O   -0.302407   0.217216
     2  H    0.255337  -0.004619
     3  C   -0.954510  -0.133413
     4  H    0.210824   0.031470
     5  C    1.064651   0.862349
     6  C   -0.274893  -0.013501
     7  O   -0.258917   0.040011
     8  O    0.022419   0.003250
     9  C   -0.269586  -0.006028
    10  C   -0.408811   0.002349
    11  H    0.198109   0.000012
    12  H    0.200034   0.000759
    13  H    0.164753   0.000271
    14  H    0.169109   0.000117
    15  H    0.183888  -0.000244
 Sum of Mulliken charges =  -0.00000   1.00000
 Mulliken charges and spin densities with hydrogens summed into heavy atoms:
               1          2
     1  O   -0.047070   0.212597
     3  C   -0.743686  -0.101943
     5  C    1.064651   0.862349
     6  C   -0.274893  -0.013501
     7  O   -0.258917   0.040011
     8  O    0.022419   0.003250
     9  C    0.128558  -0.005256
    10  C    0.108939   0.002493
 APT charges:
               1
     1  O   -0.565629
     2  H    0.245668
     3  C    0.394932
     4  H    0.130769
     5  C   -0.472621
     6  C    1.496991
     7  O   -0.785949
     8  O   -0.977092
     9  C    0.546485
    10  C   -0.042094
    11  H   -0.012075
    12  H   -0.011360
    13  H    0.011177
    14  H    0.010975
    15  H    0.029822
 Sum of APT charges =   0.00000
 APT charges with hydrogens summed into heavy atoms:
               1
     1  O   -0.319961
     3  C    0.525700
     5  C   -0.472621
     6  C    1.496991
     7  O   -0.785949
     8  O   -0.977092
     9  C    0.523050
    10  C    0.009882
 Electronic spatial extent (au):  <R**2>=           1303.0843
 Charge=              0.0000 electrons
 Dipole moment (field-independent basis, Debye):
    X=             -3.0327    Y=             -1.6664    Z=              0.1307  Tot=              3.4628
 Quadrupole moment (field-independent basis, Debye-Ang):
   XX=            -46.9185   YY=            -48.5931   ZZ=            -47.7681
   XY=             -5.4135   XZ=              1.1383   YZ=             -0.1881
 Traceless Quadrupole moment (field-independent basis, Debye-Ang):
   XX=              0.8414   YY=             -0.8332   ZZ=             -0.0082
   XY=             -5.4135   XZ=              1.1383   YZ=             -0.1881
 Octapole moment (field-independent basis, Debye-Ang**2):
  XXX=            -51.7080  YYY=              4.5903  ZZZ=             -3.5806  XYY=              9.4774
  XXY=            -20.9591  XXZ=             -1.2933  XZZ=             -3.6007  YZZ=              1.0097
  YYZ=              1.1354  XYZ=             -4.5509
 Hexadecapole moment (field-independent basis, Debye-Ang**3):
 XXXX=          -1449.3306 YYYY=           -207.0845 ZZZZ=           -113.7974 XXXY=            -75.9467
 XXXZ=             17.9794 YYYX=             12.6221 YYYZ=             -1.0702 ZZZX=              2.1223
 ZZZY=             -2.3087 XXYY=           -232.8464 XXZZ=           -252.5453 YYZZ=            -54.4611
 XXYZ=            -13.1827 YYXZ=              3.4188 ZZXY=              3.7598
 N-N= 3.523697653510D+02 E-N=-1.688783012981D+03  KE= 4.185828769958D+02
  Exact polarizability: 101.966   2.403  66.840   3.103  -2.176  50.731
 Approx polarizability: 104.606   5.396  87.163   5.022  -4.635  59.235
                          Isotropic Fermi Contact Couplings
        Atom                 a.u.       MegaHertz       Gauss      10(-4) cm-1
     1  O(17)              0.03504     -21.23858      -7.57845      -7.08443
     2  H(1)              -0.00351     -15.68665      -5.59739      -5.23250
     3  C(13)             -0.00682      -7.66623      -2.73550      -2.55718
     4  H(1)               0.01265      56.53498      20.17309      18.85804
     5  C(13)              0.23655     265.92558      94.88886      88.70323
     6  C(13)             -0.02186     -24.57602      -8.76934      -8.19768
     7  O(17)              0.02690     -16.30829      -5.81921      -5.43986
     8  O(17)              0.02171     -13.15971      -4.69571      -4.38961
     9  C(13)              0.00310       3.48879       1.24489       1.16374
    10  C(13)              0.00011       0.12343       0.04404       0.04117
    11  H(1)               0.00000       0.00304       0.00109       0.00102
    12  H(1)               0.00003       0.12855       0.04587       0.04288
    13  H(1)               0.00003       0.11810       0.04214       0.03939
    14  H(1)               0.00002       0.09206       0.03285       0.03071
    15  H(1)              -0.00003      -0.12610      -0.04500      -0.04206
 --------------------------------------------------------
       Center         ----  Spin Dipole Couplings  ----
                      3XX-RR        3YY-RR        3ZZ-RR
 --------------------------------------------------------
     1   Atom        0.203286      0.326827     -0.530113
     2   Atom        0.015507      0.018656     -0.034163
     3   Atom        0.120424     -0.014621     -0.105803
     4   Atom        0.008864     -0.003093     -0.005772
     5   Atom       -0.441096      0.800051     -0.358955
     6   Atom        0.027285      0.001491     -0.028777
     7   Atom        0.126452     -0.072292     -0.054160
     8   Atom        0.016442     -0.006175     -0.010266
     9   Atom        0.008158     -0.003767     -0.004390
    10   Atom        0.002616     -0.001001     -0.001615
    11   Atom        0.003329     -0.001609     -0.001720
    12   Atom        0.002797     -0.001278     -0.001520
    13   Atom        0.001616     -0.000689     -0.000927
    14   Atom        0.002326     -0.001389     -0.000937
    15   Atom        0.002147     -0.000698     -0.001448
 --------------------------------------------------------
                        XY            XZ            YZ
 --------------------------------------------------------
     1   Atom        0.743619     -0.034573     -0.055280
     2   Atom       -0.018130      0.010488     -0.012626
     3   Atom       -0.064671      0.043367     -0.026572
     4   Atom        0.005153      0.001045      0.000243
     5   Atom        0.410370     -0.081842     -0.153110
     6   Atom       -0.016663      0.010544     -0.008000
     7   Atom       -0.124075      0.046879     -0.014721
     8   Atom       -0.027095      0.008079     -0.004909
     9   Atom       -0.001847      0.000969     -0.000108
    10   Atom       -0.001321     -0.001093      0.000332
    11   Atom        0.000458      0.001158      0.000129
    12   Atom       -0.001387      0.002365     -0.000870
    13   Atom       -0.000706     -0.000267      0.000071
    14   Atom       -0.000531     -0.001509      0.000147
    15   Atom       -0.002001     -0.001505      0.000605
 --------------------------------------------------------


 ---------------------------------------------------------------------------------
              Anisotropic Spin Dipole Couplings in Principal Axis System
 ---------------------------------------------------------------------------------

       Atom             a.u.   MegaHertz   Gauss  10(-4) cm-1        Axes

              Baa    -0.5354    38.743    13.824    12.923 -0.1312  0.1757  0.9756
     1 O(17)  Bbb    -0.4785    34.622    12.354    11.549  0.7248 -0.6545  0.2154
              Bcc     1.0139   -73.365   -26.178   -24.472  0.6764  0.7354 -0.0415
 
              Baa    -0.0379   -20.198    -7.207    -6.737 -0.1321  0.1756  0.9756
     2 H(1)   Bbb    -0.0011    -0.588    -0.210    -0.196  0.7429  0.6691 -0.0198
              Bcc     0.0390    20.785     7.417     6.933 -0.6562  0.7221 -0.2188
 
              Baa    -0.1163   -15.610    -5.570    -5.207 -0.1321  0.1711  0.9764
     3 C(13)  Bbb    -0.0397    -5.326    -1.900    -1.777  0.3970  0.9117 -0.1060
              Bcc     0.1560    20.936     7.470     6.983  0.9083 -0.3736  0.1884
 
              Baa    -0.0059    -3.127    -1.116    -1.043 -0.1138  0.1253  0.9856
     4 H(1)   Bbb    -0.0050    -2.660    -0.949    -0.887 -0.3340  0.9295 -0.1567
              Bcc     0.0108     5.787     2.065     1.930  0.9357  0.3470  0.0639
 
              Baa    -0.5706   -76.572   -27.323   -25.542  0.9483 -0.2643  0.1755
     5 C(13)  Bbb    -0.3751   -50.329   -17.959   -16.788 -0.1323  0.1734  0.9759
              Bcc     0.9457   126.901    45.281    42.330  0.2884  0.9487 -0.1294
 
              Baa    -0.0316    -4.234    -1.511    -1.412 -0.1261  0.1729  0.9768
     6 C(13)  Bbb    -0.0064    -0.864    -0.308    -0.288  0.4649  0.8802 -0.0958
              Bcc     0.0380     5.098     1.819     1.701  0.8764 -0.4420  0.1914
 
              Baa    -0.1326     9.593     3.423     3.200  0.4443  0.8904 -0.0985
     7 O(17)  Bbb    -0.0629     4.554     1.625     1.519 -0.1288  0.1723  0.9766
              Bcc     0.1955   -14.148    -5.048    -4.719  0.8865 -0.4212  0.1913
 
              Baa    -0.0242     1.754     0.626     0.585  0.5584  0.8290 -0.0316
     8 O(17)  Bbb    -0.0122     0.880     0.314     0.294 -0.1473  0.1365  0.9796
              Bcc     0.0364    -2.634    -0.940    -0.879  0.8164 -0.5424  0.1984
 
              Baa    -0.0045    -0.599    -0.214    -0.200 -0.0878 -0.0791  0.9930
     9 C(13)  Bbb    -0.0040    -0.543    -0.194    -0.181  0.1420  0.9857  0.0911
              Bcc     0.0085     1.142     0.408     0.381  0.9860 -0.1490  0.0753
 
              Baa    -0.0019    -0.252    -0.090    -0.084  0.2299 -0.0222  0.9730
    10 C(13)  Bbb    -0.0014    -0.192    -0.069    -0.064  0.2981  0.9533 -0.0487
              Bcc     0.0033     0.444     0.159     0.148  0.9264 -0.3012 -0.2258
 
              Baa    -0.0020    -1.054    -0.376    -0.352 -0.2054 -0.0859  0.9749
    11 H(1)   Bbb    -0.0016    -0.880    -0.314    -0.294 -0.1064  0.9922  0.0650
              Bcc     0.0036     1.934     0.690     0.645  0.9729  0.0904  0.2129
 
              Baa    -0.0026    -1.399    -0.499    -0.467 -0.3351  0.2431  0.9103
    12 H(1)   Bbb    -0.0017    -0.901    -0.322    -0.301  0.3501  0.9291 -0.1192
              Bcc     0.0043     2.300     0.821     0.767  0.8747 -0.2788  0.3964
 
              Baa    -0.0010    -0.509    -0.182    -0.170  0.1125  0.0336  0.9931
    13 H(1)   Bbb    -0.0009    -0.474    -0.169    -0.158  0.2647  0.9623 -0.0625
              Bcc     0.0018     0.983     0.351     0.328  0.9577 -0.2699 -0.0994
 
              Baa    -0.0016    -0.832    -0.297    -0.277  0.3738  0.4812  0.7929
    14 H(1)   Bbb    -0.0014    -0.761    -0.272    -0.254 -0.0749  0.8677 -0.4914
              Bcc     0.0030     1.593     0.568     0.531  0.9245 -0.1243 -0.3604
 
              Baa    -0.0020    -1.082    -0.386    -0.361  0.4382  0.2691  0.8576
    15 H(1)   Bbb    -0.0017    -0.886    -0.316    -0.295  0.2879  0.8618 -0.4176
              Bcc     0.0037     1.968     0.702     0.656  0.8515 -0.4299 -0.3002
 

 ---------------------------------------------------------------------------------

 Calling FoFJK, ICntrl=    100127 FMM=F ISym2X=0 I1Cent= 0 IOpClX= 1 NMat=1 NMatS=1 NMatT=0.
 Full mass-weighted force constant matrix:
 Low frequencies --- -406.1813   -8.1692    0.0005    0.0005    0.0006   19.3570
 Low frequencies ---   27.6396   79.6325  110.9239
 ******    1 imaginary frequencies (negative Signs) ****** 
 Diagonal vibrational polarizability:
       37.3351412      14.4467037      28.6378105
 Harmonic frequencies (cm**-1), IR intensities (KM/Mole), Raman scattering
 activities (A**4/AMU), depolarization ratios for plane and unpolarized
 incident light, reduced masses (AMU), force constants (mDyne/A),
 and normal coordinates:
                      1                      2                      3
                      A                      A                      A
 Frequencies --   -406.1804                73.6851               109.3072
 Red. masses --     11.7945                 5.6097                 3.2002
 Frc consts  --      1.1465                 0.0179                 0.0225
 IR Inten    --    117.7005                 1.1899                 0.2194
  Atom  AN      X      Y      Z        X      Y      Z        X      Y      Z
     1   8    -0.29  -0.46   0.04     0.06  -0.04  -0.22    -0.06   0.06   0.03
     2   1    -0.03  -0.18   0.02     0.04  -0.01  -0.09    -0.09   0.05   0.08
     3   6     0.24   0.70  -0.09     0.06  -0.02  -0.13    -0.01   0.03  -0.00
     4   1    -0.16   0.25  -0.07     0.07  -0.04  -0.24     0.01   0.06  -0.01
     5   6     0.01  -0.12   0.02     0.02   0.01   0.10    -0.01  -0.04  -0.05
     6   6     0.06  -0.01   0.01     0.00   0.02   0.21    -0.03  -0.06   0.00
     7   8     0.04   0.00   0.00    -0.03   0.04   0.32    -0.08  -0.04   0.16
     8   8     0.01   0.01   0.00     0.02  -0.01   0.11    -0.00  -0.10  -0.12
     9   6     0.02   0.01   0.00     0.04  -0.05  -0.10    -0.01  -0.07  -0.00
    10   6     0.00   0.00  -0.00    -0.17   0.04  -0.25     0.22   0.20  -0.04
    11   1     0.02   0.01  -0.01     0.11  -0.09  -0.12    -0.11  -0.10   0.26
    12   1     0.02   0.02   0.01     0.14  -0.12  -0.14    -0.11  -0.23  -0.15
    13   1     0.00  -0.00  -0.00    -0.16  -0.02  -0.45     0.18   0.13   0.07
    14   1     0.01  -0.00  -0.00    -0.28   0.12  -0.19     0.39   0.37   0.13
    15   1     0.00  -0.00   0.01    -0.26   0.10  -0.23     0.27   0.27  -0.34
                      4                      5                      6
                      A                      A                      A
 Frequencies --    137.0121               178.7437               218.5866
 Red. masses --      4.4711                 5.8211                 1.3169
 Frc consts  --      0.0495                 0.1096                 0.0371
 IR Inten    --      1.0293                 0.9061                 4.0823
  Atom  AN      X      Y      Z        X      Y      Z        X      Y      Z
     1   8     0.22  -0.20   0.10     0.04  -0.10  -0.22     0.06  -0.01   0.01
     2   1     0.35  -0.05   0.09     0.08  -0.08  -0.29     0.09   0.03   0.00
     3   6     0.02  -0.00  -0.01    -0.06   0.01   0.15     0.02   0.04  -0.01
     4   1    -0.14  -0.16  -0.02    -0.11  -0.00   0.30    -0.01   0.01  -0.01
     5   6     0.02   0.20  -0.09    -0.09   0.12   0.38     0.01   0.05  -0.01
     6   6    -0.05   0.13  -0.04    -0.04   0.07   0.05    -0.03  -0.03   0.00
     7   8    -0.20   0.12  -0.04    -0.05   0.06   0.03    -0.09  -0.03  -0.00
     8   8     0.04   0.01   0.01     0.01   0.00  -0.25    -0.02  -0.05   0.01
     9   6    -0.05  -0.16   0.05    -0.00   0.03  -0.10     0.01   0.01  -0.01
    10   6    -0.01  -0.01  -0.02     0.16  -0.15   0.07     0.03   0.02  -0.00
    11   1     0.01  -0.28   0.25    -0.03   0.07  -0.14    -0.03   0.06  -0.05
    12   1    -0.20  -0.29  -0.08    -0.08   0.14  -0.01     0.07   0.03   0.02
    13   1    -0.11  -0.25   0.03     0.11  -0.14   0.29     0.26   0.53  -0.17
    14   1     0.23   0.15   0.14     0.31  -0.27  -0.02    -0.49  -0.09  -0.14
    15   1    -0.14   0.17  -0.27     0.18  -0.17   0.09     0.35  -0.32   0.29
                      7                      8                      9
                      A                      A                      A
 Frequencies --    289.3221               325.5363               352.2673
 Red. masses --      3.2181                 2.1768                 2.4583
 Frc consts  --      0.1587                 0.1359                 0.1797
 IR Inten    --      7.0014                 5.9983                27.8878
  Atom  AN      X      Y      Z        X      Y      Z        X      Y      Z
     1   8     0.19   0.04   0.01    -0.04   0.00   0.04     0.09   0.03   0.00
     2   1     0.27   0.10  -0.06    -0.13   0.10   0.64     0.03   0.17   0.63
     3   6     0.08   0.13   0.01     0.00  -0.04  -0.15     0.04   0.04  -0.07
     4   1     0.05   0.11   0.06     0.05  -0.11  -0.52     0.06   0.00  -0.27
     5   6     0.06   0.00   0.00    -0.03   0.04   0.13    -0.01  -0.01   0.13
     6   6    -0.05  -0.15  -0.00    -0.03   0.01   0.07     0.00  -0.02  -0.00
     7   8    -0.06  -0.15   0.01    -0.07  -0.03  -0.10     0.15  -0.02  -0.02
     8   8    -0.11  -0.08  -0.04    -0.00  -0.02   0.08    -0.04   0.02  -0.12
     9   6    -0.04   0.17  -0.03     0.07   0.05  -0.06    -0.15  -0.09   0.05
    10   6    -0.08   0.04   0.03     0.09  -0.01  -0.03    -0.08   0.03   0.03
    11   1    -0.12   0.30  -0.21     0.04   0.10  -0.14    -0.12  -0.19   0.25
    12   1     0.12   0.28   0.09     0.19   0.08  -0.01    -0.35  -0.19  -0.06
    13   1    -0.25  -0.34   0.17     0.03  -0.10   0.10    -0.01   0.18  -0.05
    14   1     0.29   0.03   0.06     0.26  -0.03  -0.04    -0.24   0.09   0.07
    15   1    -0.33   0.26  -0.07     0.05   0.05  -0.07     0.02  -0.04   0.01
                     10                     11                     12
                      A                      A                      A
 Frequencies --    402.0366               449.9406               588.8649
 Red. masses --      1.5410                 3.4909                 4.3601
 Frc consts  --      0.1468                 0.4164                 0.8908
 IR Inten    --     95.2237                 5.3861                 4.4812
  Atom  AN      X      Y      Z        X      Y      Z        X      Y      Z
     1   8    -0.01  -0.03  -0.11     0.10   0.01  -0.03    -0.12  -0.02  -0.01
     2   1    -0.17   0.13   0.89     0.15   0.15   0.23    -0.34  -0.28   0.00
     3   6    -0.01  -0.00   0.12    -0.08   0.10   0.05     0.28  -0.14   0.07
     4   1    -0.03   0.03   0.29    -0.13   0.09   0.18     0.35  -0.09   0.08
     5   6     0.02  -0.00  -0.08    -0.07  -0.04  -0.12     0.28   0.11  -0.00
     6   6     0.02  -0.00  -0.05    -0.07   0.00   0.04     0.04  -0.02   0.03
     7   8    -0.04   0.01   0.02     0.12   0.01   0.04    -0.08  -0.03  -0.00
     8   8     0.03  -0.01  -0.01    -0.13   0.08   0.17    -0.09   0.10   0.02
     9   6     0.04   0.03   0.02    -0.11  -0.05  -0.15    -0.21   0.03  -0.11
    10   6    -0.02   0.00   0.01     0.14  -0.10  -0.06    -0.01  -0.00  -0.01
    11   1     0.03   0.05  -0.03    -0.06  -0.10  -0.13    -0.12  -0.08   0.02
    12   1     0.07   0.06   0.05    -0.04  -0.10  -0.18    -0.28  -0.04  -0.18
    13   1    -0.03  -0.04  -0.05     0.13   0.07   0.35    -0.02   0.16   0.34
    14   1    -0.05   0.00   0.01     0.36  -0.21  -0.14     0.16  -0.11  -0.09
    15   1    -0.08   0.03   0.05     0.38  -0.25  -0.15     0.20  -0.14  -0.06
                     13                     14                     15
                      A                      A                      A
 Frequencies --    626.8020               768.7182               799.4455
 Red. masses --      8.6601                 7.2200                 1.2104
 Frc consts  --      2.0046                 2.5138                 0.4558
 IR Inten    --     14.6879                13.4069                 5.0541
  Atom  AN      X      Y      Z        X      Y      Z        X      Y      Z
     1   8    -0.13  -0.08  -0.00     0.00  -0.01  -0.04    -0.00  -0.00   0.00
     2   1    -0.19  -0.16   0.00     0.01  -0.00  -0.03     0.01   0.01   0.00
     3   6    -0.10  -0.02  -0.01    -0.03   0.04   0.19    -0.03   0.00  -0.02
     4   1    -0.28  -0.19  -0.00     0.06  -0.11  -0.59    -0.06  -0.00   0.06
     5   6     0.03   0.63  -0.10     0.03  -0.03  -0.26    -0.01   0.04   0.00
     6   6    -0.10  -0.10  -0.01    -0.08   0.10   0.60     0.01  -0.04  -0.01
     7   8     0.32  -0.07   0.06     0.02  -0.04  -0.16    -0.00  -0.05   0.01
     8   8    -0.05  -0.22   0.01     0.02  -0.02  -0.17     0.00   0.04   0.01
     9   6     0.02  -0.02   0.03     0.03   0.02   0.00     0.05   0.06  -0.01
    10   6    -0.00   0.01   0.01     0.01   0.00   0.02     0.03   0.02  -0.02
    11   1    -0.11   0.16  -0.19    -0.01  -0.01   0.15    -0.01  -0.09   0.52
    12   1     0.24   0.09   0.16    -0.10  -0.05  -0.07    -0.15  -0.32  -0.36
    13   1    -0.00  -0.03  -0.08     0.00  -0.07  -0.10    -0.06  -0.18  -0.01
    14   1    -0.03   0.09   0.07    -0.08  -0.04  -0.02     0.02  -0.32  -0.31
    15   1    -0.05   0.07  -0.05    -0.11   0.05   0.13    -0.19   0.02   0.42
                     16                     17                     18
                      A                      A                      A
 Frequencies --    828.2873               890.8374               924.8278
 Red. masses --      1.5139                 3.1004                 2.7818
 Frc consts  --      0.6119                 1.4496                 1.4018
 IR Inten    --     42.5870                 8.5753                 0.8217
  Atom  AN      X      Y      Z        X      Y      Z        X      Y      Z
     1   8    -0.00   0.01   0.02    -0.01  -0.01   0.00    -0.00  -0.01   0.00
     2   1    -0.01   0.02   0.09    -0.01  -0.01  -0.00     0.08   0.10  -0.00
     3   6     0.02  -0.03  -0.17    -0.03   0.01  -0.00    -0.12   0.03  -0.02
     4   1    -0.12   0.17   0.95    -0.07  -0.04  -0.02    -0.21  -0.06  -0.01
     5   6     0.00  -0.00   0.00     0.00   0.07  -0.01    -0.04   0.07  -0.02
     6   6    -0.02   0.02   0.11    -0.00  -0.10   0.01     0.13  -0.08   0.04
     7   8     0.00  -0.01  -0.03    -0.04  -0.15   0.02    -0.04  -0.13   0.02
     8   8     0.00  -0.01  -0.02    -0.06   0.26  -0.03     0.17   0.08  -0.01
     9   6     0.00  -0.00   0.00     0.08  -0.01   0.11    -0.02  -0.01  -0.10
    10   6     0.00   0.00   0.00     0.10  -0.12  -0.05    -0.14   0.06   0.07
    11   1     0.00   0.00  -0.01     0.22  -0.08  -0.00     0.31  -0.23  -0.17
    12   1    -0.00   0.02   0.02    -0.22   0.21   0.25    -0.04  -0.01  -0.11
    13   1     0.01   0.01  -0.02     0.20  -0.12  -0.56    -0.13   0.36   0.58
    14   1    -0.01   0.03   0.03    -0.17   0.24   0.23     0.15   0.07   0.11
    15   1    -0.00   0.01  -0.02     0.02   0.04  -0.33     0.22  -0.13  -0.13
                     19                     20                     21
                      A                      A                      A
 Frequencies --   1052.6047              1070.1836              1127.4311
 Red. masses --      1.1096                 3.8109                 2.0627
 Frc consts  --      0.7244                 2.5715                 1.5447
 IR Inten    --     38.4856                21.5264                20.3335
  Atom  AN      X      Y      Z        X      Y      Z        X      Y      Z
     1   8    -0.04  -0.05   0.00     0.01   0.00   0.00     0.00   0.00   0.00
     2   1     0.37   0.42  -0.02    -0.12  -0.15   0.01    -0.03  -0.03   0.00
     3   6    -0.04  -0.04   0.00     0.07  -0.01   0.01     0.01  -0.00   0.00
     4   1     0.58   0.59  -0.03     0.14   0.04   0.01     0.03   0.01   0.00
     5   6     0.00   0.03  -0.00     0.01  -0.01   0.00    -0.00  -0.00   0.00
     6   6    -0.00   0.00  -0.00    -0.15   0.00  -0.03    -0.03   0.00   0.00
     7   8     0.00  -0.01   0.00     0.02   0.01   0.00     0.00   0.00  -0.00
     8   8    -0.00   0.00  -0.00    -0.17   0.09  -0.05    -0.04   0.01  -0.05
     9   6     0.00  -0.00  -0.00     0.29  -0.19  -0.11     0.08   0.01   0.21
    10   6    -0.00   0.00   0.00    -0.08   0.09   0.15    -0.09   0.00  -0.17
    11   1     0.01  -0.01   0.00     0.33  -0.19  -0.23     0.08   0.05   0.13
    12   1    -0.00  -0.00  -0.00     0.37  -0.28  -0.19     0.17  -0.02   0.21
    13   1    -0.00   0.01   0.01    -0.09   0.14   0.31    -0.12   0.19   0.44
    14   1     0.00   0.00   0.00    -0.01   0.12   0.20     0.41  -0.23  -0.32
    15   1     0.00  -0.00  -0.00    -0.06   0.06   0.25     0.33  -0.31  -0.17
                     22                     23                     24
                      A                      A                      A
 Frequencies --   1200.4812              1220.9117              1303.1677
 Red. masses --      1.6754                 1.3168                 2.6163
 Frc consts  --      1.4226                 1.1565                 2.6178
 IR Inten    --     24.5741               185.7932               443.5510
  Atom  AN      X      Y      Z        X      Y      Z        X      Y      Z
     1   8     0.02  -0.00   0.00    -0.06   0.01  -0.01     0.04  -0.00   0.01
     2   1    -0.20  -0.26   0.02     0.46   0.60  -0.04    -0.27  -0.35   0.02
     3   6     0.01   0.01   0.00     0.03  -0.02   0.01    -0.09   0.02  -0.02
     4   1     0.17   0.17  -0.01    -0.35  -0.42   0.03     0.13   0.27  -0.03
     5   6    -0.02  -0.01  -0.00     0.04  -0.01   0.01    -0.02   0.03  -0.01
     6   6    -0.08  -0.00  -0.01     0.06   0.02   0.00     0.31   0.03   0.04
     7   8     0.02   0.03  -0.00    -0.00   0.02  -0.00    -0.04   0.00  -0.00
     8   8     0.01  -0.06   0.02    -0.07  -0.03  -0.00    -0.14  -0.02  -0.01
     9   6     0.07   0.16  -0.03     0.06   0.03  -0.01     0.07  -0.04  -0.02
    10   6    -0.06  -0.11   0.03    -0.03  -0.04   0.01    -0.03  -0.05   0.00
    11   1     0.25  -0.12   0.37    -0.02   0.02   0.14    -0.57   0.36   0.17
    12   1    -0.27  -0.09  -0.29    -0.08  -0.07  -0.12     0.08  -0.13  -0.11
    13   1     0.09   0.24  -0.04     0.03   0.10  -0.00     0.02   0.10   0.04
    14   1     0.02   0.22   0.30     0.01   0.10   0.13     0.02   0.13   0.16
    15   1     0.12  -0.08  -0.41     0.04  -0.03  -0.14     0.01  -0.04  -0.07
                     25                     26                     27
                      A                      A                      A
 Frequencies --   1348.4957              1402.2052              1431.1467
 Red. masses --      1.2775                 1.2890                 1.3849
 Frc consts  --      1.3687                 1.4932                 1.6712
 IR Inten    --    137.9669                33.8994                10.4958
  Atom  AN      X      Y      Z        X      Y      Z        X      Y      Z
     1   8    -0.01  -0.00  -0.00    -0.00   0.00  -0.00     0.00  -0.00   0.00
     2   1     0.04   0.05  -0.00     0.02   0.02  -0.00    -0.01  -0.02   0.00
     3   6     0.02  -0.00   0.00     0.02  -0.00   0.00    -0.02   0.00  -0.00
     4   1    -0.02  -0.04   0.00    -0.00  -0.02   0.00    -0.00   0.02  -0.00
     5   6     0.00  -0.00   0.00    -0.00  -0.00   0.00     0.00   0.00   0.00
     6   6    -0.08  -0.01  -0.01    -0.06   0.00  -0.01     0.06  -0.00   0.01
     7   8     0.00  -0.02   0.00     0.01  -0.02   0.00    -0.01   0.01  -0.00
     8   8     0.07   0.06  -0.01     0.04   0.02   0.01    -0.04  -0.01  -0.02
     9   6    -0.04   0.01   0.01     0.04  -0.03  -0.03    -0.08   0.06   0.07
    10   6    -0.02  -0.05   0.03     0.02  -0.05  -0.11     0.07  -0.05  -0.06
    11   1    -0.45   0.27   0.14    -0.32   0.16   0.20     0.45  -0.22  -0.23
    12   1     0.67  -0.35  -0.20    -0.21   0.22   0.16     0.38  -0.32  -0.19
    13   1     0.03   0.03  -0.07    -0.02   0.17   0.49     0.03   0.06   0.33
    14   1    -0.03   0.04   0.10    -0.14   0.36   0.25    -0.29   0.20   0.13
    15   1     0.05  -0.02  -0.19    -0.28   0.03   0.34    -0.28   0.15   0.14
                     28                     29                     30
                      A                      A                      A
 Frequencies --   1492.9815              1502.7760              1514.6826
 Red. masses --      1.0413                 1.0629                 1.0838
 Frc consts  --      1.3676                 1.4142                 1.4651
 IR Inten    --      9.9243                 2.6679                17.8477
  Atom  AN      X      Y      Z        X      Y      Z        X      Y      Z
     1   8    -0.00  -0.00   0.00     0.00  -0.00   0.00     0.00  -0.00   0.00
     2   1     0.00   0.00  -0.00    -0.00  -0.00  -0.00    -0.00  -0.00   0.00
     3   6     0.00   0.00  -0.00    -0.00   0.00  -0.00    -0.01   0.00  -0.00
     4   1    -0.00  -0.00   0.00    -0.00   0.00  -0.00    -0.00   0.01  -0.00
     5   6     0.00  -0.00  -0.00     0.00   0.00   0.00     0.00   0.00   0.00
     6   6    -0.00   0.01  -0.00     0.02  -0.01   0.00     0.02  -0.01   0.00
     7   8    -0.00  -0.01   0.00    -0.00   0.01  -0.00    -0.00   0.01  -0.00
     8   8     0.01   0.00  -0.00    -0.02  -0.00  -0.01    -0.02  -0.00  -0.01
     9   6    -0.02  -0.01   0.02    -0.01  -0.02  -0.05    -0.05   0.01  -0.05
    10   6    -0.03  -0.04  -0.00     0.02  -0.02   0.03    -0.02   0.01  -0.03
    11   1     0.02   0.01  -0.14     0.05  -0.24   0.44     0.15  -0.28   0.36
    12   1    -0.02  -0.06  -0.03     0.30   0.31   0.29     0.37   0.20   0.18
    13   1     0.25   0.52  -0.30     0.09   0.27   0.12    -0.05  -0.20  -0.22
    14   1     0.58  -0.04   0.03    -0.13  -0.26  -0.21     0.25   0.28   0.24
    15   1    -0.35   0.13   0.26    -0.25   0.29  -0.30     0.20  -0.29   0.37
                     31                     32                     33
                      A                      A                      A
 Frequencies --   1784.1762              1837.8592              3076.0253
 Red. masses --      9.8433                 9.5929                 1.0354
 Frc consts  --     18.4615                19.0909                 5.7722
 IR Inten    --    227.5137               229.1586                 9.5160
  Atom  AN      X      Y      Z        X      Y      Z        X      Y      Z
     1   8    -0.00   0.03  -0.01    -0.00  -0.03   0.00    -0.00  -0.00  -0.00
     2   1     0.05   0.08  -0.01    -0.08  -0.14   0.01     0.00   0.00  -0.00
     3   6     0.35  -0.05   0.06    -0.34   0.06  -0.06     0.00   0.00   0.00
     4   1     0.34  -0.24   0.09    -0.36   0.23  -0.09    -0.00   0.00   0.00
     5   6    -0.46   0.07  -0.08     0.50  -0.10   0.09    -0.00   0.00  -0.00
     6   6     0.08   0.49  -0.08    -0.12   0.49  -0.10     0.00   0.00   0.00
     7   8     0.02  -0.37   0.07     0.02  -0.28   0.05     0.00  -0.00  -0.00
     8   8    -0.02  -0.05   0.00    -0.03  -0.04   0.00    -0.00  -0.00  -0.00
     9   6    -0.03   0.02  -0.01    -0.00   0.01  -0.00     0.00   0.00  -0.00
    10   6     0.01  -0.00   0.01     0.00  -0.00   0.00    -0.02   0.02   0.04
    11   1     0.11  -0.11   0.08     0.08  -0.07   0.06     0.00   0.01   0.00
    12   1     0.14   0.04   0.01     0.08   0.04   0.01    -0.00  -0.02   0.02
    13   1    -0.00  -0.05  -0.04    -0.01  -0.03  -0.02     0.56  -0.21   0.12
    14   1    -0.03   0.01   0.01    -0.02  -0.00  -0.00     0.03   0.39  -0.44
    15   1     0.03  -0.01  -0.03     0.03  -0.01  -0.03    -0.31  -0.40  -0.13
                     34                     35                     36
                      A                      A                      A
 Frequencies --   3108.3734              3151.4388              3155.6332
 Red. masses --      1.0608                 1.1014                 1.1049
 Frc consts  --      6.0391                 6.4450                 6.4824
 IR Inten    --     17.3738                14.0720                 1.6994
  Atom  AN      X      Y      Z        X      Y      Z        X      Y      Z
     1   8    -0.00  -0.00   0.00    -0.00  -0.00   0.00    -0.00   0.00  -0.00
     2   1     0.00  -0.00  -0.00     0.00   0.00  -0.00     0.00  -0.00  -0.00
     3   6     0.00   0.00   0.00     0.00   0.00   0.00     0.00   0.00   0.00
     4   1    -0.00  -0.00   0.00    -0.00   0.00  -0.00     0.00  -0.00   0.00
     5   6    -0.00  -0.00  -0.00    -0.00   0.00  -0.00    -0.00  -0.00  -0.00
     6   6     0.00   0.00   0.00     0.00   0.00  -0.00    -0.00   0.00  -0.00
     7   8     0.00  -0.00   0.00    -0.00  -0.00   0.00    -0.00  -0.00   0.00
     8   8    -0.00   0.00  -0.00     0.00  -0.00   0.00     0.00  -0.00  -0.00
     9   6    -0.02   0.01  -0.06    -0.02  -0.02  -0.01     0.02   0.05  -0.01
    10   6     0.01  -0.01   0.01    -0.04   0.06  -0.05    -0.06  -0.04  -0.01
    11   1     0.32   0.42   0.15     0.17   0.23   0.08    -0.25  -0.34  -0.12
    12   1    -0.09  -0.54   0.61     0.00   0.02  -0.02    -0.04  -0.23   0.27
    13   1    -0.12   0.04  -0.03     0.60  -0.22   0.12     0.37  -0.15   0.08
    14   1     0.01   0.05  -0.05    -0.05  -0.45   0.52    -0.00   0.11  -0.13
    15   1    -0.01  -0.02  -0.00    -0.02   0.00  -0.01     0.40   0.53   0.18
                     37                     38                     39
                      A                      A                      A
 Frequencies --   3176.4227              3282.4071              3813.1605
 Red. masses --      1.1074                 1.1072                 1.0680
 Frc consts  --      6.5832                 7.0286                 9.1494
 IR Inten    --     14.6572                 9.5854                46.6124
  Atom  AN      X      Y      Z        X      Y      Z        X      Y      Z
     1   8    -0.00  -0.00   0.00     0.00  -0.00   0.00    -0.05   0.04  -0.01
     2   1    -0.00   0.00  -0.00    -0.01  -0.00  -0.00     0.74  -0.63   0.21
     3   6     0.00  -0.00   0.00    -0.07   0.06  -0.02    -0.00  -0.00  -0.00
     4   1    -0.00   0.00  -0.00     0.70  -0.67   0.21     0.00  -0.01   0.00
     5   6    -0.00   0.00  -0.00     0.01  -0.00   0.00    -0.00  -0.00  -0.00
     6   6     0.00  -0.00   0.00    -0.00   0.00  -0.00     0.00  -0.00   0.00
     7   8    -0.00   0.00  -0.00    -0.00   0.00  -0.00    -0.00   0.00  -0.00
     8   8     0.00   0.00   0.00    -0.00  -0.00   0.00    -0.00   0.00  -0.00
     9   6    -0.04  -0.07   0.01    -0.00  -0.00   0.00     0.00  -0.00   0.00
    10   6    -0.03  -0.05   0.01    -0.00  -0.00   0.00    -0.00   0.00  -0.00
    11   1     0.37   0.50   0.19     0.00   0.00   0.00    -0.00   0.00  -0.00
    12   1     0.05   0.27  -0.33     0.00   0.00  -0.00    -0.00   0.00  -0.00
    13   1     0.07  -0.04   0.02     0.00  -0.00   0.00    -0.00   0.00   0.00
    14   1     0.02   0.23  -0.28    -0.00  -0.00  -0.00     0.00   0.00  -0.00
    15   1     0.29   0.38   0.14    -0.00   0.00  -0.00     0.00   0.00   0.00

 -------------------
 - Thermochemistry -
 -------------------
 Temperature   298.150 Kelvin.  Pressure   1.00000 Atm.
 Atom     1 has atomic number  8 and mass  15.99491
 Atom     2 has atomic number  1 and mass   1.00783
 Atom     3 has atomic number  6 and mass  12.00000
 Atom     4 has atomic number  1 and mass   1.00783
 Atom     5 has atomic number  6 and mass  12.00000
 Atom     6 has atomic number  6 and mass  12.00000
 Atom     7 has atomic number  8 and mass  15.99491
 Atom     8 has atomic number  8 and mass  15.99491
 Atom     9 has atomic number  6 and mass  12.00000
 Atom    10 has atomic number  6 and mass  12.00000
 Atom    11 has atomic number  1 and mass   1.00783
 Atom    12 has atomic number  1 and mass   1.00783
 Atom    13 has atomic number  1 and mass   1.00783
 Atom    14 has atomic number  1 and mass   1.00783
 Atom    15 has atomic number  1 and mass   1.00783
 Molecular mass:   115.03952 amu.
 Principal axes and moments of inertia in atomic units:
                           1         2         3
     Eigenvalues --   309.595401894.939782051.55198
           X            0.99994  -0.00972  -0.00584
           Y            0.00982   0.99981   0.01702
           Z            0.00568  -0.01708   0.99984
 This molecule is an asymmetric top.
 Rotational symmetry number  1.
 Rotational temperatures (Kelvin)      0.27976     0.04571     0.04222
 Rotational constants (GHZ):           5.82935     0.95240     0.87970
    1 imaginary frequencies ignored.
 Zero-point vibrational energy     299166.8 (Joules/Mol)
                                   71.50258 (Kcal/Mol)
 Warning -- explicit consideration of  11 degrees of freedom as
           vibrations may cause significant error
 Vibrational temperatures:    106.02   157.27   197.13   257.17   314.50
          (Kelvin)            416.27   468.37   506.83   578.44   647.36
                              847.25   901.83  1106.01  1150.22  1191.72
                             1281.72  1330.62  1514.46  1539.76  1622.12
                             1727.22  1756.62  1874.97  1940.18  2017.46
                             2059.10  2148.07  2162.16  2179.29  2567.03
                             2644.27  4425.71  4472.26  4534.22  4540.25
                             4570.16  4722.65  5486.29
 
 Zero-point correction=                           0.113947 (Hartree/Particle)
 Thermal correction to Energy=                    0.122647
 Thermal correction to Enthalpy=                  0.123591
 Thermal correction to Gibbs Free Energy=         0.079675
 Sum of electronic and zero-point Energies=           -420.121613
 Sum of electronic and thermal Energies=              -420.112914
 Sum of electronic and thermal Enthalpies=            -420.111969
 Sum of electronic and thermal Free Energies=         -420.155885
 
                     E (Thermal)             CV                S
                      KCal/Mol        Cal/Mol-Kelvin    Cal/Mol-Kelvin
 Total                   76.962             30.181             92.428
 Electronic               0.000              0.000              1.377
 Translational            0.889              2.981             40.136
 Rotational               0.889              2.981             28.578
 Vibrational             75.184             24.220             22.337
 Vibration     1          0.599              1.966              4.052
 Vibration     2          0.606              1.942              3.281
 Vibration     3          0.614              1.916              2.845
 Vibration     4          0.629              1.868              2.341
 Vibration     5          0.646              1.813              1.971
 Vibration     6          0.686              1.694              1.478
 Vibration     7          0.710              1.624              1.282
 Vibration     8          0.729              1.571              1.156
 Vibration     9          0.768              1.466              0.955
 Vibration    10          0.809              1.361              0.796
 Vibration    11          0.946              1.056              0.469
                       Q            Log10(Q)             Ln(Q)
 Total Bot       0.224872D-36        -36.648065        -84.385287
 Total V=0       0.580358D+16         15.763696         36.297251
 Vib (Bot)       0.590336D-50        -50.228901       -115.656319
 Vib (Bot)    1  0.279754D+01          0.446776          1.028740
 Vib (Bot)    2  0.187400D+01          0.272769          0.628074
 Vib (Bot)    3  0.148525D+01          0.171801          0.395585
 Vib (Bot)    4  0.112416D+01          0.050830          0.117040
 Vib (Bot)    5  0.905455D+00         -0.043133         -0.099318
 Vib (Bot)    6  0.661214D+00         -0.179658         -0.413678
 Vib (Bot)    7  0.575531D+00         -0.239931         -0.552462
 Vib (Bot)    8  0.522976D+00         -0.281518         -0.648220
 Vib (Bot)    9  0.442671D+00         -0.353919         -0.814928
 Vib (Bot)   10  0.381151D+00         -0.418903         -0.964560
 Vib (Bot)   11  0.256471D+00         -0.590962         -1.360739
 Vib (V=0)       0.152356D+03          2.182859          5.026219
 Vib (V=0)    1  0.334187D+01          0.523990          1.206530
 Vib (V=0)    2  0.243955D+01          0.387310          0.891815
 Vib (V=0)    3  0.206716D+01          0.315373          0.726174
 Vib (V=0)    4  0.173034D+01          0.238132          0.548320
 Vib (V=0)    5  0.153434D+01          0.185920          0.428097
 Vib (V=0)    6  0.132898D+01          0.123518          0.284410
 Vib (V=0)    7  0.126239D+01          0.101193          0.233006
 Vib (V=0)    8  0.122354D+01          0.087617          0.201745
 Vib (V=0)    9  0.116780D+01          0.067369          0.155122
 Vib (V=0)   10  0.112871D+01          0.052582          0.121075
 Vib (V=0)   11  0.106194D+01          0.026100          0.060098
 Electronic      0.200000D+01          0.301030          0.693147
 Translational   0.484981D+08          7.685724         17.697035
 Rotational      0.392719D+06          5.594082         12.880849
 ***** Axes restored to original set *****
 -------------------------------------------------------------------
 Center     Atomic                   Forces (Hartrees/Bohr)
 Number     Number              X              Y              Z
 -------------------------------------------------------------------
      1        8          -0.032162214   -0.066937867    0.007582152
      2        1          -0.000103862   -0.002150746    0.000373931
      3        6           0.030890661    0.081245171   -0.010287715
      4        1          -0.002816639    0.000775711   -0.000505206
      5        6          -0.000638348   -0.015376162    0.002626081
      6        6           0.003897691   -0.000370816    0.000561018
      7        8           0.000965154    0.001538773   -0.000139971
      8        8          -0.000309398    0.001074965   -0.000248897
      9        6           0.000432921    0.000078689    0.000023455
     10        6          -0.000115898    0.000049243   -0.000013930
     11        1          -0.000012012    0.000030202   -0.000000120
     12        1          -0.000047639    0.000041377    0.000011298
     13        1          -0.000016757    0.000015723    0.000029995
     14        1           0.000016167   -0.000001570   -0.000001461
     15        1           0.000020174   -0.000012692   -0.000010631
 -------------------------------------------------------------------
 Cartesian Forces:  Max     0.081245171 RMS     0.017327700

 GradGradGradGradGradGradGradGradGradGradGradGradGradGradGradGradGradGrad
 Berny optimization.
 Search for a local minimum.
 Step number   1 out of a maximum of    2
 All quantities printed in internal units (Hartrees-Bohrs-Radians)
 Second derivative matrix not updated -- analytic derivatives used.
 ITU=  0
     Eigenvalues ---   -0.07718   0.00137   0.00168   0.00271   0.00470
     Eigenvalues ---    0.00568   0.01397   0.01707   0.01735   0.02501
     Eigenvalues ---    0.03241   0.03569   0.05336   0.06298   0.06897
     Eigenvalues ---    0.07787   0.08620   0.10293   0.11319   0.13448
     Eigenvalues ---    0.14092   0.14697   0.17083   0.19243   0.21476
     Eigenvalues ---    0.28478   0.29390   0.44100   0.49063   0.61994
     Eigenvalues ---    0.69831   0.76421   0.79127   0.86491   0.89477
     Eigenvalues ---    0.93885   1.01397   1.64850   1.71194
 Eigenvalue     1 is  -7.72D-02 should be greater than     0.000000 Eigenvector:
                          Y3        Y1        X1        X3        Y4
   1                    0.67552  -0.51543  -0.33009   0.25361   0.17410
                          X4        Y5        Y2        Z3        X6
   1                   -0.14049  -0.12958  -0.12608  -0.08663   0.07103
 Quadratic step=1.841D+00 exceeds max=3.000D-01 adjusted using Lamda=-3.031D-01.
 Angle between NR and scaled steps=  33.74 degrees.
 Angle between quadratic step and forces=   7.20 degrees.
 Linear search not attempted -- first point.
 B after Tr=    -0.000535   -0.002138    0.000273
         Rot=    1.000000   -0.000024    0.000033    0.000194 Ang=  -0.02 deg.
 Variable       Old X    -DE/DX   Delta X   Delta X   Delta X     New X
                                 (Linear)    (Quad)   (Total)
    X1        6.21327  -0.03216   0.00000  -0.09510  -0.09520   6.11807
    Y1        1.31087  -0.06694   0.00000  -0.16179  -0.16631   1.14456
    Z1        0.20334   0.00758   0.00000   0.01594   0.01668   0.22002
    X2        4.85225  -0.00010   0.00000   0.01388   0.01431   4.86656
    Y2        2.47025  -0.00215   0.00000  -0.01413  -0.01814   2.45211
    Z2       -0.18922   0.00037   0.00000   0.00447   0.00519  -0.18403
    X3        4.72120   0.03089   0.00000   0.08942   0.08837   4.80956
    Y3       -1.46710   0.08125   0.00000   0.20716   0.20313  -1.26397
    Z3        0.49681  -0.01029   0.00000  -0.02480  -0.02427   0.47254
    X4        6.15425  -0.00282   0.00000  -0.02304  -0.02473   6.12952
    Y4       -2.85175   0.00078   0.00000   0.01987   0.01531  -2.83645
    Z4        0.93618  -0.00051   0.00000  -0.00652  -0.00598   0.93020
    X5        2.31595  -0.00064   0.00000   0.00747   0.00635   2.32230
    Y5       -1.45102  -0.01538   0.00000  -0.03534  -0.03839  -1.48942
    Z5        0.16890   0.00263   0.00000   0.00732   0.00767   0.17657
    X6       -0.01240   0.00390   0.00000   0.01502   0.01448   0.00208
    Y6       -0.08902  -0.00037   0.00000   0.00095  -0.00117  -0.09020
    Z6       -0.38790   0.00056   0.00000   0.00172   0.00199  -0.38591
    X7       -0.08056   0.00097   0.00000  -0.00030   0.00005  -0.08051
    Y7        2.14915   0.00154   0.00000   0.00583   0.00377   2.15291
    Z7       -0.79461  -0.00014   0.00000  -0.00112  -0.00075  -0.79536
    X8       -1.99271  -0.00031   0.00000   0.00147   0.00033  -1.99238
    Y8       -1.63458   0.00107   0.00000   0.00457   0.00322  -1.63136
    Z8       -0.39242  -0.00025   0.00000  -0.00071  -0.00065  -0.39307
    X9       -4.42077   0.00043   0.00000   0.00173   0.00106  -4.41972
    Y9       -0.49404   0.00008   0.00000  -0.00002  -0.00040  -0.49444
    Z9       -0.89467   0.00002   0.00000   0.00018   0.00014  -0.89453
   X10       -5.45784  -0.00012   0.00000  -0.00059  -0.00092  -5.45875
   Y10        0.78477   0.00005   0.00000  -0.00007  -0.00016   0.78461
   Z10        1.44893  -0.00001   0.00000  -0.00004  -0.00009   1.44884
   X11       -5.59770  -0.00001   0.00000  -0.00041  -0.00165  -5.59935
   Y11       -2.07291   0.00003   0.00000  -0.00022  -0.00011  -2.07302
   Z11       -1.48765  -0.00000   0.00000   0.00026   0.00006  -1.48759
   X12       -4.21202  -0.00005   0.00000  -0.00118  -0.00123  -4.21325
   Y12        0.83528   0.00004   0.00000  -0.00008  -0.00047   0.83481
   Z12       -2.45554   0.00001   0.00000  -0.00017  -0.00014  -2.45568
   X13       -7.35154  -0.00002   0.00000  -0.00061  -0.00064  -7.35218
   Y13        1.50415   0.00002   0.00000  -0.00014   0.00052   1.50467
   Z13        1.05930   0.00003   0.00000   0.00052   0.00038   1.05968
   X14       -5.57811   0.00002   0.00000   0.00031  -0.00064  -5.57875
   Y14       -0.55841  -0.00000   0.00000  -0.00001  -0.00013  -0.55854
   Z14        3.00823  -0.00000   0.00000   0.00022   0.00010   3.00833
   X15       -4.26396   0.00002   0.00000  -0.00019   0.00006  -4.26390
   Y15        2.36852  -0.00001   0.00000  -0.00009  -0.00067   2.36785
   Z15        2.00579  -0.00001   0.00000  -0.00043  -0.00033   2.00546
         Item               Value     Threshold  Converged?
 Maximum Force            0.081245     0.000450     NO 
 RMS     Force            0.017328     0.000300     NO 
 Maximum Displacement     0.203132     0.001800     NO 
 RMS     Displacement     0.044703     0.001200     NO 
 Predicted change in Energy=-3.768074D-02
 GradGradGradGradGradGradGradGradGradGradGradGradGradGradGradGradGradGrad


 ----------------------------------------------------------------------

 Electric dipole moment (input orientation):
 (Debye = 10**-18 statcoulomb cm , SI units = C m)
                  (au)            (Debye)         (10**-30 SI)
   Tot        0.136237D+01      0.346281D+01      0.115507D+02
   x         -0.119314D+01     -0.303267D+01     -0.101159D+02
   y         -0.655612D+00     -0.166640D+01     -0.555851D+01
   z          0.514181D-01      0.130692D+00      0.435941D+00

 Dipole polarizability, Alpha (input orientation).
 (esu units = cm**3 , SI units = C**2 m**2 J**-1)
 Alpha(0;0):
               (au)            (10**-24 esu)      (10**-40 SI)
   iso        0.731791D+02      0.108440D+02      0.120656D+02
   aniso      0.460387D+02      0.682223D+01      0.759075D+01
   xx         0.101966D+03      0.151098D+02      0.168119D+02
   yx         0.240261D+01      0.356031D+00      0.396137D+00
   yy         0.668405D+02      0.990474D+01      0.110205D+02
   zx         0.310300D+01      0.459818D+00      0.511616D+00
   zy        -0.217555D+01     -0.322383D+00     -0.358699D+00
   zz         0.507310D+02      0.751756D+01      0.836441D+01

 ----------------------------------------------------------------------

 Dipole orientation:
     8          1.26674593         -1.40716020         -6.06462519
     1          0.09700377         -0.14267637         -5.44541449
     6          2.26267570         -2.81801847         -3.40998322
     1          3.58369150         -4.26423158         -3.98211440
     6          1.34144369         -1.98649952         -1.32362409
     6         -0.30679497         -0.25078966          0.03906142
     8         -1.58974053          1.31988103         -0.99366290
     8         -0.19973282         -0.64937325          2.51697302
     6         -1.73626808          0.98104474          4.07562025
     6         -0.47370609          3.52346370          4.45691237
     1         -1.92144139         -0.05286908          5.84376799
     1         -3.58865450          1.17780229          3.19417853
     1         -1.60116697          4.66388368          5.75449384
     1          1.40601762          3.27924293          5.26747527
     1         -0.31773913          4.53689527          2.67020918

 Electric dipole moment (dipole orientation):
 (Debye = 10**-18 statcoulomb cm , SI units = C m)
                  (au)            (Debye)         (10**-30 SI)
   Tot        0.136237D+01      0.346281D+01      0.115507D+02
   x          0.000000D+00      0.000000D+00      0.000000D+00
   y          0.000000D+00      0.000000D+00      0.000000D+00
   z          0.136237D+01      0.346281D+01      0.115507D+02

 Dipole polarizability, Alpha (dipole orientation).
 (esu units = cm**3 , SI units = C**2 m**2 J**-1)
 Alpha(0;0):
               (au)            (10**-24 esu)      (10**-40 SI)
   iso        0.731791D+02      0.108440D+02      0.120656D+02
   aniso      0.460387D+02      0.682223D+01      0.759075D+01
   xx         0.593319D+02      0.879209D+01      0.978251D+01
   yx        -0.113969D+02     -0.168885D+01     -0.187910D+01
   yy         0.645478D+02      0.956499D+01      0.106425D+02
   zx        -0.940460D+01     -0.139362D+01     -0.155061D+01
   zy         0.101203D+02      0.149967D+01      0.166861D+01
   zz         0.956576D+02      0.141750D+02      0.157718D+02

 ----------------------------------------------------------------------
 1\1\GINC-AJ\Freq\UM062X\6-311++G(d,p)\C5H7O3(2)\AAYUSH\23-Jun-2025\0\\
 # freq 6-311++g(d,p) m062x\\Title Card Required\\0,2\O,3.28792,0.69368
 1,0.107604\H,2.567702,1.3072,-0.100133\C,2.49835,-0.776358,0.262899\H,
 3.25669,-1.509083,0.495405\C,1.225549,-0.767849,0.089378\C,-0.006562,-
 0.04711,-0.205267\O,-0.042632,1.13728,-0.420488\O,-1.054495,-0.864983,
 -0.207662\C,-2.339373,-0.261437,-0.473438\C,-2.888163,0.415283,0.76674
 3\H,-2.962177,-1.096937,-0.787233\H,-2.228903,0.442009,-1.299415\H,-3.
 890268,0.795964,0.560556\H,-2.95181,-0.2955,1.591887\H,-2.25639,1.2533
 65,1.061416\\Version=ES64L-G16RevA.03\State=2-A\HF=-420.23556\S2=0.773
 84\S2-1=0.\S2A=0.750369\RMSD=3.773e-09\RMSF=1.733e-02\ZeroPoint=0.1139
 466\Thermal=0.1226465\Dipole=-1.1931442,-0.6556118,0.0514181\DipoleDer
 iv=-0.5658005,-0.0201154,-0.0000832,-0.5457591,-0.6658005,-0.0259578,0
 .0846292,0.0331061,-0.4652867,0.1319813,-0.0034869,-0.026876,0.0869364
 ,0.2928994,0.0129872,-0.0417342,0.0026209,0.3121234,0.6767797,0.104191
 7,0.0580927,0.5390375,0.4705874,-0.0199446,-0.0082343,-0.0644665,0.037
 4284,0.1256166,-0.0186501,-0.0041951,-0.052815,0.0866266,0.0115135,0.0
 029804,0.0136634,0.1800625,-1.0042912,0.1153312,-0.1101725,0.100737,-0
 .2679194,0.0373905,-0.1346105,0.0425025,-0.1456514,2.5853797,0.1434006
 ,0.1527342,0.3386952,1.4348376,-0.2067769,0.1953435,-0.1627887,0.47075
 65,-0.8998957,0.0734857,-0.0487159,0.0663034,-1.059174,0.1691176,-0.05
 86442,0.142197,-0.3987787,-1.9442525,-0.2542488,-0.0092587,-0.3516182,
 -0.6534252,0.0069072,-0.1152441,-0.0118373,-0.3335986,1.0085519,-0.072
 675,-0.0162643,-0.2411924,0.3004556,0.0297393,0.0740105,0.0685424,0.33
 04471,-0.0843923,-0.0094899,0.0106712,0.0480612,0.0063389,-0.0470175,0
 .0145295,-0.0920227,-0.0482273,-0.0482806,-0.0307689,-0.0183111,-0.059
 1806,-0.0349198,-0.0735985,-0.0200848,-0.0433888,0.0469766,-0.019642,-
 0.0229535,0.0624766,0.0665342,0.0247591,0.0648034,0.0015768,0.0301998,
 -0.0391977,-0.0975787,0.0617322,-0.0195656,0.0733178,0.0765686,-0.0011
 882,-0.0212357,0.015806,0.0545424,0.0875832,0.0158639,0.0015893,-0.007
 7104,-0.0147674,0.0881724,0.0341433,0.0455962,-0.0398896,0.0482412,-0.
 0816169,-0.0321216,-0.061347,0.002933,-0.0461474,-0.0074254,-0.0197304
 ,0.0382931\Polar=101.96582,2.4026135,66.8404712,3.1030044,-2.1755477,5
 0.7309866\Quadrupole=0.6255835,-0.6194601,-0.0061235,-4.0248308,0.8463
 31,-0.1398576\PG=C01 [X(C5H7O3)]\NImag=1\\0.38265201,-0.25059770,0.226
 55923,0.09272602,-0.06870856,0.05691366,-0.31641268,0.24261444,-0.0860
 9500,0.30579656,0.20673230,-0.22017022,0.06652738,-0.22263854,0.239259
 85,-0.07969871,0.07143895,-0.02781735,0.08094071,-0.07190534,0.0291534
 6,-0.03162887,0.08309496,-0.01321237,0.01105384,0.02135155,-0.00203737
 ,0.84694205,0.07109617,0.03836585,-0.00486972,-0.01389193,-0.01446358,
 0.00031172,-0.32805846,0.17909393,-0.01122255,-0.00336995,-0.04417654,
 0.00426592,0.00515185,-0.00231446,0.15770261,-0.05577715,0.14569955,0.
 00628063,-0.01496623,0.00290050,-0.00185285,-0.00323807,0.00008935,-0.
 19655925,0.16474840,-0.05122171,0.20939413,0.00852319,-0.02186192,0.00
 587050,-0.00390175,-0.00378825,0.00044676,0.16786111,-0.17475586,0.047
 64086,-0.15767515,0.19447682,-0.00124422,0.00273202,0.00395175,0.00020
 778,0.00053772,0.00166183,-0.05177763,0.04724479,-0.04893088,0.0536496
 5,-0.05240708,0.03534497,-0.04568916,-0.07143734,0.00481216,-0.0014602
 4,-0.00091203,0.00000118,-0.60612469,0.10630836,-0.09620808,-0.0173324
 9,-0.01439305,-0.00015508,0.92643688,-0.04007465,-0.02616373,0.0014507
 9,-0.00110571,0.00051152,-0.00022755,0.07862537,-0.02599365,0.00897717
 ,0.00929775,0.00481207,0.00081356,-0.14744618,0.16122949,-0.00065889,-
 0.00271516,0.01288788,0.00001771,-0.00025609,-0.00006885,-0.09150623,0
 .01255062,-0.05092018,-0.00431835,-0.00231239,0.00244319,0.14484295,-0
 .03943261,0.07904316,0.01101905,0.01908495,-0.00150644,0.00130092,-0.0
 0401348,0.00076821,-0.02987620,-0.00648257,-0.00277953,0.00089911,0.00
 067065,-0.00108488,-0.18482223,0.07895162,-0.02976764,0.60958121,0.002
 30018,-0.00850490,0.00142374,-0.00864694,0.00071605,-0.00129112,-0.008
 52719,0.01020837,-0.00324766,0.00035644,0.00010578,0.00148502,0.080903
 12,-0.07677108,0.01238372,-0.02196169,0.94768793,0.00142307,0.00359282
 ,-0.00308873,0.00163361,-0.00057330,0.00078139,-0.00234365,-0.00282026
 ,-0.00107327,-0.00105770,0.00150602,0.00778170,-0.03015002,0.01225635,
 -0.07420482,0.05906274,-0.13479969,0.23917656,-0.00382936,-0.00412751,
 0.00001512,0.00108207,0.00169624,0.00007241,0.00698850,0.00155716,0.00
 060879,-0.00056170,-0.00044179,0.00020205,-0.00557434,0.03548301,-0.00
 998406,-0.10821735,0.04940577,-0.01340731,0.10416969,0.00319547,0.0114
 1491,-0.00141004,0.00561541,-0.00212226,0.00091290,-0.01769032,-0.0111
 8314,-0.00025983,0.00131818,0.00103507,-0.00027071,0.04773937,-0.04723
 537,0.01858819,0.02415911,-0.71290817,0.11615979,-0.01657250,0.8432713
 3,-0.00122623,-0.00237207,0.00151537,-0.00067047,0.00034139,-0.0015930
 4,0.00398221,0.00236472,0.00080148,-0.00010366,-0.00050705,-0.00141500
 ,-0.01218609,0.01685902,0.01607885,-0.00818053,0.12118256,-0.10037240,
 0.01301523,-0.14617177,0.06094924,-0.00331209,-0.00466997,0.00037137,0
 .00084687,0.00134276,-0.00012404,0.00101680,0.00570453,-0.00100704,-0.
 00026045,-0.00074614,0.00019927,-0.06593934,-0.01177163,-0.00883417,-0
 .24268092,-0.10144455,-0.00351105,0.00382331,-0.05738705,0.00443551,0.
 53899202,-0.00104691,0.00065085,-0.00029558,0.00184620,-0.00012115,0.0
 0032823,0.00375233,-0.00212214,0.00104997,0.00023992,0.00005345,-0.000
 07546,0.00345769,0.01079617,0.00065452,-0.07341621,-0.17776150,0.01012
 877,-0.06129162,-0.07869926,0.01036094,0.06967855,0.36906039,-0.000253
 59,-0.00076400,-0.00006203,-0.00022669,0.00023728,0.00014377,-0.000530
 17,0.00122827,0.00083301,0.00000652,-0.00019265,-0.00045774,-0.0107766
 6,-0.00149332,0.00905534,-0.01075839,0.00547321,-0.06933791,0.00659411
 ,0.01130585,0.02913062,0.04654819,-0.04032111,0.09761950,0.00140758,0.
 00188385,-0.00007750,-0.00038760,-0.00053282,-0.00001379,-0.00218329,-
 0.00208792,0.00004740,0.00003887,0.00022481,-0.00005647,0.00345576,-0.
 00132546,0.00081366,-0.06320973,-0.01262946,-0.00879441,0.00436813,0.0
 1695623,-0.00201478,-0.15114734,0.03139658,-0.02032288,0.48332369,-0.0
 0031229,-0.00052649,0.00005187,0.00011713,0.00021094,-0.00005669,-0.00
 027004,0.00120655,-0.00017697,-0.00013102,-0.00011826,-0.00005845,-0.0
 0593141,-0.00146102,0.00006467,-0.01329937,0.02600275,-0.00667051,-0.0
 0281904,-0.00833768,0.00001286,0.05303002,-0.11749961,0.01969770,0.100
 05398,0.59953510,0.00021403,0.00029826,-0.00015742,-0.00004653,-0.0000
 6542,0.00009554,-0.00035457,-0.00040363,0.00010370,0.00005394,-0.00002
 520,-0.00039071,-0.00005831,0.00092703,0.00600290,-0.00876777,-0.00940
 853,0.00054472,-0.00042791,0.00363928,-0.00624332,-0.02406476,0.017774
 51,-0.07341268,0.00547981,-0.02429244,0.56015720,-0.00024207,-0.000417
 15,0.00005651,0.00002323,0.00010513,-0.00001348,0.00029336,0.00046817,
 -0.00011831,-0.00002407,-0.00003179,0.00012976,-0.00086942,-0.00034317
 ,-0.00152107,0.00326871,0.00735636,0.00198174,-0.00003531,-0.00249133,
 0.00111981,-0.03381197,0.02200529,0.02783596,-0.08581641,0.00865825,0.
 02833485,0.57337638,0.00011633,0.00008234,-0.00002897,-0.00005708,-0.0
 0002236,0.00004178,-0.00011307,-0.00010101,-0.00002657,0.00001795,0.00
 001366,-0.00003413,0.00052885,0.00006316,0.00071051,-0.00188343,0.0003
 3009,0.00035528,0.00138810,0.00012078,-0.00173500,0.01630387,-0.008166
 37,-0.01039257,0.01171575,-0.10686186,-0.04691241,0.01852728,0.5700078
 9,-0.00009945,-0.00018550,0.00002831,0.00000315,0.00003954,-0.00002759
 ,0.00003553,0.00023166,-0.00002064,-0.00000582,-0.00001651,0.00005759,
 -0.00006863,-0.00024937,-0.00065027,0.00193441,0.00455172,0.00042763,0
 .00080184,-0.00236659,-0.00020344,-0.00495287,0.00190474,0.01065504,0.
 03929407,-0.05131849,-0.18352300,0.03167236,-0.03422497,0.52628447,-0.
 00017179,-0.00025484,0.00001707,0.00003369,0.00007642,-0.00000487,-0.0
 0003066,0.00041048,-0.00003837,-0.00003034,-0.00005878,-0.00002288,-0.
 00160653,-0.00040052,0.00015744,-0.00120170,0.00547053,-0.00296341,0.0
 0056970,-0.00121531,0.00034074,-0.03637999,-0.02172120,-0.00951700,-0.
 12977802,-0.11692002,-0.04144081,0.00999469,0.01080372,0.00379115,0.15
 834598,-0.00001943,0.00002666,0.00001123,0.00002647,-0.00000774,-0.000
 01580,0.00013407,-0.00014231,0.00003350,0.00001607,0.00001584,0.000029
 87,0.00065789,0.00024011,-0.00034744,0.00235816,-0.00332875,0.00158348
 ,-0.00141486,0.00176336,-0.00072011,0.01752509,0.01342100,0.00621496,-
 0.13013881,-0.22238943,-0.05992509,-0.00697738,-0.00996492,-0.00311584
 ,0.12628678,0.23247734,0.00001158,-0.00000864,0.00000636,-0.00001969,-
 0.00000841,-0.00000690,-0.00005087,0.00006226,-0.00002668,-0.00000449,
 -0.00001295,-0.00002187,-0.00036491,-0.00004666,0.00022452,0.00057919,
 0.00314285,-0.00075312,0.00141862,-0.00090405,0.00082838,-0.00860268,-
 0.00472039,-0.00126104,-0.04193093,-0.05640640,-0.07378248,-0.01528646
 ,-0.02307488,-0.00804687,0.04772816,0.06526537,0.07573625,-0.00008918,
 -0.00021771,0.00002047,-0.00002979,0.00003191,-0.00000819,0.00014436,0
 .00024193,-0.00005068,0.00001645,-0.00003363,-0.00006115,-0.00046032,0
 .00010088,0.00101488,0.00375308,0.00690669,-0.00222898,-0.00100731,-0.
 00349980,0.00019756,-0.01358877,0.02631870,-0.02945635,-0.05458551,-0.
 02907045,0.03104884,0.00007267,-0.00864212,0.00941496,0.00000152,-0.01
 049957,0.01432590,0.06566035,0.00014311,0.00017092,-0.00003365,-0.0000
 2273,-0.00003008,0.00003310,-0.00022500,-0.00015713,-0.00002937,0.0000
 1593,0.00002131,-0.00000258,0.00049374,-0.00013080,0.00034193,-0.00369
 752,-0.00148917,-0.00024813,-0.00128895,0.00066682,-0.00110943,0.01011
 051,-0.01106399,0.01043000,-0.02055463,-0.16373308,0.13216090,0.001181
 43,0.01218998,-0.01383095,-0.00283662,-0.01331500,0.01780735,0.0161360
 0,0.17695215,0.00002587,0.00000274,0.00000577,-0.00003359,-0.00000641,
 -0.00001167,-0.00000489,-0.00000326,0.00000704,0.00000147,0.00000332,-
 0.00000340,-0.00004070,-0.00015075,-0.00006839,0.00163454,0.00418636,0
 .00020576,0.00154251,-0.00200265,0.00066622,-0.00671684,0.00398920,-0.
 00300091,0.02262283,0.12985931,-0.20467991,0.00440209,0.01685346,-0.02
 009327,0.00007470,-0.00678654,0.00932903,-0.02519770,-0.14335544,0.219
 31416,-0.00011460,-0.00017011,0.00002602,0.00002941,0.00005050,-0.0000
 1932,0.00016968,0.00016955,-0.00000779,0.00000181,-0.00002182,0.000013
 33,-0.00030954,0.00001985,-0.00026612,0.00174929,0.00067358,-0.0001575
 1,-0.00037150,-0.00024527,0.00048834,-0.00089356,0.00069177,0.00272018
 ,-0.01070987,0.00224624,-0.00470390,-0.27629672,0.08742790,-0.04756207
 ,0.00036843,0.00023324,0.00017706,0.00012248,-0.00030558,0.00033321,0.
 29857847,0.00005312,0.00008293,-0.00000585,0.00000028,-0.00001535,-0.0
 0000468,-0.00007231,-0.00007970,0.00002764,0.00000121,0.00000794,-0.00
 001030,0.00021327,0.00004233,0.00007757,-0.00124306,-0.00253074,-0.000
 30000,-0.00035301,0.00113483,0.00033886,0.00405839,-0.00034800,-0.0032
 6373,0.01178805,-0.00556602,0.00582814,0.08650219,-0.07858803,0.017012
 35,-0.00050515,-0.00005417,0.00041232,-0.00011166,0.00041657,-0.000009
 43,-0.09645473,0.08216794,0.00006107,0.00012060,0.00000373,-0.00000158
 ,-0.00002684,-0.00001021,-0.00002079,-0.00015239,0.00001126,0.00001177
 ,0.00000912,-0.00003583,0.00029301,0.00015580,0.00043070,-0.00131939,-
 0.00258924,-0.00042079,-0.00002845,0.00113788,-0.00016773,0.00659183,-
 0.00335442,-0.00458231,0.02365995,-0.00705316,0.00849326,-0.04928918,0
 .01811199,-0.05804830,-0.00080802,-0.00002213,0.00102531,-0.00039649,0
 .00113757,0.00054032,0.05158930,-0.01817240,0.05933837,0.00003286,0.00
 006337,-0.00002631,0.00001081,-0.00001888,0.00001341,-0.00007232,-0.00
 006241,0.00000959,-0.00000688,0.00000768,0.00000783,0.00006182,0.00004
 381,-0.00002913,-0.00087615,-0.00147562,0.00028245,-0.00035859,0.00087
 091,0.00006056,0.00198105,-0.00081135,-0.00069236,-0.00270118,-0.00753
 432,0.01054192,-0.04797764,-0.01121659,0.01006765,0.00019653,0.0002244
 3,-0.00079934,-0.00019894,0.00126830,0.00214158,0.00339331,0.01940695,
 -0.02323082,0.04728987,-0.00003815,-0.00003862,-0.00002325,0.00001396,
 0.00000262,0.00001816,0.00004436,0.00002795,0.00000781,-0.00000452,-0.
 00000191,0.00001242,-0.00010048,0.00006862,-0.00013014,0.00030503,-0.0
 0025848,0.00034197,-0.00038212,0.00033318,0.00024290,-0.00196722,0.000
 85504,0.00067881,0.00164168,0.01154190,-0.01464217,-0.01106410,-0.1680
 8318,0.13640867,-0.00044939,0.00093656,0.00069277,0.00189520,-0.001119
 75,-0.00302355,-0.00162358,-0.00742828,0.00679245,0.01071563,0.1778338
 2,0.00001056,0.00001697,0.00000891,-0.00000783,-0.00000556,-0.00000761
 ,0.00001616,-0.00003440,0.00000511,0.00000259,0.00000599,-0.00000283,0
 .00010254,0.00000978,-0.00002422,0.00020156,0.00037108,-0.00016120,-0.
 00005506,-0.00023151,0.00019178,-0.00124760,0.00009756,0.00285250,0.00
 105056,0.01962434,-0.02387840,0.01153710,0.13355375,-0.20017880,-0.000
 42809,-0.00000089,0.00087973,0.00196325,-0.00368952,-0.00318355,0.0003
 2174,0.00237689,-0.00389274,-0.01392187,-0.14562679,0.21947264,0.00009
 767,0.00011698,-0.00002759,-0.00003425,-0.00003298,0.00003451,-0.00013
 332,-0.00012147,0.00001973,-0.00000298,0.00001645,-0.00000736,0.000233
 82,-0.00005497,0.00003902,-0.00068710,0.00131277,0.00023044,-0.0010459
 5,-0.00075311,0.00074182,0.00135438,-0.00109976,-0.00117087,0.00792493
 ,0.01218233,0.00419116,-0.14195544,-0.12491746,-0.04432627,-0.00031151
 ,0.00158786,0.00281887,0.00018889,-0.00041799,-0.00078507,-0.01571711,
 -0.02328354,-0.00711222,-0.00077454,0.00101369,0.00045438,0.15086251,-
 0.00007074,-0.00008782,0.00004012,0.00003078,0.00004000,-0.00003043,0.
 00009265,0.00009587,-0.00000131,0.00000314,-0.00001575,0.00000329,-0.0
 0008181,-0.00000781,-0.00017791,0.00046778,-0.00149818,-0.00051260,-0.
 00083888,0.00074560,0.00091220,0.00023283,0.00094513,0.00116128,-0.008
 39183,-0.01200381,-0.00495325,-0.12347919,-0.21102018,-0.05484043,0.00
 131391,0.00032145,-0.00220052,0.00044361,0.00062125,0.00044363,0.00730
 846,0.01075772,0.00390517,-0.01148190,-0.01466947,-0.00646768,0.134451
 19,0.22577599,-0.00006856,-0.00007849,-0.00001968,0.00003249,0.0000122
 1,0.00002170,0.00010205,0.00006675,0.00000150,-0.00000407,-0.00000873,
 0.00001724,-0.00004335,0.00015076,-0.00022982,-0.00001607,-0.00286402,
 0.00049448,-0.00036788,0.00187327,-0.00016702,0.00091486,0.00247853,0.
 00182486,-0.01975750,-0.02327765,-0.00932940,-0.04084169,-0.05319727,-
 0.06666084,0.00311421,-0.00220457,-0.00413064,-0.00058632,0.00038822,0
 .00097279,-0.00295248,-0.00430739,-0.00268504,0.01557484,0.01824995,0.
 00791868,0.04489944,0.06271842,0.07197120\\0.03216221,0.06693787,-0.00
 758215,0.00010386,0.00215075,-0.00037393,-0.03089066,-0.08124517,0.010
 28772,0.00281664,-0.00077571,0.00050521,0.00063835,0.01537616,-0.00262
 608,-0.00389769,0.00037082,-0.00056102,-0.00096515,-0.00153877,0.00013
 997,0.00030940,-0.00107497,0.00024890,-0.00043292,-0.00007869,-0.00002
 346,0.00011590,-0.00004924,0.00001393,0.00001201,-0.00003020,0.0000001
 2,0.00004764,-0.00004138,-0.00001130,0.00001676,-0.00001572,-0.0000300
 0,-0.00001617,0.00000157,0.00000146,-0.00002017,0.00001269,0.00001063\
 \\@


 PATIENCE IS THE ABILITY TO IDLE YOUR MOTOR WHEN
 YOU FEEL LIKE STRIPPING YOUR GEARS.
 Job cpu time:       0 days  0 hours 54 minutes 37.5 seconds.
 Elapsed time:       0 days  0 hours  2 minutes 16.6 seconds.
 File lengths (MBytes):  RWF=    153 Int=      0 D2E=      0 Chk=      9 Scr=      1
 Normal termination of Gaussian 16 at Mon Jun 23 03:27:40 2025.
