 Entering Gaussian System, Link 0=g16
 Initial command:
 /opt/g16/l1.exe "/home/aayush/scratches/g16/Gau-58591.inp" -scrdir="/home/aayush/scratches/g16/"
 Entering Link 1 = /opt/g16/l1.exe PID=     58594.
  
 Copyright (c) 1988,1990,1992,1993,1995,1998,2003,2009,2016,
            Gaussian, Inc.  All Rights Reserved.
  
 This is part of the Gaussian(R) 16 program.  It is based on
 the Gaussian(R) 09 system (copyright 2009, Gaussian, Inc.),
 the Gaussian(R) 03 system (copyright 2003, Gaussian, Inc.),
 the Gaussian(R) 98 system (copyright 1998, Gaussian, Inc.),
 the Gaussian(R) 94 system (copyright 1995, Gaussian, Inc.),
 the Gaussian 92(TM) system (copyright 1992, Gaussian, Inc.),
 the Gaussian 90(TM) system (copyright 1990, Gaussian, Inc.),
 the Gaussian 88(TM) system (copyright 1988, Gaussian, Inc.),
 the Gaussian 86(TM) system (copyright 1986, Carnegie Mellon
 University), and the Gaussian 82(TM) system (copyright 1983,
 Carnegie Mellon University). Gaussian is a federally registered
 trademark of Gaussian, Inc.
  
 This software contains proprietary and confidential information,
 including trade secrets, belonging to Gaussian, Inc.
  
 This software is provided under written license and may be
 used, copied, transmitted, or stored only in accord with that
 written license.
  
 The following legend is applicable only to US Government
 contracts under FAR:
  
                    RESTRICTED RIGHTS LEGEND
  
 Use, reproduction and disclosure by the US Government is
 subject to restrictions as set forth in subparagraphs (a)
 and (c) of the Commercial Computer Software - Restricted
 Rights clause in FAR 52.227-19.
  
 Gaussian, Inc.
 340 Quinnipiac St., Bldg. 40, Wallingford CT 06492
  
  
 ---------------------------------------------------------------
 Warning -- This program may not be used in any manner that
 competes with the business of Gaussian, Inc. or will provide
 assistance to any competitor of Gaussian, Inc.  The licensee
 of this program is prohibited from giving any competitor of
 Gaussian, Inc. access to this program.  By using this program,
 the user acknowledges that Gaussian, Inc. is engaged in the
 business of creating and licensing software in the field of
 computational chemistry and represents and warrants to the
 licensee that it is not a competitor of Gaussian, Inc. and that
 it will not use this program in any manner prohibited above.
 ---------------------------------------------------------------
  

 Cite this work as:
 Gaussian 16, Revision A.03,
 M. J. Frisch, G. W. Trucks, H. B. Schlegel, G. E. Scuseria, 
 M. A. Robb, J. R. Cheeseman, G. Scalmani, V. Barone, 
 G. A. Petersson, H. Nakatsuji, X. Li, M. Caricato, A. V. Marenich, 
 J. Bloino, B. G. Janesko, R. Gomperts, B. Mennucci, H. P. Hratchian, 
 J. V. Ortiz, A. F. Izmaylov, J. L. Sonnenberg, D. Williams-Young, 
 F. Ding, F. Lipparini, F. Egidi, J. Goings, B. Peng, A. Petrone, 
 T. Henderson, D. Ranasinghe, V. G. Zakrzewski, J. Gao, N. Rega, 
 G. Zheng, W. Liang, M. Hada, M. Ehara, K. Toyota, R. Fukuda, 
 J. Hasegawa, M. Ishida, T. Nakajima, Y. Honda, O. Kitao, H. Nakai, 
 T. Vreven, K. Throssell, J. A. Montgomery, Jr., J. E. Peralta, 
 F. Ogliaro, M. J. Bearpark, J. J. Heyd, E. N. Brothers, K. N. Kudin, 
 V. N. Staroverov, T. A. Keith, R. Kobayashi, J. Normand, 
 K. Raghavachari, A. P. Rendell, J. C. Burant, S. S. Iyengar, 
 J. Tomasi, M. Cossi, J. M. Millam, M. Klene, C. Adamo, R. Cammi, 
 J. W. Ochterski, R. L. Martin, K. Morokuma, O. Farkas, 
 J. B. Foresman, and D. J. Fox, Gaussian, Inc., Wallingford CT, 2016.
 
 ******************************************
 Gaussian 16:  ES64L-G16RevA.03 25-Dec-2016
                16-Aug-2025 
 ******************************************
 %chk=ethyl_propiolate.chk
 %nprocshared=24
 Will use up to   24 processors via shared memory.
 %mem=12GB
 --------------------------
 # freq 6-311++g(d,p) m062x
 --------------------------
 1/10=4,30=1,38=1/1,3;
 2/12=2,17=6,18=5,40=1/2;
 3/5=4,6=6,7=1111,11=2,25=1,30=1,71=2,74=-55,140=1/1,2,3;
 4//1;
 5/5=2,38=5,98=1/2;
 8/6=4,10=90,11=11/1;
 11/6=1,8=1,9=11,15=111,16=1/1,2,10;
 10/6=1/2;
 6/7=2,8=2,9=2,10=2,28=1/1;
 7/8=1,10=1,25=1/1,2,3,16;
 1/10=4,30=1/3;
 99//99;
 -------------------
 Title Card Required
 -------------------
 Symbolic Z-matrix:
 Charge =  0 Multiplicity = 2
 O                     3.32145   0.90035   0.11045 
 H                     2.51798   1.41572  -0.08358 
 C                     2.27551  -1.12197   0.30024 
 H                     3.2431   -1.52157   0.49485 
 C                     1.1571   -0.73727   0.08768 
 C                    -0.08314  -0.03501  -0.19336 
 O                    -0.11199   1.1524   -0.39056 
 O                    -1.13197  -0.84727  -0.20797 
 C                    -2.41326  -0.23263  -0.46498 
 C                    -2.95904   0.42792   0.78523 
 H                    -3.04014  -1.06005  -0.79166 
 H                    -2.29848   0.48285  -1.27988 
 H                    -3.95894   0.81718   0.58446 
 H                    -3.02681  -0.29511   1.5993 
 H                    -2.32273   1.25782   1.09292 
 

 GradGradGradGradGradGradGradGradGradGradGradGradGradGradGradGradGradGrad
 Berny optimization.
 Initialization pass.
 Trust Radius=3.00D-01 FncErr=1.00D-07 GrdErr=1.00D-07 EigMax=2.50D+02 EigMin=1.00D-04
 Number of steps in this run=      2 maximum allowed number of steps=      2.
 GradGradGradGradGradGradGradGradGradGradGradGradGradGradGradGradGradGrad

                          Input orientation:                          
 ---------------------------------------------------------------------
 Center     Atomic      Atomic             Coordinates (Angstroms)
 Number     Number       Type             X           Y           Z
 ---------------------------------------------------------------------
      1          8           0        3.321449    0.900353    0.110451
      2          1           0        2.517983    1.415722   -0.083577
      3          6           0        2.275509   -1.121966    0.300236
      4          1           0        3.243102   -1.521566    0.494853
      5          6           0        1.157102   -0.737269    0.087684
      6          6           0       -0.083141   -0.035009   -0.193362
      7          8           0       -0.111992    1.152402   -0.390559
      8          8           0       -1.131971   -0.847273   -0.207968
      9          6           0       -2.413255   -0.232625   -0.464979
     10          6           0       -2.959038    0.427922    0.785228
     11          1           0       -3.040137   -1.060046   -0.791657
     12          1           0       -2.298477    0.482849   -1.279881
     13          1           0       -3.958941    0.817178    0.584463
     14          1           0       -3.026806   -0.295111    1.599299
     15          1           0       -2.322725    1.257823    1.092921
 ---------------------------------------------------------------------
                    Distance matrix (angstroms):
                    1          2          3          4          5
     1  O    0.000000
     2  H    0.974069   0.000000
     3  C    2.284684   2.577977   0.000000
     4  H    2.453486   3.080266   1.064797   0.000000
     5  C    2.714171   2.552782   1.201667   2.265459   0.000000
     6  C    3.543789   2.980356   2.643548   3.707746   1.452707
     7  O    3.478945   2.660892   3.368992   4.380721   2.325978
     8  O    4.794636   4.296369   3.456103   4.482175   2.310707
     9  C    5.873805   5.213408   4.833321   5.880223   3.647952
    10  C    6.334274   5.632791   5.480680   6.507792   4.334380
    11  H    6.717644   6.125643   5.426984   6.430179   4.300493
    12  H    5.804386   5.049721   5.098387   6.154385   3.911515
    13  H    7.296279   6.538737   6.535245   7.572792   5.370008
    14  H    6.629189   6.041830   5.521395   6.483497   4.470522
    15  H    5.740186   4.984128   5.237891   6.249889   4.135225
                    6          7          8          9         10
     6  C    0.000000
     7  O    1.204020   0.000000
     8  O    1.326661   2.252198   0.000000
     9  C    2.354200   2.686941   1.444138   0.000000
    10  C    3.072902   3.164335   2.439413   1.515658   0.000000
    11  H    3.186296   3.691861   2.006754   1.088267   2.169606
    12  H    2.521193   2.453551   2.068564   1.090478   2.168878
    13  H    4.043892   3.982720   3.374923   2.143026   1.091619
    14  H    3.456364   3.814573   2.676097   2.154436   1.090908
    15  H    2.888196   2.664426   2.746204   2.157935   1.090094
                   11         12         13         14         15
    11  H    0.000000
    12  H    1.780154   0.000000
    13  H    2.502374   2.518868   0.000000
    14  H    2.510373   3.070075   1.770863   0.000000
    15  H    3.072268   2.496270   1.769152   1.778694   0.000000
 Stoichiometry    C5H7O3(2)
 Framework group  C1[X(C5H7O3)]
 Deg. of freedom    39
 Full point group                 C1      NOp   1
 Largest Abelian subgroup         C1      NOp   1
 Largest concise Abelian subgroup C1      NOp   1
                         Standard orientation:                         
 ---------------------------------------------------------------------
 Center     Atomic      Atomic             Coordinates (Angstroms)
 Number     Number       Type             X           Y           Z
 ---------------------------------------------------------------------
      1          8           0        3.398778    0.870018    0.110199
      2          1           0        2.598457    1.392580   -0.077481
      3          6           0        2.340846   -1.148377    0.273427
      4          1           0        3.305973   -1.556159    0.463257
      5          6           0        1.224828   -0.754376    0.065410
      6          6           0       -0.011120   -0.041241   -0.207043
      7          8           0       -0.032877    1.148767   -0.388899
      8          8           0       -1.064712   -0.847047   -0.232561
      9          6           0       -2.342228   -0.221583   -0.482129
     10          6           0       -2.884707    0.425974    0.776284
     11          1           0       -2.973819   -1.041004   -0.819719
     12          1           0       -2.222844    0.503664   -1.287676
     13          1           0       -3.882202    0.823682    0.580160
     14          1           0       -2.957126   -0.307099    1.580922
     15          1           0       -2.243662    1.248064    1.094927
 ---------------------------------------------------------------------
 Rotational constants (GHZ):           5.0676324           0.9460924           0.8554181
 Standard basis: 6-311++G(d,p) (5D, 7F)
 There are   233 symmetry adapted cartesian basis functions of A   symmetry.
 There are   225 symmetry adapted basis functions of A   symmetry.
   225 basis functions,   351 primitive gaussians,   233 cartesian basis functions
    31 alpha electrons       30 beta electrons
       nuclear repulsion energy       347.3241353207 Hartrees.
 NAtoms=   15 NActive=   15 NUniq=   15 SFac= 1.00D+00 NAtFMM=   60 NAOKFM=F Big=F
 Integral buffers will be    131072 words long.
 Raffenetti 2 integral format.
 Two-electron integral symmetry is turned on.
 One-electron integrals computed using PRISM.
 NBasis=   225 RedAO= T EigKep=  1.14D-06  NBF=   225
 NBsUse=   225 1.00D-06 EigRej= -1.00D+00 NBFU=   225
 ExpMin= 3.60D-02 ExpMax= 8.59D+03 ExpMxC= 1.30D+03 IAcc=3 IRadAn=         5 AccDes= 0.00D+00
 Harris functional with IExCor= 1009 and IRadAn=       5 diagonalized for initial guess.
 HarFok:  IExCor= 1009 AccDes= 0.00D+00 IRadAn=         5 IDoV= 1 UseB2=F ITyADJ=14
 ICtDFT=  3500011 ScaDFX=  1.000000  1.000000  1.000000  1.000000
 FoFCou: FMM=F IPFlag=           0 FMFlag=      100000 FMFlg1=           0
         NFxFlg=           0 DoJE=T BraDBF=F KetDBF=T FulRan=T
         wScrn=  0.000000 ICntrl=       500 IOpCl=  0 I1Cent=   200000004 NGrid=           0
         NMat0=    1 NMatS0=      1 NMatT0=    0 NMatD0=    1 NMtDS0=    0 NMtDT0=    0
 Petite list used in FoFCou.
 Initial guess <Sx>= 0.0000 <Sy>= 0.0000 <Sz>= 0.5000 <S**2>= 0.7500 S= 0.5000
 Requested convergence on RMS density matrix=1.00D-08 within 128 cycles.
 Requested convergence on MAX density matrix=1.00D-06.
 Requested convergence on             energy=1.00D-06.
 No special actions if energy rises.
 Restarting incremental Fock formation.
 SCF Done:  E(UM062X) =  -420.210000132     A.U. after   24 cycles
            NFock= 24  Conv=0.31D-08     -V/T= 2.0032
 <Sx>= 0.0000 <Sy>= 0.0000 <Sz>= 0.5000 <S**2>= 0.7572 S= 0.5036
 <L.S>=  0.00000000000    
 Annihilation of the first spin contaminant:
 S**2 before annihilation     0.7572,   after     0.7500
 DoSCS=F DFT=T ScalE2(SS,OS)=  1.000000  1.000000
 Range of M.O.s used for correlation:     1   225
 NBasis=   225 NAE=    31 NBE=    30 NFC=     0 NFV=     0
 NROrb=    225 NOA=    31 NOB=    30 NVA=   194 NVB=   195

 **** Warning!!: The largest alpha MO coefficient is  0.21528116D+03


 **** Warning!!: The largest beta MO coefficient is  0.26147862D+03

 Symmetrizing basis deriv contribution to polar:
 IMax=3 JMax=2 DiffMx= 0.00D+00
 G2DrvN: will do    16 centers at a time, making    1 passes.
 Calling FoFCou, ICntrl=  3107 FMM=F I1Cent=   0 AccDes= 0.00D+00.
 End of G2Drv F.D. properties file   721 does not exist.
 End of G2Drv F.D. properties file   722 does not exist.
 End of G2Drv F.D. properties file   788 does not exist.
          IDoAtm=111111111111111
          Differentiating once with respect to electric field.
                with respect to dipole field.
          Differentiating once with respect to nuclear coordinates.
 Keep R1 and R2 ints in memory in canonical form, NReq=671901991.
          There are    48 degrees of freedom in the 1st order CPHF.  IDoFFX=6 NUNeed=     3.
     45 vectors produced by pass  0 Test12= 2.47D-14 2.08D-09 XBig12= 1.00D+02 3.56D+00.
 AX will form    45 AO Fock derivatives at one time.
     45 vectors produced by pass  1 Test12= 2.47D-14 2.08D-09 XBig12= 2.26D+01 9.45D-01.
     45 vectors produced by pass  2 Test12= 2.47D-14 2.08D-09 XBig12= 8.18D-01 1.27D-01.
     45 vectors produced by pass  3 Test12= 2.47D-14 2.08D-09 XBig12= 1.04D-02 1.99D-02.
     45 vectors produced by pass  4 Test12= 2.47D-14 2.08D-09 XBig12= 1.09D-04 1.40D-03.
     45 vectors produced by pass  5 Test12= 2.47D-14 2.08D-09 XBig12= 1.43D-06 1.49D-04.
     37 vectors produced by pass  6 Test12= 2.47D-14 2.08D-09 XBig12= 1.07D-08 8.85D-06.
     22 vectors produced by pass  7 Test12= 2.47D-14 2.08D-09 XBig12= 5.48D-11 5.93D-07.
      4 vectors produced by pass  8 Test12= 2.47D-14 2.08D-09 XBig12= 3.34D-13 5.30D-08.
      2 vectors produced by pass  9 Test12= 2.47D-14 2.08D-09 XBig12= 4.56D-15 7.05D-09.
      2 vectors produced by pass 10 Test12= 2.47D-14 2.08D-09 XBig12= 5.63D-16 2.92D-09.
      1 vectors produced by pass 11 Test12= 2.47D-14 2.08D-09 XBig12= 4.80D-16 3.67D-09.
 InvSVY:  IOpt=1 It=  1 EMax= 5.33D-15
 Solved reduced A of dimension   338 with    48 vectors.
 Isotropic polarizability for W=    0.000000       71.44 Bohr**3.
 End of Minotr F.D. properties file   721 does not exist.
 End of Minotr F.D. properties file   722 does not exist.
 End of Minotr F.D. properties file   788 does not exist.

 **********************************************************************

            Population analysis using the SCF density.

 **********************************************************************

 Orbital symmetries:
 Alpha Orbitals:
       Occupied  (A) (A) (A) (A) (A) (A) (A) (A) (A) (A) (A) (A)
                 (A) (A) (A) (A) (A) (A) (A) (A) (A) (A) (A) (A)
                 (A) (A) (A) (A) (A) (A) (A)
       Virtual   (A) (A) (A) (A) (A) (A) (A) (A) (A) (A) (A) (A)
                 (A) (A) (A) (A) (A) (A) (A) (A) (A) (A) (A) (A)
                 (A) (A) (A) (A) (A) (A) (A) (A) (A) (A) (A) (A)
                 (A) (A) (A) (A) (A) (A) (A) (A) (A) (A) (A) (A)
                 (A) (A) (A) (A) (A) (A) (A) (A) (A) (A) (A) (A)
                 (A) (A) (A) (A) (A) (A) (A) (A) (A) (A) (A) (A)
                 (A) (A) (A) (A) (A) (A) (A) (A) (A) (A) (A) (A)
                 (A) (A) (A) (A) (A) (A) (A) (A) (A) (A) (A) (A)
                 (A) (A) (A) (A) (A) (A) (A) (A) (A) (A) (A) (A)
                 (A) (A) (A) (A) (A) (A) (A) (A) (A) (A) (A) (A)
                 (A) (A) (A) (A) (A) (A) (A) (A) (A) (A) (A) (A)
                 (A) (A) (A) (A) (A) (A) (A) (A) (A) (A) (A) (A)
                 (A) (A) (A) (A) (A) (A) (A) (A) (A) (A) (A) (A)
                 (A) (A) (A) (A) (A) (A) (A) (A) (A) (A) (A) (A)
                 (A) (A) (A) (A) (A) (A) (A) (A) (A) (A) (A) (A)
                 (A) (A) (A) (A) (A) (A) (A) (A) (A) (A) (A) (A)
                 (A) (A)
 Beta  Orbitals:
       Occupied  (A) (A) (A) (A) (A) (A) (A) (A) (A) (A) (A) (A)
                 (A) (A) (A) (A) (A) (A) (A) (A) (A) (A) (A) (A)
                 (A) (A) (A) (A) (A) (A)
       Virtual   (A) (A) (A) (A) (A) (A) (A) (A) (A) (A) (A) (A)
                 (A) (A) (A) (A) (A) (A) (A) (A) (A) (A) (A) (A)
                 (A) (A) (A) (A) (A) (A) (A) (A) (A) (A) (A) (A)
                 (A) (A) (A) (A) (A) (A) (A) (A) (A) (A) (A) (A)
                 (A) (A) (A) (A) (A) (A) (A) (A) (A) (A) (A) (A)
                 (A) (A) (A) (A) (A) (A) (A) (A) (A) (A) (A) (A)
                 (A) (A) (A) (A) (A) (A) (A) (A) (A) (A) (A) (A)
                 (A) (A) (A) (A) (A) (A) (A) (A) (A) (A) (A) (A)
                 (A) (A) (A) (A) (A) (A) (A) (A) (A) (A) (A) (A)
                 (A) (A) (A) (A) (A) (A) (A) (A) (A) (A) (A) (A)
                 (A) (A) (A) (A) (A) (A) (A) (A) (A) (A) (A) (A)
                 (A) (A) (A) (A) (A) (A) (A) (A) (A) (A) (A) (A)
                 (A) (A) (A) (A) (A) (A) (A) (A) (A) (A) (A) (A)
                 (A) (A) (A) (A) (A) (A) (A) (A) (A) (A) (A) (A)
                 (A) (A) (A) (A) (A) (A) (A) (A) (A) (A) (A) (A)
                 (A) (A) (A) (A) (A) (A) (A) (A) (A) (A) (A) (A)
                 (A) (A) (A)
 The electronic state is 2-A.
 Alpha  occ. eigenvalues --  -19.69369 -19.66387 -19.64300 -10.71691 -10.61386
 Alpha  occ. eigenvalues --  -10.58258 -10.57362 -10.54457  -1.26760  -1.17441
 Alpha  occ. eigenvalues --   -1.12079  -0.91302  -0.87905  -0.78881  -0.71445
 Alpha  occ. eigenvalues --   -0.65441  -0.61881  -0.59558  -0.57471  -0.54414
 Alpha  occ. eigenvalues --   -0.54043  -0.50210  -0.49305  -0.47553  -0.46073
 Alpha  occ. eigenvalues --   -0.42862  -0.41977  -0.40266  -0.39485  -0.37566
 Alpha  occ. eigenvalues --   -0.35331
 Alpha virt. eigenvalues --   -0.02281  -0.00427   0.00851   0.01469   0.01917
 Alpha virt. eigenvalues --    0.02686   0.03980   0.04983   0.05331   0.05900
 Alpha virt. eigenvalues --    0.06631   0.07370   0.08102   0.08899   0.10228
 Alpha virt. eigenvalues --    0.10969   0.11709   0.12224   0.12656   0.12985
 Alpha virt. eigenvalues --    0.13932   0.14453   0.14606   0.15399   0.15578
 Alpha virt. eigenvalues --    0.16130   0.17603   0.17920   0.19271   0.19914
 Alpha virt. eigenvalues --    0.20397   0.21619   0.21929   0.23506   0.23963
 Alpha virt. eigenvalues --    0.24671   0.26094   0.27673   0.28122   0.29343
 Alpha virt. eigenvalues --    0.30467   0.30675   0.30977   0.32635   0.33284
 Alpha virt. eigenvalues --    0.33605   0.34913   0.35049   0.37428   0.38399
 Alpha virt. eigenvalues --    0.40558   0.42373   0.45039   0.46434   0.49522
 Alpha virt. eigenvalues --    0.49998   0.52010   0.54951   0.56087   0.58157
 Alpha virt. eigenvalues --    0.61446   0.62307   0.63695   0.65511   0.66765
 Alpha virt. eigenvalues --    0.67399   0.68127   0.69028   0.71014   0.72468
 Alpha virt. eigenvalues --    0.73266   0.75121   0.75546   0.77918   0.79622
 Alpha virt. eigenvalues --    0.85918   0.88129   0.91538   0.95950   1.01100
 Alpha virt. eigenvalues --    1.04044   1.04937   1.07377   1.08080   1.11228
 Alpha virt. eigenvalues --    1.13040   1.14702   1.16882   1.18687   1.19636
 Alpha virt. eigenvalues --    1.21670   1.24015   1.26590   1.31494   1.33817
 Alpha virt. eigenvalues --    1.34534   1.35304   1.37838   1.40680   1.41586
 Alpha virt. eigenvalues --    1.43944   1.47475   1.49460   1.51237   1.51906
 Alpha virt. eigenvalues --    1.57409   1.59158   1.59728   1.61458   1.63829
 Alpha virt. eigenvalues --    1.66353   1.67138   1.69025   1.72592   1.73749
 Alpha virt. eigenvalues --    1.77308   1.81826   1.84146   1.84586   1.85724
 Alpha virt. eigenvalues --    1.92752   1.96669   1.99608   2.02210   2.04359
 Alpha virt. eigenvalues --    2.09810   2.11809   2.12649   2.21090   2.30884
 Alpha virt. eigenvalues --    2.34813   2.41128   2.46742   2.50649   2.53489
 Alpha virt. eigenvalues --    2.54715   2.58319   2.61149   2.62120   2.64361
 Alpha virt. eigenvalues --    2.65019   2.68060   2.71115   2.71799   2.72793
 Alpha virt. eigenvalues --    2.79031   2.82066   2.86355   2.87682   2.90566
 Alpha virt. eigenvalues --    2.93084   2.94092   2.97346   2.99911   3.02855
 Alpha virt. eigenvalues --    3.06810   3.10526   3.13869   3.17543   3.17846
 Alpha virt. eigenvalues --    3.23354   3.25474   3.30393   3.35192   3.38713
 Alpha virt. eigenvalues --    3.42894   3.53867   3.65386   3.72609   3.84292
 Alpha virt. eigenvalues --    3.85557   3.87805   3.90450   4.03877   4.14758
 Alpha virt. eigenvalues --    4.17366   4.27609   5.05101   5.11361   5.12856
 Alpha virt. eigenvalues --    5.16060   5.32092   5.44624   5.55534   5.72235
 Alpha virt. eigenvalues --    5.94192  23.62777  23.92908  23.94144  24.05554
 Alpha virt. eigenvalues --   25.13836  49.93379  49.99077  50.11126
  Beta  occ. eigenvalues --  -19.69363 -19.64825 -19.64287 -10.71701 -10.61385
  Beta  occ. eigenvalues --  -10.58262 -10.57256 -10.54457  -1.26738  -1.17400
  Beta  occ. eigenvalues --   -1.04499  -0.91048  -0.87659  -0.78823  -0.71355
  Beta  occ. eigenvalues --   -0.65407  -0.61649  -0.59500  -0.57418  -0.54349
  Beta  occ. eigenvalues --   -0.51019  -0.50160  -0.47519  -0.46111  -0.42845
  Beta  occ. eigenvalues --   -0.40690  -0.39606  -0.39234  -0.37253  -0.36520
  Beta virt. eigenvalues --   -0.07931  -0.02243  -0.00393   0.01007   0.01471
  Beta virt. eigenvalues --    0.02065   0.02823   0.04236   0.05191   0.05739
  Beta virt. eigenvalues --    0.06078   0.06727   0.07386   0.08256   0.09089
  Beta virt. eigenvalues --    0.10482   0.11146   0.11849   0.12352   0.12725
  Beta virt. eigenvalues --    0.13156   0.14128   0.14476   0.14721   0.15600
  Beta virt. eigenvalues --    0.15659   0.16324   0.17706   0.18037   0.19448
  Beta virt. eigenvalues --    0.19908   0.20356   0.21781   0.22382   0.23440
  Beta virt. eigenvalues --    0.24037   0.24850   0.26168   0.27655   0.27745
  Beta virt. eigenvalues --    0.29413   0.30368   0.30663   0.30875   0.32662
  Beta virt. eigenvalues --    0.33406   0.33760   0.34932   0.35092   0.37720
  Beta virt. eigenvalues --    0.38482   0.40514   0.42441   0.45106   0.46523
  Beta virt. eigenvalues --    0.49547   0.50009   0.52076   0.55032   0.56130
  Beta virt. eigenvalues --    0.58241   0.61609   0.62776   0.63867   0.65691
  Beta virt. eigenvalues --    0.66857   0.67373   0.68225   0.69284   0.71016
  Beta virt. eigenvalues --    0.72576   0.73301   0.75149   0.75718   0.77949
  Beta virt. eigenvalues --    0.79793   0.86127   0.88290   0.91684   0.95971
  Beta virt. eigenvalues --    1.01107   1.04837   1.07002   1.07458   1.09214
  Beta virt. eigenvalues --    1.11416   1.13822   1.14812   1.17231   1.18898
  Beta virt. eigenvalues --    1.19828   1.21764   1.24047   1.26879   1.32441
  Beta virt. eigenvalues --    1.33935   1.34631   1.35529   1.38714   1.40943
  Beta virt. eigenvalues --    1.41740   1.44037   1.48504   1.49877   1.51618
  Beta virt. eigenvalues --    1.52553   1.57465   1.59210   1.59743   1.61516
  Beta virt. eigenvalues --    1.63915   1.66609   1.67260   1.69044   1.72641
  Beta virt. eigenvalues --    1.73848   1.78059   1.82139   1.84202   1.84657
  Beta virt. eigenvalues --    1.85757   1.92849   1.96700   1.99659   2.02334
  Beta virt. eigenvalues --    2.04406   2.09868   2.12641   2.13223   2.21114
  Beta virt. eigenvalues --    2.30895   2.34827   2.41191   2.46948   2.50652
  Beta virt. eigenvalues --    2.53498   2.54756   2.58281   2.61175   2.62120
  Beta virt. eigenvalues --    2.64413   2.65075   2.68112   2.71119   2.71945
  Beta virt. eigenvalues --    2.72816   2.79218   2.82362   2.88074   2.90568
  Beta virt. eigenvalues --    2.91302   2.94115   2.97011   2.99264   3.01146
  Beta virt. eigenvalues --    3.02970   3.08056   3.11029   3.14108   3.19325
  Beta virt. eigenvalues --    3.19915   3.24684   3.25690   3.30421   3.35233
  Beta virt. eigenvalues --    3.38841   3.42913   3.53953   3.65453   3.72683
  Beta virt. eigenvalues --    3.84296   3.85562   3.90458   3.91406   4.03892
  Beta virt. eigenvalues --    4.14794   4.17541   4.27627   5.06687   5.12869
  Beta virt. eigenvalues --    5.16088   5.20400   5.32225   5.44650   5.57785
  Beta virt. eigenvalues --    5.72281   5.94210  23.62801  23.92911  23.94155
  Beta virt. eigenvalues --   24.05554  25.13916  49.92903  49.99076  50.11113
          Condensed to atoms (all electrons):
               1          2          3          4          5          6
     1  O    8.062847   0.270065   0.149521  -0.010070  -0.100900  -0.098914
     2  H    0.270065   0.461465  -0.012803   0.000493   0.024124  -0.004934
     3  C    0.149521  -0.012803  33.428310   0.770745 -12.129180 -14.531540
     4  H   -0.010070   0.000493   0.770745   0.422929  -0.300809  -0.067302
     5  C   -0.100900   0.024124 -12.129180  -0.300809  18.564426  -2.218585
     6  C   -0.098914  -0.004934 -14.531540  -0.067302  -2.218585  23.814500
     7  O    0.002495   0.008545   0.517289  -0.000077   0.364271  -0.546130
     8  O   -0.001814   0.000418   0.132748  -0.001495  -0.202230  -0.170512
     9  C    0.001107  -0.000658   0.044052   0.000533  -0.262944   0.092865
    10  C   -0.000587  -0.000320   0.071262   0.000812  -0.059219  -0.160739
    11  H    0.000039  -0.000020  -0.001117   0.000007   0.008879   0.011024
    12  H   -0.000278   0.000021  -0.023109  -0.000168  -0.031861   0.034359
    13  H   -0.000009  -0.000035   0.005751   0.000016   0.010529  -0.019409
    14  H   -0.000037   0.000034  -0.016995  -0.000067  -0.006904   0.033300
    15  H    0.000134  -0.000185   0.008214  -0.000034  -0.021263  -0.010948
               7          8          9         10         11         12
     1  O    0.002495  -0.001814   0.001107  -0.000587   0.000039  -0.000278
     2  H    0.008545   0.000418  -0.000658  -0.000320  -0.000020   0.000021
     3  C    0.517289   0.132748   0.044052   0.071262  -0.001117  -0.023109
     4  H   -0.000077  -0.001495   0.000533   0.000812   0.000007  -0.000168
     5  C    0.364271  -0.202230  -0.262944  -0.059219   0.008879  -0.031861
     6  C   -0.546130  -0.170512   0.092865  -0.160739   0.011024   0.034359
     7  O    8.084274  -0.127038   0.030194  -0.063576   0.001691  -0.021963
     8  O   -0.127038   8.295119   0.167052  -0.030869  -0.091164  -0.004329
     9  C    0.030194   0.167052   5.372860   0.053031   0.435323   0.404670
    10  C   -0.063576  -0.030869   0.053031   5.459522  -0.052611  -0.017625
    11  H    0.001691  -0.091164   0.435323  -0.052611   0.522366  -0.035499
    12  H   -0.021963  -0.004329   0.404670  -0.017625  -0.035499   0.508671
    13  H   -0.000239   0.017579  -0.042799   0.396563   0.000658  -0.004410
    14  H    0.000867  -0.007855  -0.034570   0.415817  -0.010503   0.004258
    15  H    0.004324  -0.017294  -0.000424   0.390592   0.009794  -0.010575
              13         14         15
     1  O   -0.000009  -0.000037   0.000134
     2  H   -0.000035   0.000034  -0.000185
     3  C    0.005751  -0.016995   0.008214
     4  H    0.000016  -0.000067  -0.000034
     5  C    0.010529  -0.006904  -0.021263
     6  C   -0.019409   0.033300  -0.010948
     7  O   -0.000239   0.000867   0.004324
     8  O    0.017579  -0.007855  -0.017294
     9  C   -0.042799  -0.034570  -0.000424
    10  C    0.396563   0.415817   0.390592
    11  H    0.000658  -0.010503   0.009794
    12  H   -0.004410   0.004258  -0.010575
    13  H    0.529439  -0.031897  -0.030394
    14  H   -0.031897   0.535524  -0.048671
    15  H   -0.030394  -0.048671   0.542630
          Atomic-Atomic Spin Densities.
               1          2          3          4          5          6
     1  O    0.984548   0.008126   0.148254   0.005293  -0.158832  -0.066206
     2  H    0.008126  -0.030566  -0.031071  -0.000654   0.011582   0.025833
     3  C    0.148254  -0.031071   0.207403   0.029928  -0.012217  -0.400809
     4  H    0.005293  -0.000654   0.029928   0.007147  -0.024414  -0.007541
     5  C   -0.158832   0.011582  -0.012217  -0.024414   0.232545   0.058929
     6  C   -0.066206   0.025833  -0.400809  -0.007541   0.058929   0.432298
     7  O    0.003667  -0.000696   0.041452   0.000526  -0.007199  -0.049152
     8  O   -0.000292  -0.000045   0.004529  -0.000210  -0.011029   0.014368
     9  C    0.000661  -0.000392   0.015934   0.000155  -0.001314  -0.023849
    10  C    0.000457  -0.000335   0.016318   0.000172   0.005183  -0.022384
    11  H   -0.000003   0.000005   0.000142   0.000001  -0.001736   0.001608
    12  H   -0.000160   0.000145  -0.004881  -0.000054  -0.001433   0.008053
    13  H    0.000028  -0.000052   0.001776   0.000014   0.001233  -0.004164
    14  H   -0.000055   0.000055  -0.002957  -0.000030  -0.001115   0.005141
    15  H    0.000011  -0.000007  -0.000326  -0.000000  -0.000807   0.000968
               7          8          9         10         11         12
     1  O    0.003667  -0.000292   0.000661   0.000457  -0.000003  -0.000160
     2  H   -0.000696  -0.000045  -0.000392  -0.000335   0.000005   0.000145
     3  C    0.041452   0.004529   0.015934   0.016318   0.000142  -0.004881
     4  H    0.000526  -0.000210   0.000155   0.000172   0.000001  -0.000054
     5  C   -0.007199  -0.011029  -0.001314   0.005183  -0.001736  -0.001433
     6  C   -0.049152   0.014368  -0.023849  -0.022384   0.001608   0.008053
     7  O    0.015397  -0.000840  -0.000650   0.001140  -0.000143  -0.000082
     8  O   -0.000840  -0.004053   0.001833  -0.002129  -0.000076   0.000001
     9  C   -0.000650   0.001833   0.006352   0.002139   0.000151  -0.001017
    10  C    0.001140  -0.002129   0.002139   0.001567  -0.000311  -0.000938
    11  H   -0.000143  -0.000076   0.000151  -0.000311   0.000129   0.000220
    12  H   -0.000082   0.000001  -0.001017  -0.000938   0.000220   0.000386
    13  H   -0.000011   0.000034   0.000455   0.000715  -0.000094  -0.000279
    14  H   -0.000055  -0.000042  -0.000332  -0.001003   0.000099   0.000183
    15  H   -0.000072   0.000093   0.000040   0.000044   0.000002   0.000017
              13         14         15
     1  O    0.000028  -0.000055   0.000011
     2  H   -0.000052   0.000055  -0.000007
     3  C    0.001776  -0.002957  -0.000326
     4  H    0.000014  -0.000030  -0.000000
     5  C    0.001233  -0.001115  -0.000807
     6  C   -0.004164   0.005141   0.000968
     7  O   -0.000011  -0.000055  -0.000072
     8  O    0.000034  -0.000042   0.000093
     9  C    0.000455  -0.000332   0.000040
    10  C    0.000715  -0.001003   0.000044
    11  H   -0.000094   0.000099   0.000002
    12  H   -0.000279   0.000183   0.000017
    13  H    0.000740  -0.000399  -0.000004
    14  H   -0.000399   0.000461   0.000010
    15  H   -0.000004   0.000010  -0.000005
 Mulliken charges and spin densities:
               1          2
     1  O   -0.273599   0.925497
     2  H    0.253790  -0.018072
     3  C   -2.413148   0.013475
     4  H    0.184487   0.010332
     5  C    2.361665   0.089377
     6  C   -0.157038  -0.026908
     7  O   -0.254926   0.003283
     8  O    0.041685   0.002142
     9  C   -0.260292   0.000167
    10  C   -0.402053   0.000634
    11  H    0.201133  -0.000007
    12  H    0.197838   0.000162
    13  H    0.168657  -0.000008
    14  H    0.167701  -0.000037
    15  H    0.184099  -0.000036
 Sum of Mulliken charges =  -0.00000   1.00000
 Mulliken charges and spin densities with hydrogens summed into heavy atoms:
               1          2
     1  O   -0.019809   0.907425
     3  C   -2.228661   0.023807
     5  C    2.361665   0.089377
     6  C   -0.157038  -0.026908
     7  O   -0.254926   0.003283
     8  O    0.041685   0.002142
     9  C    0.138680   0.000322
    10  C    0.118404   0.000553
 APT charges:
               1
     1  O   -0.262867
     2  H    0.297578
     3  C   -0.202817
     4  H    0.245172
     5  C   -0.341298
     6  C    1.505383
     7  O   -0.794829
     8  O   -0.976770
     9  C    0.542432
    10  C   -0.041862
    11  H   -0.011852
    12  H   -0.010887
    13  H    0.011704
    14  H    0.011326
    15  H    0.029587
 Sum of APT charges =  -0.00000
 APT charges with hydrogens summed into heavy atoms:
               1
     1  O    0.034711
     3  C    0.042356
     5  C   -0.341298
     6  C    1.505383
     7  O   -0.794829
     8  O   -0.976770
     9  C    0.519693
    10  C    0.010754
 Electronic spatial extent (au):  <R**2>=           1331.5085
 Charge=             -0.0000 electrons
 Dipole moment (field-independent basis, Debye):
    X=             -2.7015    Y=             -1.1221    Z=              0.0536  Tot=              2.9258
 Quadrupole moment (field-independent basis, Debye-Ang):
   XX=            -43.8432   YY=            -48.4520   ZZ=            -47.7631
   XY=             -4.3174   XZ=              1.1507   YZ=             -0.1929
 Traceless Quadrupole moment (field-independent basis, Debye-Ang):
   XX=              2.8429   YY=             -1.7659   ZZ=             -1.0770
   XY=             -4.3174   XZ=              1.1507   YZ=             -0.1929
 Octapole moment (field-independent basis, Debye-Ang**2):
  XXX=            -36.3647  YYY=              7.6727  ZZZ=             -3.6299  XYY=             11.5379
  XXY=            -17.8039  XXZ=             -0.7787  XZZ=             -3.9829  YZZ=              1.3550
  YYZ=              0.9835  XYZ=             -4.3581
 Hexadecapole moment (field-independent basis, Debye-Ang**3):
 XXXX=          -1384.7957 YYYY=           -240.0669 ZZZZ=           -114.5157 XXXY=            -67.1855
 XXXZ=             21.1558 YYYX=             19.8393 YYYZ=             -0.4783 ZZZX=              2.2568
 ZZZY=             -2.0314 XXYY=           -228.2782 XXZZ=           -254.3432 YYZZ=            -60.0285
 XXYZ=            -13.3179 YYXZ=              3.5804 ZZXY=              4.3345
 N-N= 3.473241353207D+02 E-N=-1.679156504211D+03  KE= 4.188760897802D+02
  Exact polarizability:  97.457  -2.307  66.345   3.325  -2.167  50.529
 Approx polarizability: 101.505  -5.733  82.836   6.497  -4.819  58.251
                          Isotropic Fermi Contact Couplings
        Atom                 a.u.       MegaHertz       Gauss      10(-4) cm-1
     1  O(17)              0.12796     -77.56955     -27.67874     -25.87442
     2  H(1)              -0.01504     -67.21770     -23.98495     -22.42141
     3  C(13)              0.01792      20.14973       7.18992       6.72123
     4  H(1)               0.00369      16.50792       5.89044       5.50645
     5  C(13)              0.02304      25.90486       9.24350       8.64093
     6  C(13)             -0.00603      -6.77331      -2.41689      -2.25933
     7  O(17)              0.00170      -1.02787      -0.36677      -0.34286
     8  O(17)              0.00662      -4.01145      -1.43138      -1.33807
     9  C(13)              0.00070       0.78746       0.28098       0.26267
    10  C(13)             -0.00000      -0.00452      -0.00161      -0.00151
    11  H(1)               0.00001       0.02476       0.00883       0.00826
    12  H(1)              -0.00000      -0.01936      -0.00691      -0.00646
    13  H(1)               0.00002       0.06899       0.02462       0.02301
    14  H(1)               0.00000       0.02127       0.00759       0.00709
    15  H(1)              -0.00000      -0.01253      -0.00447      -0.00418
 --------------------------------------------------------
       Center         ----  Spin Dipole Couplings  ----
                      3XX-RR        3YY-RR        3ZZ-RR
 --------------------------------------------------------
     1   Atom       -0.051476      1.839411     -1.787935
     2   Atom        0.091217      0.022432     -0.113648
     3   Atom        0.016152      0.011752     -0.027904
     4   Atom       -0.009141      0.017252     -0.008111
     5   Atom       -0.022792      0.096306     -0.073514
     6   Atom        0.008263     -0.001856     -0.006407
     7   Atom        0.012825     -0.007489     -0.005336
     8   Atom        0.006442     -0.003427     -0.003016
     9   Atom        0.002825     -0.001325     -0.001499
    10   Atom        0.001346     -0.000637     -0.000709
    11   Atom        0.001190     -0.000529     -0.000661
    12   Atom        0.001541     -0.000800     -0.000741
    13   Atom        0.000874     -0.000423     -0.000451
    14   Atom        0.001090     -0.000599     -0.000491
    15   Atom        0.001559     -0.000746     -0.000813
 --------------------------------------------------------
                        XY            XZ            YZ
 --------------------------------------------------------
     1   Atom        2.525619     -0.150723     -0.216640
     2   Atom       -0.093839      0.043451     -0.035167
     3   Atom       -0.006064      0.007093     -0.006923
     4   Atom       -0.001874      0.000226     -0.004161
     5   Atom        0.119913     -0.011269     -0.009521
     6   Atom        0.000577      0.001884     -0.000659
     7   Atom       -0.017499      0.005226     -0.002152
     8   Atom       -0.002416      0.001613     -0.000356
     9   Atom       -0.000230      0.000476     -0.000030
    10   Atom       -0.000107     -0.000321      0.000048
    11   Atom        0.000422      0.000346      0.000087
    12   Atom       -0.000119      0.000774     -0.000147
    13   Atom       -0.000098     -0.000105      0.000015
    14   Atom        0.000154     -0.000500     -0.000028
    15   Atom       -0.000418     -0.000545      0.000125
 --------------------------------------------------------


 ---------------------------------------------------------------------------------
              Anisotropic Spin Dipole Couplings in Principal Axis System
 ---------------------------------------------------------------------------------

       Atom             a.u.   MegaHertz   Gauss  10(-4) cm-1        Axes

              Baa    -1.8029   130.456    46.550    43.515  0.8112 -0.5508  0.1966
     1 O(17)  Bbb    -1.8008   130.303    46.495    43.464 -0.1344  0.1516  0.9793
              Bcc     3.6037  -260.759   -93.045   -86.980  0.5692  0.8208 -0.0489
 
              Baa    -0.1249   -66.629   -23.775   -22.225 -0.1319  0.1499  0.9799
     2 H(1)   Bbb    -0.0429   -22.910    -8.175    -7.642  0.5825  0.8116 -0.0457
              Bcc     0.1678    89.539    31.950    29.867  0.8021 -0.5647  0.1944
 
              Baa    -0.0299    -4.009    -1.431    -1.337 -0.1322  0.1438  0.9807
     3 C(13)  Bbb     0.0076     1.015     0.362     0.338  0.5966  0.8017 -0.0372
              Bcc     0.0223     2.994     1.069     0.999  0.7916 -0.5802  0.1918
 
              Baa    -0.0093    -4.953    -1.767    -1.652  0.9875  0.0901  0.1297
     4 H(1)   Bbb    -0.0088    -4.677    -1.669    -1.560 -0.1419  0.1463  0.9790
              Bcc     0.0180     9.629     3.436     3.212 -0.0692  0.9851 -0.1573
 
              Baa    -0.0980   -13.151    -4.693    -4.387  0.8398 -0.5090  0.1885
     5 C(13)  Bbb    -0.0734    -9.855    -3.517    -3.287 -0.1308  0.1474  0.9804
              Bcc     0.1714    23.006     8.209     7.674  0.5269  0.8480 -0.0572
 
              Baa    -0.0068    -0.906    -0.323    -0.302 -0.1287  0.1472  0.9807
     6 C(13)  Bbb    -0.0018    -0.238    -0.085    -0.079 -0.0283  0.9880 -0.1520
              Bcc     0.0085     1.144     0.408     0.382  0.9913  0.0473  0.1230
 
              Baa    -0.0176     1.274     0.455     0.425  0.5057  0.8603 -0.0645
     7 O(17)  Bbb    -0.0064     0.460     0.164     0.153 -0.1302  0.1500  0.9801
              Bcc     0.0240    -1.735    -0.619    -0.579  0.8528 -0.4872  0.1878
 
              Baa    -0.0040     0.288     0.103     0.096  0.2291  0.9731 -0.0234
     8 O(17)  Bbb    -0.0033     0.237     0.085     0.079 -0.1491  0.0589  0.9871
              Bcc     0.0073    -0.526    -0.188    -0.175  0.9619 -0.2226  0.1586
 
              Baa    -0.0016    -0.208    -0.074    -0.069 -0.1069  0.0220  0.9940
     9 C(13)  Bbb    -0.0013    -0.180    -0.064    -0.060  0.0569  0.9983 -0.0160
              Bcc     0.0029     0.388     0.138     0.129  0.9926 -0.0548  0.1079
 
              Baa    -0.0008    -0.103    -0.037    -0.034  0.1339 -0.2435  0.9606
    10 C(13)  Bbb    -0.0006    -0.085    -0.030    -0.028  0.0900  0.9683  0.2329
              Bcc     0.0014     0.188     0.067     0.063  0.9869 -0.0552 -0.1515
 
              Baa    -0.0007    -0.387    -0.138    -0.129 -0.1540 -0.1067  0.9823
    11 H(1)   Bbb    -0.0006    -0.334    -0.119    -0.111 -0.2378  0.9689  0.0679
              Bcc     0.0014     0.721     0.257     0.241  0.9590  0.2231  0.1746
 
              Baa    -0.0010    -0.549    -0.196    -0.183 -0.2415  0.4320  0.8689
    12 H(1)   Bbb    -0.0008    -0.405    -0.144    -0.135  0.1803  0.8998 -0.3973
              Bcc     0.0018     0.954     0.340     0.318  0.9535 -0.0607  0.2952
 
              Baa    -0.0005    -0.246    -0.088    -0.082  0.0582 -0.2407  0.9689
    13 H(1)   Bbb    -0.0004    -0.229    -0.082    -0.076  0.0920  0.9677  0.2349
              Bcc     0.0009     0.475     0.169     0.158  0.9941 -0.0754 -0.0784
 
              Baa    -0.0006    -0.343    -0.122    -0.114  0.2843 -0.4473  0.8480
    14 H(1)   Bbb    -0.0006    -0.322    -0.115    -0.108  0.0523  0.8904  0.4522
              Bcc     0.0012     0.666     0.238     0.222  0.9573  0.0842 -0.2765
 
              Baa    -0.0009    -0.502    -0.179    -0.167  0.1640 -0.2594  0.9517
    15 H(1)   Bbb    -0.0008    -0.434    -0.155    -0.145  0.2185  0.9504  0.2214
              Bcc     0.0018     0.936     0.334     0.312  0.9620 -0.1717 -0.2125
 

 ---------------------------------------------------------------------------------

 Calling FoFJK, ICntrl=    100127 FMM=F ISym2X=0 I1Cent= 0 IOpClX= 1 NMat=1 NMatS=1 NMatT=0.
 Full mass-weighted force constant matrix:
 Low frequencies ---  -74.0185  -53.6947   -4.1498   -0.0003    0.0007    0.0007
 Low frequencies ---   10.4787   23.4343   78.9941
 ******    2 imaginary frequencies (negative Signs) ****** 
 Diagonal vibrational polarizability:
       37.7890226      22.5345733      70.2572788
 Harmonic frequencies (cm**-1), IR intensities (KM/Mole), Raman scattering
 activities (A**4/AMU), depolarization ratios for plane and unpolarized
 incident light, reduced masses (AMU), force constants (mDyne/A),
 and normal coordinates:
                      1                      2                      3
                      A                      A                      A
 Frequencies --    -50.9512               -41.2546                77.7931
 Red. masses --      6.6533                 6.7902                 3.9205
 Frc consts  --      0.0102                 0.0068                 0.0140
 IR Inten    --      1.0596                 0.9321                 2.7892
  Atom  AN      X      Y      Z        X      Y      Z        X      Y      Z
     1   8     0.32  -0.19  -0.26     0.31  -0.11   0.30     0.05   0.01  -0.04
     2   1     0.39  -0.02  -0.06     0.44   0.02   0.12     0.04   0.02   0.06
     3   6    -0.07   0.09   0.19    -0.02   0.09  -0.16     0.07  -0.01  -0.22
     4   1    -0.11   0.02   0.26    -0.05   0.01  -0.18     0.10  -0.02  -0.41
     5   6    -0.03   0.14   0.12    -0.01   0.14  -0.13     0.03  -0.00   0.00
     6   6    -0.04   0.10   0.06    -0.07   0.05  -0.10    -0.01  -0.01   0.15
     7   8    -0.10   0.11   0.14    -0.16   0.02  -0.24    -0.05  -0.01   0.21
     8   8     0.01   0.04  -0.07    -0.02  -0.02   0.09     0.01  -0.04   0.15
     9   6    -0.02  -0.02  -0.08    -0.08  -0.14   0.11     0.02  -0.09  -0.04
    10   6    -0.13  -0.20  -0.03    -0.01   0.02   0.05    -0.11   0.14  -0.21
    11   1     0.05  -0.02  -0.21    -0.06  -0.22   0.28     0.06  -0.15   0.05
    12   1    -0.02   0.08   0.01    -0.19  -0.25  -0.01     0.08  -0.23  -0.16
    13   1    -0.14  -0.24  -0.04    -0.05  -0.07   0.07    -0.11   0.07  -0.39
    14   1    -0.13  -0.30  -0.13     0.10   0.14   0.17    -0.17   0.30  -0.07
    15   1    -0.19  -0.20   0.10    -0.04   0.11  -0.13    -0.17   0.23  -0.31
                      4                      5                      6
                      A                      A                      A
 Frequencies --    116.6352               175.2281               228.3961
 Red. masses --      3.4143                 3.4908                 1.6615
 Frc consts  --      0.0274                 0.0632                 0.0511
 IR Inten    --      1.7355                 5.2713                 1.6057
  Atom  AN      X      Y      Z        X      Y      Z        X      Y      Z
     1   8     0.02   0.01  -0.01     0.20   0.15   0.00    -0.09  -0.11   0.01
     2   1     0.01   0.05   0.13     0.14   0.07  -0.01    -0.03  -0.02   0.00
     3   6    -0.03   0.06   0.08     0.05   0.12  -0.00     0.03   0.09  -0.02
     4   1    -0.03   0.09   0.14     0.12   0.28   0.00     0.02   0.05  -0.05
     5   6    -0.03   0.01  -0.01    -0.04  -0.13   0.00     0.02   0.07   0.02
     6   6    -0.06  -0.04  -0.02    -0.06  -0.15   0.00    -0.01   0.02   0.01
     7   8    -0.13  -0.02   0.15     0.01  -0.15   0.01    -0.07   0.01  -0.01
     8   8    -0.01  -0.10  -0.19    -0.13  -0.06  -0.02     0.03  -0.03   0.02
     9   6    -0.03  -0.07  -0.01    -0.04   0.13  -0.02     0.04  -0.02  -0.00
    10   6     0.25   0.14   0.00    -0.04   0.04   0.02     0.06   0.00  -0.01
    11   1    -0.13  -0.10   0.24    -0.13   0.25  -0.16     0.02   0.00  -0.02
    12   1    -0.17  -0.20  -0.15     0.10   0.21   0.08     0.08  -0.01   0.00
    13   1     0.19   0.07   0.16     0.12   0.41  -0.06     0.29   0.51  -0.16
    14   1     0.45   0.28   0.15    -0.40  -0.09  -0.13    -0.46  -0.09  -0.14
    15   1     0.29   0.22  -0.30     0.17  -0.22   0.28     0.37  -0.34   0.26
                      7                      8                      9
                      A                      A                      A
 Frequencies --    247.4048               267.2613               273.5318
 Red. masses --      3.6722                 3.1418                 1.1482
 Frc consts  --      0.1324                 0.1322                 0.0506
 IR Inten    --      1.1582                23.0353                94.7570
  Atom  AN      X      Y      Z        X      Y      Z        X      Y      Z
     1   8    -0.10  -0.21   0.01     0.00  -0.00   0.03     0.01  -0.00  -0.04
     2   1    -0.03  -0.08   0.06     0.08  -0.09  -0.54    -0.12   0.16   0.96
     3   6     0.16   0.34  -0.01     0.01   0.01  -0.16     0.00  -0.00  -0.03
     4   1     0.19   0.41   0.04     0.07  -0.03  -0.53     0.01  -0.01  -0.11
     5   6     0.02  -0.05  -0.04    -0.07   0.04   0.34    -0.01   0.01   0.07
     6   6     0.00  -0.06  -0.01    -0.04   0.00   0.11    -0.00  -0.00   0.01
     7   8     0.07  -0.05   0.02    -0.01  -0.02  -0.08     0.01  -0.01  -0.05
     8   8    -0.04   0.00  -0.01    -0.03  -0.01  -0.05    -0.00   0.00   0.00
     9   6    -0.02   0.06  -0.00     0.01   0.04  -0.07     0.00   0.01  -0.01
    10   6    -0.06   0.01   0.01     0.10  -0.04   0.00     0.01  -0.01   0.00
    11   1    -0.03   0.09  -0.05    -0.02   0.08  -0.12    -0.00   0.01  -0.02
    12   1     0.01   0.10   0.03     0.04   0.09  -0.03     0.01   0.01  -0.00
    13   1    -0.24  -0.39   0.12     0.01  -0.16   0.19     0.00  -0.02   0.03
    14   1     0.33   0.06   0.09     0.33  -0.08  -0.01     0.04  -0.01  -0.00
    15   1    -0.32   0.27  -0.16     0.05   0.02  -0.07     0.01   0.00  -0.00
                     10                     11                     12
                      A                      A                      A
 Frequencies --    339.6551               423.7342               558.8565
 Red. masses --      2.9640                 4.0368                 4.4655
 Frc consts  --      0.2015                 0.4270                 0.8217
 IR Inten    --     15.1666                 1.7985                 2.7117
  Atom  AN      X      Y      Z        X      Y      Z        X      Y      Z
     1   8     0.01  -0.00   0.00     0.02   0.01  -0.00    -0.02  -0.01  -0.00
     2   1    -0.01  -0.05  -0.02    -0.01  -0.02   0.04     0.00   0.03   0.00
     3   6     0.01   0.05  -0.03    -0.12   0.10  -0.00     0.20  -0.13   0.05
     4   1     0.05   0.09  -0.11    -0.10   0.18   0.09     0.16  -0.23   0.08
     5   6    -0.05  -0.06   0.09    -0.16  -0.11  -0.13     0.29   0.17  -0.02
     6   6     0.02   0.04  -0.01    -0.06   0.05   0.05     0.00  -0.04   0.04
     7   8     0.21   0.05   0.02     0.11   0.05   0.02    -0.02  -0.05   0.00
     8   8    -0.01   0.08  -0.12    -0.08   0.08   0.23    -0.15   0.09   0.05
     9   6    -0.16  -0.17   0.06    -0.02  -0.06  -0.15    -0.26   0.03  -0.14
    10   6    -0.07   0.00   0.02     0.19  -0.11  -0.09     0.00  -0.02  -0.01
    11   1    -0.08  -0.35   0.35     0.04  -0.11  -0.15    -0.18  -0.09  -0.02
    12   1    -0.46  -0.31  -0.12     0.07  -0.10  -0.18    -0.30  -0.05  -0.21
    13   1     0.07   0.28  -0.09     0.18   0.03   0.30    -0.01   0.17   0.44
    14   1    -0.34   0.08   0.06     0.41  -0.22  -0.16     0.23  -0.14  -0.11
    15   1     0.13  -0.15   0.01     0.41  -0.25  -0.17     0.27  -0.19  -0.12
                     13                     14                     15
                      A                      A                      A
 Frequencies --    618.1402               633.7290               768.5068
 Red. masses --      1.8164                 1.8707                 1.1705
 Frc consts  --      0.4089                 0.4426                 0.4073
 IR Inten    --     59.5474               139.4258                49.5523
  Atom  AN      X      Y      Z        X      Y      Z        X      Y      Z
     1   8    -0.04  -0.02  -0.00    -0.03  -0.02  -0.00    -0.00  -0.02   0.00
     2   1     0.50   0.79  -0.07     0.50   0.78  -0.06    -0.01  -0.02   0.00
     3   6    -0.08   0.01  -0.01     0.07  -0.03   0.01    -0.05  -0.10   0.02
     4   1    -0.13  -0.09  -0.00     0.14   0.11   0.00     0.40   0.89  -0.15
     5   6    -0.01   0.16  -0.02    -0.00  -0.20   0.03     0.02   0.04  -0.01
     6   6    -0.02  -0.04  -0.00     0.04   0.04   0.00    -0.01   0.00  -0.00
     7   8     0.13  -0.04   0.02    -0.11   0.03  -0.02     0.01   0.00   0.00
     8   8    -0.03  -0.08   0.00     0.02   0.08  -0.00    -0.00  -0.00   0.00
     9   6     0.00  -0.01   0.01    -0.00   0.01  -0.01     0.00  -0.00   0.00
    10   6    -0.00   0.00   0.00     0.00  -0.00  -0.00     0.00  -0.00   0.00
    11   1    -0.05   0.06  -0.06     0.04  -0.07   0.07    -0.00   0.01  -0.02
    12   1     0.08   0.03   0.05    -0.09  -0.04  -0.06     0.01   0.01   0.01
    13   1    -0.00  -0.01  -0.02     0.00   0.01   0.03     0.00   0.00  -0.01
    14   1    -0.01   0.03   0.03     0.01  -0.03  -0.03    -0.00   0.01   0.01
    15   1    -0.01   0.02  -0.02     0.02  -0.02   0.02     0.00   0.00  -0.01
                     16                     17                     18
                      A                      A                      A
 Frequencies --    780.3472               787.6232               801.6574
 Red. masses --      3.0087                 1.7831                 1.2263
 Frc consts  --      1.0795                 0.6517                 0.4643
 IR Inten    --      0.8625                59.2799                 5.1692
  Atom  AN      X      Y      Z        X      Y      Z        X      Y      Z
     1   8     0.00   0.00  -0.00    -0.00  -0.00  -0.00    -0.00  -0.00   0.00
     2   1    -0.00   0.00   0.02    -0.00  -0.00   0.02    -0.00  -0.01  -0.00
     3   6    -0.02   0.03   0.15     0.01  -0.02  -0.12    -0.03   0.01  -0.00
     4   1     0.08  -0.19  -0.85    -0.10   0.21   0.92    -0.02   0.01  -0.06
     5   6     0.02  -0.02  -0.18     0.00   0.01  -0.02    -0.01   0.04   0.01
     6   6    -0.04   0.04   0.32    -0.03   0.02   0.21     0.01  -0.04  -0.05
     7   8     0.01  -0.03  -0.09     0.01  -0.02  -0.06    -0.00  -0.04   0.02
     8   8     0.01  -0.01  -0.08     0.01  -0.00  -0.05    -0.00   0.03   0.02
     9   6     0.02   0.01   0.00     0.02   0.01  -0.00     0.05   0.06  -0.01
    10   6     0.01   0.01   0.01     0.01   0.00   0.00     0.02   0.03  -0.02
    11   1    -0.01  -0.02   0.12    -0.00  -0.02   0.11    -0.02  -0.10   0.51
    12   1    -0.06  -0.05  -0.07    -0.05  -0.05  -0.07    -0.15  -0.31  -0.37
    13   1    -0.00  -0.05  -0.05    -0.01  -0.04  -0.03    -0.06  -0.18  -0.00
    14   1    -0.04  -0.04  -0.04    -0.02  -0.04  -0.04     0.02  -0.32  -0.32
    15   1    -0.07   0.03   0.10    -0.06   0.02   0.09    -0.18   0.01   0.42
                     19                     20                     21
                      A                      A                      A
 Frequencies --    896.4568               932.8356              1076.1763
 Red. masses --      3.0788                 2.9482                 4.1644
 Frc consts  --      1.4578                 1.5115                 2.8416
 IR Inten    --     11.7112                 4.3560                24.7762
  Atom  AN      X      Y      Z        X      Y      Z        X      Y      Z
     1   8    -0.00  -0.00   0.00     0.00  -0.00   0.00    -0.00   0.00  -0.00
     2   1    -0.01  -0.01   0.00    -0.01  -0.02   0.00     0.00   0.00  -0.00
     3   6    -0.03   0.01  -0.01    -0.12   0.04  -0.02     0.07  -0.03   0.01
     4   1    -0.05  -0.02  -0.01    -0.13   0.06  -0.03     0.07  -0.05   0.02
     5   6     0.01   0.07  -0.01    -0.06   0.05  -0.02     0.04   0.00   0.01
     6   6    -0.01  -0.10   0.00     0.12  -0.10   0.03    -0.14   0.01  -0.03
     7   8    -0.03  -0.14   0.02    -0.05  -0.15   0.01     0.02   0.02   0.00
     8   8    -0.08   0.25  -0.03     0.17   0.11  -0.01    -0.20   0.09  -0.05
     9   6     0.08  -0.01   0.11    -0.00  -0.00  -0.10     0.30  -0.20  -0.13
    10   6     0.11  -0.12  -0.06    -0.14   0.05   0.08    -0.07   0.09   0.17
    11   1     0.18  -0.06   0.04     0.36  -0.25  -0.17     0.31  -0.17  -0.25
    12   1    -0.22   0.20   0.25    -0.06  -0.01  -0.11     0.39  -0.29  -0.21
    13   1     0.21  -0.14  -0.61    -0.12   0.35   0.57    -0.08   0.11   0.28
    14   1    -0.18   0.22   0.21     0.15   0.08   0.13    -0.04   0.13   0.22
    15   1    -0.01   0.06  -0.30     0.22  -0.13  -0.15    -0.09   0.07   0.29
                     22                     23                     24
                      A                      A                      A
 Frequencies --   1128.3155              1204.3374              1306.8747
 Red. masses --      2.0775                 1.7690                 2.7983
 Frc consts  --      1.5583                 1.5117                 2.8158
 IR Inten    --     23.1919                 3.1395               561.6738
  Atom  AN      X      Y      Z        X      Y      Z        X      Y      Z
     1   8    -0.00   0.00  -0.00    -0.00   0.00  -0.00     0.00   0.00   0.00
     2   1    -0.00  -0.00   0.00     0.00   0.00  -0.00    -0.02  -0.03   0.00
     3   6     0.01  -0.01   0.00     0.02  -0.01   0.00    -0.07   0.03  -0.01
     4   1     0.02  -0.01   0.00     0.02  -0.01   0.00    -0.07   0.05  -0.02
     5   6     0.01   0.00   0.00     0.00  -0.01   0.00    -0.01   0.01  -0.00
     6   6    -0.03   0.01   0.00    -0.06   0.01  -0.01     0.33   0.03   0.04
     7   8     0.00   0.00  -0.00     0.01   0.04  -0.00    -0.04   0.00  -0.00
     8   8    -0.05   0.01  -0.05    -0.02  -0.07   0.01    -0.14  -0.01  -0.01
     9   6     0.09  -0.00   0.21     0.09   0.16  -0.03     0.07  -0.05  -0.03
    10   6    -0.09   0.01  -0.17    -0.07  -0.12   0.03    -0.03  -0.05   0.00
    11   1     0.08   0.05   0.12     0.24  -0.12   0.41    -0.69   0.43   0.21
    12   1     0.18  -0.04   0.20    -0.28  -0.11  -0.33     0.11  -0.16  -0.13
    13   1    -0.12   0.18   0.45     0.10   0.27  -0.03     0.02   0.11   0.04
    14   1     0.41  -0.22  -0.32     0.03   0.24   0.35     0.02   0.15   0.20
    15   1     0.33  -0.31  -0.17     0.13  -0.08  -0.45     0.01  -0.04  -0.09
                     25                     26                     27
                      A                      A                      A
 Frequencies --   1350.9828              1403.5358              1432.4957
 Red. masses --      1.3419                 1.3088                 1.4087
 Frc consts  --      1.4430                 1.5191                 1.7032
 IR Inten    --    184.0578                49.8375                16.4018
  Atom  AN      X      Y      Z        X      Y      Z        X      Y      Z
     1   8    -0.00  -0.00  -0.00    -0.00   0.00  -0.00     0.00  -0.00   0.00
     2   1     0.01   0.01  -0.00     0.00   0.00  -0.00    -0.00  -0.00  -0.00
     3   6     0.02  -0.01   0.00     0.01  -0.01   0.00    -0.01   0.01  -0.00
     4   1     0.02  -0.01   0.00     0.01  -0.01   0.00    -0.02   0.01  -0.00
     5   6     0.00  -0.00   0.00     0.00  -0.00   0.00    -0.00   0.00   0.00
     6   6    -0.10  -0.02  -0.01    -0.07   0.00  -0.01     0.07  -0.00   0.01
     7   8     0.01  -0.02   0.00     0.01  -0.02   0.00    -0.01   0.01  -0.00
     8   8     0.08   0.07  -0.01     0.05   0.02   0.01    -0.05  -0.02  -0.02
     9   6    -0.04   0.01   0.01     0.03  -0.02  -0.03    -0.08   0.06   0.08
    10   6    -0.02  -0.04   0.03     0.03  -0.05  -0.11     0.07  -0.05  -0.06
    11   1    -0.42   0.25   0.14    -0.30   0.15   0.20     0.45  -0.22  -0.26
    12   1     0.69  -0.37  -0.21    -0.17   0.20   0.15     0.37  -0.34  -0.22
    13   1     0.03   0.03  -0.08    -0.02   0.16   0.51     0.03   0.05   0.32
    14   1    -0.03   0.03   0.09    -0.15   0.37   0.27    -0.29   0.19   0.12
    15   1     0.05  -0.02  -0.20    -0.29   0.03   0.35    -0.27   0.14   0.13
                     28                     29                     30
                      A                      A                      A
 Frequencies --   1492.8363              1503.5083              1515.6939
 Red. masses --      1.0413                 1.0626                 1.0876
 Frc consts  --      1.3672                 1.4153                 1.4722
 IR Inten    --     10.1127                 3.1884                21.0723
  Atom  AN      X      Y      Z        X      Y      Z        X      Y      Z
     1   8    -0.00  -0.00   0.00     0.00  -0.00   0.00     0.00  -0.00  -0.00
     2   1     0.00   0.00  -0.00    -0.00  -0.00  -0.00    -0.00  -0.00   0.00
     3   6     0.00  -0.00   0.00    -0.00   0.00  -0.00    -0.00   0.00  -0.00
     4   1     0.00   0.00   0.00    -0.00   0.00  -0.00    -0.01   0.00  -0.00
     5   6    -0.00  -0.00  -0.00     0.00   0.00   0.00     0.00   0.00   0.00
     6   6    -0.00   0.01  -0.00     0.02  -0.01   0.00     0.02  -0.01   0.00
     7   8    -0.00  -0.01   0.00    -0.00   0.01  -0.00    -0.00   0.01  -0.00
     8   8     0.01   0.00  -0.00    -0.02  -0.00  -0.01    -0.02  -0.00  -0.01
     9   6    -0.02  -0.01   0.02    -0.01  -0.02  -0.05    -0.05   0.01  -0.05
    10   6    -0.03  -0.04  -0.00     0.02  -0.02   0.03    -0.02   0.01  -0.02
    11   1     0.02   0.01  -0.14     0.05  -0.25   0.43     0.15  -0.29   0.36
    12   1    -0.01  -0.06  -0.03     0.30   0.29   0.29     0.39   0.19   0.19
    13   1     0.26   0.53  -0.29     0.09   0.26   0.14    -0.05  -0.19  -0.22
    14   1     0.58  -0.05   0.03    -0.15  -0.26  -0.23     0.25   0.26   0.24
    15   1    -0.35   0.13   0.26    -0.24   0.31  -0.30     0.19  -0.30   0.36
                     31                     32                     33
                      A                      A                      A
 Frequencies --   1816.7837              2241.1353              3075.7241
 Red. masses --     11.8340                 5.8624                 1.0354
 Frc consts  --     23.0139                17.3485                 5.7712
 IR Inten    --    282.5559                84.1497                 9.3813
  Atom  AN      X      Y      Z        X      Y      Z        X      Y      Z
     1   8    -0.00   0.00  -0.00    -0.00  -0.00   0.00     0.00  -0.00  -0.00
     2   1     0.00  -0.03   0.00    -0.00  -0.00   0.00     0.00   0.00  -0.00
     3   6     0.06  -0.02   0.01    -0.35   0.13  -0.07     0.00  -0.00   0.00
     4   1     0.10  -0.01   0.01    -0.69   0.26  -0.13    -0.00   0.00  -0.00
     5   6    -0.04  -0.00  -0.01     0.49  -0.20   0.09    -0.00   0.00  -0.00
     6   6    -0.01   0.77  -0.12    -0.08   0.06  -0.02     0.00   0.00   0.00
     7   8     0.02  -0.50   0.08     0.00  -0.01   0.00     0.00  -0.00  -0.00
     8   8    -0.04  -0.07   0.00    -0.00  -0.00  -0.00    -0.00  -0.00  -0.00
     9   6    -0.03   0.03  -0.01     0.00   0.00  -0.00     0.00   0.00  -0.00
    10   6     0.01  -0.00   0.01    -0.00   0.00   0.00    -0.02   0.02   0.04
    11   1     0.15  -0.15   0.10     0.01   0.00   0.00     0.00   0.01   0.00
    12   1     0.17   0.06   0.02    -0.00   0.00   0.00    -0.00  -0.02   0.02
    13   1    -0.01  -0.06  -0.05     0.00  -0.00   0.00     0.56  -0.22   0.12
    14   1    -0.04   0.00   0.00    -0.00  -0.00  -0.00     0.03   0.40  -0.43
    15   1     0.05  -0.01  -0.05     0.00  -0.00  -0.00    -0.31  -0.39  -0.14
                     34                     35                     36
                      A                      A                      A
 Frequencies --   3109.0667              3151.1638              3155.7930
 Red. masses --      1.0607                 1.1014                 1.1049
 Frc consts  --      6.0411                 6.4435                 6.4834
 IR Inten    --     17.1474                14.1275                 1.4951
  Atom  AN      X      Y      Z        X      Y      Z        X      Y      Z
     1   8    -0.00  -0.00   0.00    -0.00  -0.00   0.00    -0.00   0.00  -0.00
     2   1     0.00   0.00  -0.00     0.00   0.00  -0.00     0.00   0.00  -0.00
     3   6     0.00  -0.00   0.00     0.00  -0.00   0.00     0.00  -0.00   0.00
     4   1    -0.00   0.00   0.00    -0.00   0.00  -0.00    -0.00   0.00   0.00
     5   6    -0.00   0.00  -0.00    -0.00   0.00  -0.00    -0.00  -0.00  -0.00
     6   6     0.00   0.00   0.00     0.00   0.00  -0.00    -0.00   0.00  -0.00
     7   8     0.00  -0.00   0.00    -0.00  -0.00   0.00    -0.00  -0.00   0.00
     8   8    -0.00   0.00  -0.00     0.00  -0.00   0.00     0.00  -0.00  -0.00
     9   6    -0.02   0.01  -0.06    -0.01  -0.02  -0.01     0.02   0.05  -0.01
    10   6     0.01  -0.01   0.01    -0.05   0.06  -0.05    -0.06  -0.04  -0.01
    11   1     0.32   0.42   0.16     0.16   0.21   0.09    -0.25  -0.33  -0.13
    12   1    -0.10  -0.55   0.59    -0.00   0.01  -0.01    -0.04  -0.24   0.27
    13   1    -0.12   0.05  -0.03     0.61  -0.24   0.11     0.34  -0.15   0.07
    14   1     0.01   0.05  -0.05    -0.05  -0.46   0.50     0.00   0.13  -0.15
    15   1    -0.01  -0.02  -0.00    -0.00   0.02  -0.01     0.41   0.53   0.20
                     37                     38                     39
                      A                      A                      A
 Frequencies --   3176.6764              3490.9847              3754.6084
 Red. masses --      1.1076                 1.1666                 1.0676
 Frc consts  --      6.5851                 8.3764                 8.8676
 IR Inten    --     14.1156                74.5848                26.5687
  Atom  AN      X      Y      Z        X      Y      Z        X      Y      Z
     1   8     0.00  -0.00   0.00    -0.00  -0.00   0.00    -0.05   0.03  -0.01
     2   1    -0.00   0.00  -0.00    -0.00   0.00  -0.00     0.82  -0.53   0.19
     3   6     0.00  -0.00   0.00    -0.10   0.04  -0.02    -0.00  -0.00  -0.00
     4   1    -0.00   0.00  -0.00     0.90  -0.38   0.18     0.00  -0.00   0.00
     5   6    -0.00   0.00  -0.00     0.03  -0.01   0.01     0.00  -0.00   0.00
     6   6     0.00  -0.00   0.00    -0.00   0.00  -0.00     0.00  -0.00   0.00
     7   8    -0.00   0.00  -0.00     0.00   0.00  -0.00     0.00   0.00  -0.00
     8   8     0.00   0.00   0.00     0.00  -0.00   0.00     0.00   0.00  -0.00
     9   6    -0.04  -0.07   0.01    -0.00   0.00  -0.00    -0.00  -0.00   0.00
    10   6    -0.03  -0.05   0.01    -0.00  -0.00   0.00    -0.00  -0.00  -0.00
    11   1     0.37   0.49   0.20     0.00   0.00   0.00     0.00   0.00  -0.00
    12   1     0.05   0.29  -0.33     0.00  -0.00  -0.00    -0.00   0.00  -0.00
    13   1     0.07  -0.04   0.02     0.00  -0.00  -0.00     0.00  -0.00   0.00
    14   1     0.02   0.24  -0.27    -0.00   0.00  -0.00     0.00   0.00  -0.00
    15   1     0.29   0.37   0.15    -0.00   0.00   0.00    -0.00   0.00   0.00

 -------------------
 - Thermochemistry -
 -------------------
 Temperature   298.150 Kelvin.  Pressure   1.00000 Atm.
 Atom     1 has atomic number  8 and mass  15.99491
 Atom     2 has atomic number  1 and mass   1.00783
 Atom     3 has atomic number  6 and mass  12.00000
 Atom     4 has atomic number  1 and mass   1.00783
 Atom     5 has atomic number  6 and mass  12.00000
 Atom     6 has atomic number  6 and mass  12.00000
 Atom     7 has atomic number  8 and mass  15.99491
 Atom     8 has atomic number  8 and mass  15.99491
 Atom     9 has atomic number  6 and mass  12.00000
 Atom    10 has atomic number  6 and mass  12.00000
 Atom    11 has atomic number  1 and mass   1.00783
 Atom    12 has atomic number  1 and mass   1.00783
 Atom    13 has atomic number  1 and mass   1.00783
 Atom    14 has atomic number  1 and mass   1.00783
 Atom    15 has atomic number  1 and mass   1.00783
 Molecular mass:   115.03952 amu.
 Principal axes and moments of inertia in atomic units:
                           1         2         3
     Eigenvalues --   356.131041907.573892109.77684
           X            0.99993  -0.01064  -0.00591
           Y            0.01072   0.99985   0.01359
           Z            0.00576  -0.01365   0.99989
 This molecule is an asymmetric top.
 Rotational symmetry number  1.
 Rotational temperatures (Kelvin)      0.24321     0.04541     0.04105
 Rotational constants (GHZ):           5.06763     0.94609     0.85542
    2 imaginary frequencies ignored.
 Zero-point vibrational energy     294966.1 (Joules/Mol)
                                   70.49860 (Kcal/Mol)
 Warning -- explicit consideration of  11 degrees of freedom as
           vibrations may cause significant error
 Vibrational temperatures:    111.93   167.81   252.11   328.61   355.96
          (Kelvin)            384.53   393.55   488.69   609.66   804.07
                              889.37   911.79  1105.71  1122.75  1133.21
                             1153.41  1289.80  1342.14  1548.38  1623.39
                             1732.77  1880.30  1943.76  2019.38  2061.04
                             2147.86  2163.21  2180.75  2613.95  3224.49
                             4425.28  4473.25  4533.82  4540.48  4570.53
                             5022.75  5402.04
 
 Zero-point correction=                           0.112347 (Hartree/Particle)
 Thermal correction to Energy=                    0.120873
 Thermal correction to Enthalpy=                  0.121817
 Thermal correction to Gibbs Free Energy=         0.078372
 Sum of electronic and zero-point Energies=           -420.097653
 Sum of electronic and thermal Energies=              -420.089127
 Sum of electronic and thermal Enthalpies=            -420.088183
 Sum of electronic and thermal Free Energies=         -420.131628
 
                     E (Thermal)             CV                S
                      KCal/Mol        Cal/Mol-Kelvin    Cal/Mol-Kelvin
 Total                   75.849             29.992             91.437
 Electronic               0.000              0.000              1.377
 Translational            0.889              2.981             40.136
 Rotational               0.889              2.981             28.751
 Vibrational             74.071             24.031             21.173
 Vibration     1          0.599              1.964              3.946
 Vibration     2          0.608              1.936              3.155
 Vibration     3          0.627              1.873              2.379
 Vibration     4          0.651              1.798              1.892
 Vibration     5          0.661              1.767              1.749
 Vibration     6          0.672              1.733              1.614
 Vibration     7          0.676              1.722              1.574
 Vibration     8          0.720              1.596              1.214
 Vibration     9          0.786              1.419              0.879
 Vibration    10          0.914              1.120              0.526
 Vibration    11          0.978              0.994              0.419
                       Q            Log10(Q)             Ln(Q)
 Total Bot       0.893937D-36        -36.048693        -83.005183
 Total V=0       0.423779D+16         15.627139         35.982818
 Vib (Bot)       0.215052D-49        -49.667457       -114.363546
 Vib (Bot)    1  0.264822D+01          0.422953          0.973886
 Vib (Bot)    2  0.175345D+01          0.243894          0.561587
 Vib (Bot)    3  0.114809D+01          0.059975          0.138098
 Vib (Bot)    4  0.862956D+00         -0.064011         -0.147391
 Vib (Bot)    5  0.789841D+00         -0.102460         -0.235924
 Vib (Bot)    6  0.724123D+00         -0.140188         -0.322794
 Vib (Bot)    7  0.705262D+00         -0.151650         -0.349186
 Vib (Bot)    8  0.546805D+00         -0.262167         -0.603662
 Vib (Bot)    9  0.413200D+00         -0.383840         -0.883824
 Vib (Bot)   10  0.278417D+00         -0.555304         -1.278635
 Vib (Bot)   11  0.237045D+00         -0.625168         -1.439503
 Vib (V=0)       0.101947D+03          2.008375          4.624455
 Vib (V=0)    1  0.319500D+01          0.504471          1.161588
 Vib (V=0)    2  0.232335D+01          0.366114          0.843009
 Vib (V=0)    3  0.175224D+01          0.243594          0.560895
 Vib (V=0)    4  0.149734D+01          0.175321          0.403692
 Vib (V=0)    5  0.143480D+01          0.156791          0.361025
 Vib (V=0)    6  0.137997D+01          0.139871          0.322064
 Vib (V=0)    7  0.136452D+01          0.134980          0.310802
 Vib (V=0)    8  0.124094D+01          0.093752          0.215871
 Vib (V=0)    9  0.114864D+01          0.060184          0.138579
 Vib (V=0)   10  0.107229D+01          0.030312          0.069797
 Vib (V=0)   11  0.105334D+01          0.022571          0.051971
 Electronic      0.200000D+01          0.301030          0.693147
 Translational   0.484981D+08          7.685724         17.697035
 Rotational      0.428558D+06          5.632009         12.968181
 ***** Axes restored to original set *****
 -------------------------------------------------------------------
 Center     Atomic                   Forces (Hartrees/Bohr)
 Number     Number              X              Y              Z
 -------------------------------------------------------------------
      1        8           0.003613225    0.008592986   -0.000911811
      2        1           0.000115530    0.000112536   -0.000009791
      3        6          -0.003481155   -0.007589164    0.000765302
      4        1          -0.000063324   -0.000674383    0.000105063
      5        6          -0.000271768   -0.000886595    0.000113473
      6        6           0.000055727    0.000062053   -0.000005985
      7        8           0.000163794    0.000073240    0.000005187
      8        8          -0.000053691    0.000191652   -0.000053258
      9        6          -0.000032593    0.000091797   -0.000021068
     10        6          -0.000028814    0.000011428    0.000011420
     11        1          -0.000000179    0.000004194   -0.000004366
     12        1          -0.000007819    0.000011326   -0.000001376
     13        1          -0.000003894   -0.000000476    0.000004354
     14        1          -0.000000026   -0.000002743   -0.000001552
     15        1          -0.000005013    0.000002149    0.000004407
 -------------------------------------------------------------------
 Cartesian Forces:  Max     0.008592986 RMS     0.001882596

 GradGradGradGradGradGradGradGradGradGradGradGradGradGradGradGradGradGrad
 Berny optimization.
 Search for a local minimum.
 Step number   1 out of a maximum of    2
 All quantities printed in internal units (Hartrees-Bohrs-Radians)
 Second derivative matrix not updated -- analytic derivatives used.
 ITU=  0
     Eigenvalues ---   -0.00102  -0.00059   0.00110   0.00182   0.00284
     Eigenvalues ---    0.00447   0.00782   0.01351   0.01455   0.02229
     Eigenvalues ---    0.02914   0.03224   0.03479   0.05351   0.06303
     Eigenvalues ---    0.07630   0.07972   0.08631   0.09456   0.10242
     Eigenvalues ---    0.11396   0.14179   0.17087   0.18250   0.19983
     Eigenvalues ---    0.28867   0.29759   0.43953   0.49317   0.62712
     Eigenvalues ---    0.71674   0.76589   0.79119   0.86585   0.91990
     Eigenvalues ---    0.93960   0.96170   1.68147   2.67524
 Eigenvalue     1 is  -1.02D-03 should be greater than     0.000000 Eigenvector:
                          Z1        Z4        Y14       Z7        X1
   1                    0.50856  -0.26685   0.25200  -0.24402  -0.23392
                          Z3        X2        Z11       Z5        Y1
   1                   -0.22955  -0.22837   0.22834  -0.18160   0.17757
 Eigenvalue     2 is  -5.91D-04 should be greater than     0.000000 Eigenvector:
                          X2        X1        Z1        Y5        Z7
   1                    0.58293   0.42377   0.24832   0.18687  -0.18620
                          Y1        X7        Y11       X12       Y12
   1                   -0.18344  -0.18296  -0.17825  -0.17425  -0.16639
 Quadratic step=2.006D+00 exceeds max=3.000D-01 adjusted using Lamda=-1.432D-02.
 Angle between NR and scaled steps=  60.59 degrees.
 Angle between quadratic step and forces=  22.04 degrees.
 Linear search not attempted -- first point.
 B after Tr=     0.003506    0.003175    0.000160
         Rot=    1.000000    0.000370   -0.000066   -0.000681 Ang=   0.09 deg.
 Variable       Old X    -DE/DX   Delta X   Delta X   Delta X     New X
                                 (Linear)    (Quad)   (Total)
    X1        6.27663   0.00361   0.00000   0.06380   0.06474   6.34137
    Y1        1.70142   0.00859   0.00000   0.19722   0.20917   1.91059
    Z1        0.20872  -0.00091   0.00000  -0.02207  -0.02415   0.18457
    X2        4.75830   0.00012   0.00000  -0.03200  -0.03224   4.72606
    Y2        2.67533   0.00011   0.00000   0.05016   0.05965   2.73497
    Z2       -0.15794  -0.00001   0.00000  -0.01394  -0.01642  -0.17436
    X3        4.30009  -0.00348   0.00000  -0.05926  -0.05257   4.24752
    Y3       -2.12021  -0.00759   0.00000  -0.16338  -0.15399  -2.27420
    Z3        0.56736   0.00077   0.00000   0.01688   0.01817   0.58553
    X4        6.12857  -0.00006   0.00000  -0.02549  -0.01783   6.11075
    Y4       -2.87534  -0.00067   0.00000  -0.08683  -0.07464  -2.94998
    Z4        0.93514   0.00011   0.00000   0.00870   0.01024   0.94538
    X5        2.18661  -0.00027   0.00000  -0.01035  -0.00486   2.18175
    Y5       -1.39324  -0.00089   0.00000  -0.04683  -0.04057  -1.43380
    Z5        0.16570   0.00011   0.00000   0.00523   0.00617   0.17186
    X6       -0.15711   0.00006   0.00000   0.00528   0.00885  -0.14826
    Y6       -0.06616   0.00006   0.00000  -0.01703  -0.01432  -0.08048
    Z6       -0.36540  -0.00001   0.00000   0.00370   0.00394  -0.36146
    X7       -0.21163   0.00016   0.00000   0.02641   0.02688  -0.18476
    Y7        2.17772   0.00007   0.00000  -0.01524  -0.01286   2.16486
    Z7       -0.73805   0.00001   0.00000   0.00838   0.00697  -0.73108
    X8       -2.13912  -0.00005   0.00000  -0.00770  -0.00206  -2.14118
    Y8       -1.60111   0.00019   0.00000   0.00035   0.00031  -1.60080
    Z8       -0.39300  -0.00005   0.00000  -0.00251  -0.00089  -0.39389
    X9       -4.56039  -0.00003   0.00000  -0.00248   0.00150  -4.55889
    Y9       -0.43960   0.00009   0.00000   0.00971   0.00602  -0.43358
    Z9       -0.87868  -0.00002   0.00000  -0.00239  -0.00131  -0.87999
   X10       -5.59177  -0.00003   0.00000  -0.00177   0.00083  -5.59094
   Y10        0.80866   0.00001   0.00000   0.00624   0.00289   0.81155
   Z10        1.48387   0.00001   0.00000  -0.00037  -0.00008   1.48379
   X11       -5.74503  -0.00000   0.00000  -0.00552   0.00050  -5.74452
   Y11       -2.00320   0.00000   0.00000   0.01291   0.00715  -1.99605
   Z11       -1.49601  -0.00000   0.00000  -0.00547  -0.00308  -1.49910
   X12       -4.34349  -0.00001   0.00000   0.00203   0.00396  -4.33953
   Y12        0.91245   0.00001   0.00000   0.01109   0.00656   0.91901
   Z12       -2.41862  -0.00000   0.00000  -0.00039  -0.00034  -2.41896
   X13       -7.48131  -0.00000   0.00000  -0.00165  -0.00010  -7.48142
   Y13        1.54424  -0.00000   0.00000   0.00705   0.00085   1.54509
   Z13        1.10447   0.00000   0.00000   0.00096   0.00097   1.10544
   X14       -5.71983  -0.00000   0.00000  -0.00214   0.00252  -5.71732
   Y14       -0.55768  -0.00000   0.00000   0.00319   0.00081  -0.55687
   Z14        3.02224  -0.00000   0.00000  -0.00296  -0.00163   3.02060
   X15       -4.38931  -0.00001   0.00000  -0.00067  -0.00013  -4.38944
   Y15        2.37694   0.00000   0.00000   0.00426   0.00299   2.37993
   Z15        2.06532   0.00000   0.00000   0.00246   0.00144   2.06676
         Item               Value     Threshold  Converged?
 Maximum Force            0.008593     0.000450     NO 
 RMS     Force            0.001883     0.000300     NO 
 Maximum Displacement     0.209168     0.001800     NO 
 RMS     Displacement     0.044555     0.001200     NO 
 Predicted change in Energy=-2.408737D-03
 GradGradGradGradGradGradGradGradGradGradGradGradGradGradGradGradGradGrad


 ----------------------------------------------------------------------

 Electric dipole moment (input orientation):
 (Debye = 10**-18 statcoulomb cm , SI units = C m)
                  (au)            (Debye)         (10**-30 SI)
   Tot        0.115108D+01      0.292576D+01      0.975929D+01
   x         -0.106022D+01     -0.269481D+01     -0.898891D+01
   y         -0.447420D+00     -0.113723D+01     -0.379339D+01
   z          0.272809D-01      0.693412D-01      0.231297D+00

 Dipole polarizability, Alpha (input orientation).
 (esu units = cm**3 , SI units = C**2 m**2 J**-1)
 Alpha(0;0):
               (au)            (10**-24 esu)      (10**-40 SI)
   iso        0.714439D+02      0.105869D+02      0.117795D+02
   aniso      0.421117D+02      0.624030D+01      0.694327D+01
   xx         0.974860D+02      0.144459D+02      0.160733D+02
   yx        -0.208162D+01     -0.308464D+00     -0.343212D+00
   yy         0.662608D+02      0.981884D+01      0.109249D+02
   zx         0.334571D+01      0.495783D+00      0.551633D+00
   zy        -0.235017D+01     -0.348259D+00     -0.387491D+00
   zz         0.505848D+02      0.749589D+01      0.834030D+01

 ----------------------------------------------------------------------

 Dipole orientation:
     8          0.67231922         -0.66364107         -6.43754886
     1         -0.26606413          0.55500741         -5.42631523
     6          2.00060989         -3.09060619         -3.12308546
     1          2.91663411         -4.23080651         -4.50500012
     6          1.01440186         -1.88791557         -1.46852747
     6         -0.34033164         -0.14347679          0.16176639
     8         -1.47764057          1.64345978         -0.66903440
     8         -0.16843329         -0.76947106          2.58328764
     6         -1.43671572          0.87861738          4.35044543
     6          0.12613254          3.22165468          4.87121347
     1         -1.66140075         -0.27987533          6.03469982
     1         -3.29078868          1.35670125          3.58863605
     1         -0.80421467          4.36202981          6.31668803
     1          1.99897110          2.69971610          5.55671447
     1          0.31918683          4.36396447          3.16787200

 Electric dipole moment (dipole orientation):
 (Debye = 10**-18 statcoulomb cm , SI units = C m)
                  (au)            (Debye)         (10**-30 SI)
   Tot        0.115108D+01      0.292576D+01      0.975929D+01
   x          0.000000D+00      0.000000D+00      0.000000D+00
   y          0.000000D+00      0.000000D+00      0.000000D+00
   z          0.115108D+01      0.292576D+01      0.975929D+01

 Dipole polarizability, Alpha (dipole orientation).
 (esu units = cm**3 , SI units = C**2 m**2 J**-1)
 Alpha(0;0):
               (au)            (10**-24 esu)      (10**-40 SI)
   iso        0.714439D+02      0.105869D+02      0.117795D+02
   aniso      0.421117D+02      0.624030D+01      0.694327D+01
   xx         0.566972D+02      0.840166D+01      0.934811D+01
   yx        -0.104219D+02     -0.154436D+01     -0.171834D+01
   yy         0.664856D+02      0.985215D+01      0.109620D+02
   zx        -0.776428D+01     -0.115055D+01     -0.128016D+01
   zy         0.103472D+02      0.153329D+01      0.170602D+01
   zz         0.911488D+02      0.135069D+02      0.150284D+02

 ----------------------------------------------------------------------
 1\1\GINC-AJ\Freq\UM062X\6-311++G(d,p)\C5H7O3(2)\AAYUSH\16-Aug-2025\0\\
 # freq 6-311++g(d,p) m062x\\Title Card Required\\0,2\O,3.321449,0.9003
 53,0.110451\H,2.517983,1.415722,-0.083577\C,2.275509,-1.121966,0.30023
 6\H,3.243102,-1.521566,0.494853\C,1.157102,-0.737269,0.087684\C,-0.083
 141,-0.035009,-0.193362\O,-0.111992,1.152402,-0.390559\O,-1.131971,-0.
 847273,-0.207968\C,-2.413255,-0.232625,-0.464979\C,-2.959038,0.427922,
 0.785228\H,-3.040137,-1.060046,-0.791657\H,-2.298477,0.482849,-1.27988
 1\H,-3.958941,0.817178,0.584463\H,-3.026806,-0.295111,1.599299\H,-2.32
 2725,1.257823,1.092921\\Version=ES64L-G16RevA.03\State=2-A\HF=-420.210
 0001\S2=0.757164\S2-1=0.\S2A=0.750034\RMSD=3.075e-09\RMSF=1.883e-03\Ze
 roPoint=0.1123467\Thermal=0.1208729\Dipole=-1.0602184,-0.4474203,0.027
 2809\DipoleDeriv=-0.208441,0.0898934,0.0117014,-0.0403596,-0.1937229,-
 0.0375908,0.0326381,-0.0205015,-0.3864364,0.2415314,0.0717947,-0.02773
 43,0.1667634,0.3237727,0.021036,-0.0411442,0.0106019,0.3274294,-0.3508
 489,-0.1995315,0.0057324,-0.036693,-0.1832781,0.0096591,-0.0302571,-0.
 008692,-0.0743228,0.2936693,-0.0241628,0.0137834,-0.0076278,0.241359,-
 0.0072975,0.0149777,-0.0105241,0.200489,-0.5443121,0.2749407,-0.083365
 6,0.1070059,-0.3357414,0.0478135,-0.0761345,0.0718374,-0.1438417,2.511
 6013,0.0684218,0.1595219,0.3477672,1.5528818,-0.2125615,0.1943474,-0.1
 790912,0.451665,-0.8961301,0.0763458,-0.0479721,-0.0368815,-1.1000541,
 0.1545044,-0.0408298,0.1395981,-0.3883021,-1.9282168,-0.2144118,-0.017
 1886,-0.3103653,-0.6717555,0.01021,-0.1234877,-0.0078507,-0.3303377,0.
 9909576,-0.084985,-0.0173932,-0.2502446,0.3049805,0.0277972,0.0666965,
 0.0659218,0.3313585,-0.0820411,-0.0061609,0.0098514,0.0478145,0.006766
 4,-0.0459734,0.0156794,-0.0890688,-0.0503127,-0.0483274,-0.0277312,-0.
 0193492,-0.0577579,-0.0324965,-0.0743036,-0.0211412,-0.0440596,0.04526
 74,-0.0182005,-0.0211911,0.0621886,0.0654485,0.0229201,0.0659222,0.002
 2297,0.0314714,-0.0373797,-0.094959,0.0641878,-0.0189317,0.0739474,0.0
 75221,-0.0008016,-0.0205294,0.0153495,0.0548502,0.0872268,0.0145625,0.
 0025191,-0.0082144,-0.0160238,0.088177,0.0344162,0.0452883,-0.0372261,
 0.0464907,-0.0819725,-0.0333634,-0.0606028,0.0051707,-0.0465909,-0.007
 4609,-0.0202805,0.0370998\Polar=97.4860361,-2.0816178,66.260825,3.3457
 114,-2.3501707,50.5847666\Quadrupole=2.1520541,-1.3541137,-0.7979404,-
 3.1782063,0.8962481,-0.1299421\PG=C01 [X(C5H7O3)]\NImag=2\\0.35818247,
 -0.21025668,0.15896216,0.08327924,-0.05491123,0.02001273,-0.34997026,0
 .22023698,-0.08346378,0.34880761,0.21371423,-0.14548200,0.05280423,-0.
 21388289,0.15115581,-0.08238155,0.05369059,-0.02203445,0.08213683,-0.0
 5363315,0.02271607,0.00321972,0.00704911,-0.00083348,-0.00149080,0.001
 46974,-0.00042340,1.30430862,-0.00039036,-0.00625618,0.00107935,-0.002
 33897,-0.00150960,-0.00007123,-0.48594763,0.23899444,0.00035672,0.0020
 4878,0.00046821,0.00020081,0.00043609,-0.00008186,0.24546242,-0.093979
 65,0.10969232,-0.00079422,-0.00330655,0.00039796,0.00025096,0.00041533
 ,-0.00005206,-0.35372742,0.13631423,-0.06537255,0.34631322,-0.00039323
 ,-0.00523426,0.00082419,-0.00019138,-0.00057663,0.00008671,0.14116640,
 -0.08063300,0.02694717,-0.13473507,0.07536993,-0.00006450,0.00045848,0
 .00014188,0.00004363,0.00016839,0.00011626,-0.06611294,0.02625336,-0.0
 4397288,0.06579992,-0.02721872,0.03153047,-0.00928013,-0.01487348,0.00
 097993,-0.00022079,-0.00067283,0.00013393,-0.95026910,0.34680821,-0.17
 909112,0.00743896,-0.00831377,0.00122444,1.23902801,-0.00297713,-0.002
 18866,0.00020489,-0.00304803,-0.00258429,-0.00002441,0.34117925,-0.154
 93297,0.06533332,-0.00017335,0.00669832,0.00017831,-0.44147180,0.29174
 066,-0.00098954,-0.00140505,0.00154320,0.00054909,0.00029557,-0.000296
 41,-0.17819563,0.06609770,-0.06930049,-0.00007662,-0.00092603,0.008201
 34,0.23033671,-0.09702645,0.10609478,0.00026575,0.00242387,-0.00023589
 ,-0.00017319,-0.00417244,0.00048035,0.00468909,0.00296872,-0.00012493,
 -0.00069355,0.00284843,-0.00134880,-0.22409141,0.08519147,-0.03435419,
 0.63772185,0.00343933,-0.00102425,0.00053443,-0.00731877,0.00111354,-0
 .00106456,-0.00726802,0.00306012,-0.00101093,0.00173680,0.00429670,0.0
 0048415,0.08139978,-0.09792236,0.01478242,-0.01933716,0.97345875,-0.00
 040631,0.00038658,-0.00084453,0.00102043,-0.00058582,0.00119367,0.0014
 3319,0.00034639,0.00239186,-0.00111954,0.00061658,0.00555095,-0.033796
 96,0.01568770,-0.07905206,0.06134235,-0.12693206,0.23916198,-0.0011713
 7,-0.00075977,-0.00015210,0.00180231,0.00183521,0.00019997,-0.00187775
 ,0.00046573,-0.00038746,0.00019095,-0.00129010,0.00037708,-0.00118263,
 0.04057132,-0.00982519,-0.11139115,0.04001805,-0.01108837,0.10917534,-
 0.00211591,0.00121337,-0.00037522,0.00446778,-0.00209467,0.00068645,-0
 .00014818,0.00181690,-0.00021948,-0.00016600,0.00074343,-0.00031000,0.
 03624541,-0.05283471,0.01708333,0.02492434,-0.71803227,0.10713385,-0.0
 1404588,0.85262148,0.00009621,-0.00017458,0.00079431,-0.00025973,0.000
 29417,-0.00178657,-0.00029028,-0.00017255,0.00046886,0.00018064,-0.000
 45203,-0.00089959,-0.00910360,0.01765924,0.01768789,-0.00794845,0.1107
 8142,-0.09957705,0.01266698,-0.13490628,0.05902695,-0.00065899,-0.0005
 6891,-0.00001278,0.00148762,0.00164022,-0.00006643,-0.00520521,0.00220
 511,-0.00112509,0.00122913,0.00073438,0.00013577,-0.06130904,-0.016636
 45,-0.00755873,-0.24779601,-0.10094524,-0.00564932,0.00237311,-0.05919
 056,0.00365406,0.54161559,-0.00100620,0.00004812,-0.00015814,0.0019311
 1,-0.00023614,0.00034067,0.00346127,-0.00110937,0.00068668,-0.00019302
 ,-0.00080168,0.00003584,0.00482243,0.01362208,0.00049447,-0.07786914,-
 0.18219630,0.00851678,-0.06082726,-0.07998547,0.00912588,0.07177014,0.
 37399751,0.00007175,-0.00009827,-0.00004417,-0.00012565,0.00028538,0.0
 0013393,-0.00116907,0.00052700,0.00043753,0.00024088,0.00015404,-0.000
 36936,-0.01028922,-0.00260578,0.00937065,-0.01164418,0.00466201,-0.069
 29173,0.00537100,0.00973349,0.02965526,0.04725347,-0.03658939,0.096590
 86,0.00023504,0.00014683,0.00005395,-0.00061368,-0.00059292,-0.0000403
 4,0.00122933,-0.00049740,0.00024890,-0.00037307,0.00012815,-0.00009936
 ,0.00220343,-0.00140310,0.00064032,-0.06460174,-0.01264185,-0.00912100
 ,0.00459610,0.01756509,-0.00185094,-0.15071412,0.03225190,-0.01986749,
 0.48525652,-0.00002579,-0.00005244,0.00001833,0.00017658,0.00026012,-0
 .00005184,-0.00126220,0.00074947,-0.00025615,0.00015325,0.00016693,-0.
 00004811,-0.00550311,-0.00221323,0.00015342,-0.01309053,0.02653369,-0.
 00629136,-0.00307087,-0.00834282,-0.00009877,0.05413182,-0.11845719,0.
 01912501,0.10062627,0.59934218,0.00003584,0.00001526,-0.00005724,-0.00
 009041,-0.00007759,0.00008042,0.00021206,-0.00011364,-0.00012728,-0.00
 002383,-0.00003007,-0.00030970,-0.00038151,0.00078499,0.00614805,-0.00
 919576,-0.00906446,0.00047208,-0.00040713,0.00368446,-0.00644711,-0.02
 331921,0.01730026,-0.07296602,0.00698452,-0.02385226,0.55967558,-0.000
 02044,-0.00004450,-0.00000868,0.00006760,0.00012392,0.00000110,-0.0003
 3688,0.00008978,-0.00004185,0.00007608,0.00003200,0.00010286,-0.000566
 61,-0.00047645,-0.00150866,0.00333903,0.00759299,0.00204553,-0.0000849
 4,-0.00259529,0.00113045,-0.03366069,0.02159763,0.02811657,-0.08576101
 ,0.00808927,0.02819971,0.57352531,0.00004260,0.00000554,-0.00002786,-0
 .00007065,-0.00002793,0.00004945,0.00012104,-0.00003568,-0.00005138,-0
 .00002367,0.00000069,-0.00002933,0.00037324,0.00009430,0.00079905,-0.0
 0191109,0.00020337,0.00028793,0.00139190,0.00022025,-0.00176642,0.0165
 2673,-0.00826953,-0.01080710,0.01099601,-0.10541082,-0.04579716,0.0180
 5166,0.57070865,-0.00001122,-0.00001770,0.00000808,0.00002392,0.000045
 79,-0.00002223,-0.00021717,0.00011455,0.00001186,0.00002954,-0.0000008
 8,0.00003682,0.00005119,-0.00034217,-0.00067109,0.00195892,0.00467856,
 0.00054730,0.00079006,-0.00243266,-0.00026860,-0.00472967,0.00161568,0
 .01052173,0.03924325,-0.05029745,-0.18493641,0.03187134,-0.03380559,0.
 52534177,-0.00002582,-0.00002746,0.00000204,0.00005890,0.00009313,-0.0
 0000220,-0.00043433,0.00026518,-0.00009217,0.00006256,0.00002036,-0.00
 001700,-0.00139310,-0.00069990,0.00025566,-0.00130167,0.00555349,-0.00
 291080,0.00052294,-0.00119763,0.00030641,-0.03633283,-0.02129888,-0.00
 983654,-0.13104420,-0.11666340,-0.04356914,0.01002716,0.01065807,0.003
 94133,0.15966787,-0.00002109,0.00000182,0.00001039,0.00002523,-0.00001
 037,-0.00001374,0.00014408,-0.00015169,0.00006953,-0.00000503,-0.00002
 022,0.00002319,0.00067739,0.00044714,-0.00042214,0.00238278,-0.0035773
 0,0.00160911,-0.00142059,0.00178669,-0.00070406,0.01790656,0.01341384,
 0.00651022,-0.12998487,-0.21936393,-0.06194740,-0.00682551,-0.00957309
 ,-0.00315622,0.12586897,0.22918539,0.00000514,0.00000059,0.00000631,-0
 .00001702,-0.00000628,-0.00001291,-0.00004917,0.00001248,-0.00002274,0
 .00000663,0.00000518,-0.00001476,-0.00031884,-0.00005223,0.00022465,0.
 00060643,0.00315280,-0.00071610,0.00139433,-0.00090911,0.00082645,-0.0
 0836926,-0.00447692,-0.00123989,-0.04427578,-0.05837884,-0.07569514,-0
 .01550172,-0.02299920,-0.00845060,0.05006451,0.06734084,0.07785744,0.0
 0001330,-0.00001802,0.00000904,-0.00001136,0.00003669,-0.00001217,-0.0
 0008134,0.00003948,-0.00005491,0.00004215,-0.00000198,-0.00004821,-0.0
 0037209,-0.00008062,0.00101675,0.00388856,0.00731647,-0.00213362,-0.00
 116364,-0.00362391,0.00008536,-0.01347679,0.02660255,-0.02895626,-0.05
 499377,-0.03029175,0.03149065,0.00000503,-0.00873661,0.00923368,-0.000
 06610,-0.01076037,0.01423480,0.06609239,0.00001836,0.00001245,-0.00001
 797,-0.00004032,-0.00003563,0.00002504,0.00010560,-0.00001315,-0.00003
 334,-0.00002687,0.00000860,-0.00000809,0.00037023,-0.00010870,0.000360
 98,-0.00380878,-0.00159409,-0.00029461,-0.00136021,0.00073312,-0.00113
 058,0.01020527,-0.01153461,0.01050622,-0.02156381,-0.16749460,0.132652
 84,0.00118924,0.01217669,-0.01337856,-0.00290886,-0.01337741,0.0173653
 5,0.01731108,0.18125890,0.00001970,-0.00000130,0.00000840,-0.00003873,
 -0.00000511,-0.00001211,0.00006377,-0.00001980,0.00003168,0.00000108,0
 .00001659,-0.00000576,-0.00010357,-0.00025523,-0.00009332,0.00167209,0
 .00432201,0.00030106,0.00147086,-0.00201190,0.00059672,-0.00652238,0.0
 0385545,-0.00283431,0.02310809,0.13041566,-0.20075208,0.00453942,0.017
 30845,-0.02004649,-0.00001808,-0.00714641,0.00950769,-0.02586844,-0.14
 390458,0.21503169,-0.00002388,-0.00001944,0.00001072,0.00005089,0.0000
 5528,-0.00001694,-0.00010500,0.00001335,0.00000608,0.00003580,-0.00000
 838,0.00001156,-0.00013902,0.00004073,-0.00028464,0.00169893,0.0006626
 1,-0.00014044,-0.00036498,-0.00028794,0.00050082,-0.00085902,0.0006478
 3,0.00271143,-0.01065186,0.00234925,-0.00464756,-0.27520071,0.08919624
 ,-0.04620498,0.00036599,0.00022763,0.00018043,0.00012153,-0.00031053,0
 .00032590,0.29736323,0.00000374,0.00000817,0.00000735,-0.00000831,-0.0
 0001916,-0.00000849,0.00004663,-0.00000298,0.00002800,-0.00001768,-0.0
 0000373,-0.00000879,0.00016594,0.00007258,0.00004524,-0.00126052,-0.00
 253928,-0.00031060,-0.00033172,0.00113240,0.00035488,0.00396040,-0.000
 26301,-0.00320627,0.01144597,-0.00562115,0.00563821,0.08828271,-0.0800
 6698,0.01694278,-0.00049465,-0.00005640,0.00039605,-0.00010117,0.00040
 206,-0.00001448,-0.09836169,0.08377930,0.00000025,0.00001162,0.0000133
 4,-0.00001445,-0.00003034,-0.00001185,0.00014581,-0.00006492,0.0000102
 1,-0.00001849,-0.00001092,-0.00002476,0.00022080,0.00023338,0.00041453
 ,-0.00136847,-0.00270641,-0.00046244,-0.00000983,0.00118673,-0.0001538
 8,0.00664715,-0.00329992,-0.00468538,0.02379339,-0.00739849,0.00847667
 ,-0.04795915,0.01805718,-0.05759909,-0.00081569,-0.00003604,0.00103450
 ,-0.00039132,0.00113521,0.00055609,0.05010243,-0.01809032,0.05888603,-
 0.00000093,0.00000531,-0.00001315,0.00000303,-0.00002206,0.00001243,0.
 00000751,0.00001834,-0.00000889,-0.00002142,-0.00000307,0.00000715,0.0
 0003693,0.00005533,-0.00003814,-0.00089858,-0.00153131,0.00028172,-0.0
 0034113,0.00088894,0.00007648,0.00197192,-0.00079614,-0.00069021,-0.00
 274163,-0.00762868,0.01036612,-0.04809369,-0.01205901,0.01066107,0.000
 19682,0.00023931,-0.00079574,-0.00018503,0.00122960,0.00214432,0.00349
 545,0.01969926,-0.02288789,0.04740962,-0.00000818,-0.00000411,-0.00001
 601,0.00001934,0.00000359,0.00001582,-0.00004301,0.00000700,-0.0000000
 2,0.00000595,-0.00000173,0.00001096,-0.00005400,0.00007145,-0.00014285
 ,0.00029320,-0.00028108,0.00036184,-0.00036917,0.00032108,0.00024819,-
 0.00194445,0.00086966,0.00065374,0.00169319,0.01150300,-0.01416272,-0.
 01193850,-0.17205642,0.13678286,-0.00044102,0.00092528,0.00069732,0.00
 186141,-0.00104188,-0.00300409,-0.00169590,-0.00766815,0.00685333,0.01
 169818,0.18212655,0.00000623,0.00000247,0.00000830,-0.00001003,-0.0000
 0659,-0.00000892,0.00004750,-0.00002569,0.00001621,-0.00000371,0.00000
 484,-0.00000170,0.00006656,0.00000439,-0.00004114,0.00022521,0.0003883
 0,-0.00014491,-0.00007023,-0.00022121,0.00019298,-0.00127884,0.0000708
 8,0.00284416,0.00120380,0.02014702,-0.02378992,0.01214433,0.13391593,-
 0.19600830,-0.00043837,0.00000793,0.00089703,0.00197430,-0.00366540,-0
 .00328104,0.00031366,0.00232202,-0.00376439,-0.01460785,-0.14611503,0.
 21496894,0.00002976,0.00001270,-0.00001301,-0.00004883,-0.00004062,0.0
 0003048,0.00007355,-0.00001376,0.00002406,-0.00003014,0.00000724,-0.00
 001160,0.00011660,-0.00007129,0.00003281,-0.00065590,0.00132282,0.0002
 4313,-0.00108316,-0.00072028,0.00075559,0.00133534,-0.00109422,-0.0011
 8650,0.00797464,0.01200988,0.00434564,-0.14331525,-0.12455648,-0.04664
 125,-0.00030419,0.00154551,0.00283526,0.00018718,-0.00041001,-0.000794
 02,-0.01578736,-0.02302891,-0.00744455,-0.00083886,0.00092298,0.000427
 44,0.15234662,-0.00002370,-0.00000973,0.00002328,0.00004231,0.00004335
 ,-0.00002732,-0.00007408,0.00001667,0.00000138,0.00002169,-0.00001335,
 0.00001037,0.00002637,0.00003838,-0.00018966,0.00041682,-0.00149923,-0
 .00053229,-0.00080664,0.00070122,0.00094151,0.00020495,0.00090209,0.00
 114970,-0.00816947,-0.01159921,-0.00503071,-0.12316896,-0.20796904,-0.
 05674901,0.00127260,0.00037023,-0.00214803,0.00044674,0.00060824,0.000
 44474,0.00749095,0.01084634,0.00415989,-0.01179401,-0.01477424,-0.0068
 2987,0.13411442,0.22233826,-0.00001796,-0.00000624,-0.00002437,0.00004
 509,0.00001527,0.00002696,-0.00007360,0.00001666,-0.00002347,0.0000101
 6,-0.00001666,0.00002079,0.00007127,0.00022004,-0.00023057,-0.00006469
 ,-0.00300768,0.00046991,-0.00032997,0.00187755,-0.00011662,0.00094125,
 0.00248179,0.00187674,-0.02002130,-0.02318617,-0.00977191,-0.04313124,
 -0.05513396,-0.06846476,0.00313004,-0.00214517,-0.00420194,-0.00057966
 ,0.00038749,0.00099178,-0.00286847,-0.00409558,-0.00268957,0.01549258,
 0.01781666,0.00811269,0.04739652,0.06477601,0.07402433\\-0.00361322,-0
 .00859299,0.00091181,-0.00011553,-0.00011254,0.00000979,0.00348115,0.0
 0758916,-0.00076530,0.00006332,0.00067438,-0.00010506,0.00027177,0.000
 88660,-0.00011347,-0.00005573,-0.00006205,0.00000598,-0.00016379,-0.00
 007324,-0.00000519,0.00005369,-0.00019165,0.00005326,0.00003259,-0.000
 09180,0.00002107,0.00002881,-0.00001143,-0.00001142,0.00000018,-0.0000
 0419,0.00000437,0.00000782,-0.00001133,0.00000138,0.00000389,0.0000004
 8,-0.00000435,0.00000003,0.00000274,0.00000155,0.00000501,-0.00000215,
 -0.00000441\\\@


 BE CAREFUL NOT TO BECOME TOO GOOD OF A SONGBIRD OR 
 THEY'LL THROW YOU INTO A CAGE.

                                    -- SNOOPY TO WOODSTOCK
 Job cpu time:       0 days  0 hours 53 minutes 14.7 seconds.
 Elapsed time:       0 days  0 hours  2 minutes 13.4 seconds.
 File lengths (MBytes):  RWF=    153 Int=      0 D2E=      0 Chk=      6 Scr=      1
 Normal termination of Gaussian 16 at Sat Aug 16 17:45:35 2025.
