 Entering Gaussian System, Link 0=g16
 Initial command:
 /opt/g16/l1.exe "/home/aayush/scratches/g16/Gau-55687.inp" -scrdir="/home/aayush/scratches/g16/"
 Entering Link 1 = /opt/g16/l1.exe PID=     55690.
  
 Copyright (c) 1988,1990,1992,1993,1995,1998,2003,2009,2016,
            Gaussian, Inc.  All Rights Reserved.
  
 This is part of the Gaussian(R) 16 program.  It is based on
 the Gaussian(R) 09 system (copyright 2009, Gaussian, Inc.),
 the Gaussian(R) 03 system (copyright 2003, Gaussian, Inc.),
 the Gaussian(R) 98 system (copyright 1998, Gaussian, Inc.),
 the Gaussian(R) 94 system (copyright 1995, Gaussian, Inc.),
 the Gaussian 92(TM) system (copyright 1992, Gaussian, Inc.),
 the Gaussian 90(TM) system (copyright 1990, Gaussian, Inc.),
 the Gaussian 88(TM) system (copyright 1988, Gaussian, Inc.),
 the Gaussian 86(TM) system (copyright 1986, Carnegie Mellon
 University), and the Gaussian 82(TM) system (copyright 1983,
 Carnegie Mellon University). Gaussian is a federally registered
 trademark of Gaussian, Inc.
  
 This software contains proprietary and confidential information,
 including trade secrets, belonging to Gaussian, Inc.
  
 This software is provided under written license and may be
 used, copied, transmitted, or stored only in accord with that
 written license.
  
 The following legend is applicable only to US Government
 contracts under FAR:
  
                    RESTRICTED RIGHTS LEGEND
  
 Use, reproduction and disclosure by the US Government is
 subject to restrictions as set forth in subparagraphs (a)
 and (c) of the Commercial Computer Software - Restricted
 Rights clause in FAR 52.227-19.
  
 Gaussian, Inc.
 340 Quinnipiac St., Bldg. 40, Wallingford CT 06492
  
  
 ---------------------------------------------------------------
 Warning -- This program may not be used in any manner that
 competes with the business of Gaussian, Inc. or will provide
 assistance to any competitor of Gaussian, Inc.  The licensee
 of this program is prohibited from giving any competitor of
 Gaussian, Inc. access to this program.  By using this program,
 the user acknowledges that Gaussian, Inc. is engaged in the
 business of creating and licensing software in the field of
 computational chemistry and represents and warrants to the
 licensee that it is not a competitor of Gaussian, Inc. and that
 it will not use this program in any manner prohibited above.
 ---------------------------------------------------------------
  

 Cite this work as:
 Gaussian 16, Revision A.03,
 M. J. Frisch, G. W. Trucks, H. B. Schlegel, G. E. Scuseria, 
 M. A. Robb, J. R. Cheeseman, G. Scalmani, V. Barone, 
 G. A. Petersson, H. Nakatsuji, X. Li, M. Caricato, A. V. Marenich, 
 J. Bloino, B. G. Janesko, R. Gomperts, B. Mennucci, H. P. Hratchian, 
 J. V. Ortiz, A. F. Izmaylov, J. L. Sonnenberg, D. Williams-Young, 
 F. Ding, F. Lipparini, F. Egidi, J. Goings, B. Peng, A. Petrone, 
 T. Henderson, D. Ranasinghe, V. G. Zakrzewski, J. Gao, N. Rega, 
 G. Zheng, W. Liang, M. Hada, M. Ehara, K. Toyota, R. Fukuda, 
 J. Hasegawa, M. Ishida, T. Nakajima, Y. Honda, O. Kitao, H. Nakai, 
 T. Vreven, K. Throssell, J. A. Montgomery, Jr., J. E. Peralta, 
 F. Ogliaro, M. J. Bearpark, J. J. Heyd, E. N. Brothers, K. N. Kudin, 
 V. N. Staroverov, T. A. Keith, R. Kobayashi, J. Normand, 
 K. Raghavachari, A. P. Rendell, J. C. Burant, S. S. Iyengar, 
 J. Tomasi, M. Cossi, J. M. Millam, M. Klene, C. Adamo, R. Cammi, 
 J. W. Ochterski, R. L. Martin, K. Morokuma, O. Farkas, 
 J. B. Foresman, and D. J. Fox, Gaussian, Inc., Wallingford CT, 2016.
 
 ******************************************
 Gaussian 16:  ES64L-G16RevA.03 25-Dec-2016
                16-Aug-2025 
 ******************************************
 %chk=ethyl_propiolate.chk
 %nprocshared=24
 Will use up to   24 processors via shared memory.
 %mem=12GB
 --------------------------
 # freq 6-311++g(d,p) m062x
 --------------------------
 1/10=4,30=1,38=1/1,3;
 2/12=2,17=6,18=5,40=1/2;
 3/5=4,6=6,7=1111,11=2,25=1,30=1,71=2,74=-55,140=1/1,2,3;
 4//1;
 5/5=2,38=5,98=1/2;
 8/6=4,10=90,11=11/1;
 11/6=1,8=1,9=11,15=111,16=1/1,2,10;
 10/6=1/2;
 6/7=2,8=2,9=2,10=2,28=1/1;
 7/8=1,10=1,25=1/1,2,3,16;
 1/10=4,30=1/3;
 99//99;
 -------------------
 Title Card Required
 -------------------
 Symbolic Z-matrix:
 Charge =  0 Multiplicity = 2
 O                     3.29043   0.83342   0.11718 
 H                     2.5175    1.39132  -0.079 
 C                     2.31199  -1.03288   0.29061 
 H                     3.2571   -1.4827    0.49062 
 C                     1.16006  -0.73383   0.08749 
 C                    -0.0834   -0.03601  -0.19322 
 O                    -0.11154   1.15122  -0.39029 
 O                    -1.13181  -0.84835  -0.20773 
 C                    -2.41323  -0.23305  -0.46488 
 C                    -2.95888   0.42792   0.78516 
 H                    -3.04034  -1.06031  -0.79145 
 H                    -2.298     0.48215  -1.27994 
 H                    -3.95871   0.81722   0.58412 
 H                    -3.02694  -0.29489   1.5994 
 H                    -2.32257   1.25786   1.09274 
 

 GradGradGradGradGradGradGradGradGradGradGradGradGradGradGradGradGradGrad
 Berny optimization.
 Initialization pass.
 Trust Radius=3.00D-01 FncErr=1.00D-07 GrdErr=1.00D-07 EigMax=2.50D+02 EigMin=1.00D-04
 Number of steps in this run=      2 maximum allowed number of steps=      2.
 GradGradGradGradGradGradGradGradGradGradGradGradGradGradGradGradGradGrad

                          Input orientation:                          
 ---------------------------------------------------------------------
 Center     Atomic      Atomic             Coordinates (Angstroms)
 Number     Number       Type             X           Y           Z
 ---------------------------------------------------------------------
      1          8           0        3.290428    0.833419    0.117177
      2          1           0        2.517496    1.391323   -0.078997
      3          6           0        2.311989   -1.032879    0.290612
      4          1           0        3.257099   -1.482697    0.490620
      5          6           0        1.160062   -0.733834    0.087489
      6          6           0       -0.083396   -0.036006   -0.193219
      7          8           0       -0.111542    1.151220   -0.390288
      8          8           0       -1.131810   -0.848352   -0.207731
      9          6           0       -2.413231   -0.233048   -0.464881
     10          6           0       -2.958879    0.427917    0.785158
     11          1           0       -3.040340   -1.060310   -0.791454
     12          1           0       -2.297995    0.482150   -1.279936
     13          1           0       -3.958706    0.817219    0.584119
     14          1           0       -3.026942   -0.294891    1.599400
     15          1           0       -2.322572    1.257861    1.092735
 ---------------------------------------------------------------------
                    Distance matrix (angstroms):
                    1          2          3          4          5
     1  O    0.000000
     2  H    0.973224   0.000000
     3  C    2.114354   2.460813   0.000000
     4  H    2.346266   3.021832   1.065632   0.000000
     5  C    2.644924   2.527180   1.207320   2.262935   0.000000
     6  C    3.497847   2.968999   2.639265   3.703979   1.453255
     7  O    3.454261   2.658269   3.332779   4.365920   2.323505
     8  O    4.742374   4.283708   3.484558   4.489166   2.313644
     9  C    5.831627   5.205723   4.851619   5.884492   3.650250
    10  C    6.297973   5.627219   5.491862   6.509653   4.336137
    11  H    6.670116   6.116179   5.460682   6.440486   4.303778
    12  H    5.771117   5.045573   5.100381   6.152606   3.912368
    13  H    7.264175   6.535328   6.544511   7.574048   5.371610
    14  H    6.586291   6.033335   5.546326   6.490720   4.473203
    15  H    5.712936   4.981669   5.231639   6.245473   4.135953
                    6          7          8          9         10
     6  C    0.000000
     7  O    1.203800   0.000000
     8  O    1.326382   2.252235   0.000000
     9  C    2.353881   2.686919   1.444564   0.000000
    10  C    3.072596   3.164201   2.439851   1.515653   0.000000
    11  H    3.186001   3.691837   2.007024   1.088245   2.169599
    12  H    2.520692   2.453509   2.068779   1.090460   2.168945
    13  H    4.043547   3.982675   3.375277   2.142885   1.091617
    14  H    3.456149   3.814401   2.676484   2.154466   1.090905
    15  H    2.888196   2.664467   2.746864   2.158054   1.090090
                   11         12         13         14         15
    11  H    0.000000
    12  H    1.780133   0.000000
    13  H    2.502142   2.518915   0.000000
    14  H    2.510424   3.070136   1.770810   0.000000
    15  H    3.072340   2.496377   1.769121   1.778731   0.000000
 Stoichiometry    C5H7O3(2)
 Framework group  C1[X(C5H7O3)]
 Deg. of freedom    39
 Full point group                 C1      NOp   1
 Largest Abelian subgroup         C1      NOp   1
 Largest concise Abelian subgroup C1      NOp   1
                         Standard orientation:                         
 ---------------------------------------------------------------------
 Center     Atomic      Atomic             Coordinates (Angstroms)
 Number     Number       Type             X           Y           Z
 ---------------------------------------------------------------------
      1          8           0        3.364209    0.816750    0.108394
      2          1           0        2.592488    1.377188   -0.085309
      3          6           0        2.381807   -1.048263    0.273018
      4          1           0        3.325933   -1.500998    0.471083
      5          6           0        1.230547   -0.745849    0.071106
      6          6           0       -0.011390   -0.044104   -0.206554
      7          8           0       -0.036999    1.144080   -0.398117
      8          8           0       -1.061513   -0.854159   -0.224997
      9          6           0       -2.341591   -0.234966   -0.479488
     10          6           0       -2.886049    0.421343    0.773520
     11          1           0       -2.970390   -1.059379   -0.809992
     12          1           0       -2.224712    0.483760   -1.291198
     13          1           0       -3.885019    0.813682    0.574134
     14          1           0       -2.955771   -0.305090    1.584389
     15          1           0       -2.248043    1.248506    1.085042
 ---------------------------------------------------------------------
 Rotational constants (GHZ):           5.3028146           0.9482518           0.8635442
 Standard basis: 6-311++G(d,p) (5D, 7F)
 There are   233 symmetry adapted cartesian basis functions of A   symmetry.
 There are   225 symmetry adapted basis functions of A   symmetry.
   225 basis functions,   351 primitive gaussians,   233 cartesian basis functions
    31 alpha electrons       30 beta electrons
       nuclear repulsion energy       348.8679068067 Hartrees.
 NAtoms=   15 NActive=   15 NUniq=   15 SFac= 1.00D+00 NAtFMM=   60 NAOKFM=F Big=F
 Integral buffers will be    131072 words long.
 Raffenetti 2 integral format.
 Two-electron integral symmetry is turned on.
 One-electron integrals computed using PRISM.
 NBasis=   225 RedAO= T EigKep=  1.74D-06  NBF=   225
 NBsUse=   225 1.00D-06 EigRej= -1.00D+00 NBFU=   225
 ExpMin= 3.60D-02 ExpMax= 8.59D+03 ExpMxC= 1.30D+03 IAcc=3 IRadAn=         5 AccDes= 0.00D+00
 Harris functional with IExCor= 1009 and IRadAn=       5 diagonalized for initial guess.
 HarFok:  IExCor= 1009 AccDes= 0.00D+00 IRadAn=         5 IDoV= 1 UseB2=F ITyADJ=14
 ICtDFT=  3500011 ScaDFX=  1.000000  1.000000  1.000000  1.000000
 FoFCou: FMM=F IPFlag=           0 FMFlag=      100000 FMFlg1=           0
         NFxFlg=           0 DoJE=T BraDBF=F KetDBF=T FulRan=T
         wScrn=  0.000000 ICntrl=       500 IOpCl=  0 I1Cent=   200000004 NGrid=           0
         NMat0=    1 NMatS0=      1 NMatT0=    0 NMatD0=    1 NMtDS0=    0 NMtDT0=    0
 Petite list used in FoFCou.
 Initial guess <Sx>= 0.0000 <Sy>= 0.0000 <Sz>= 0.5000 <S**2>= 0.7500 S= 0.5000
 Requested convergence on RMS density matrix=1.00D-08 within 128 cycles.
 Requested convergence on MAX density matrix=1.00D-06.
 Requested convergence on             energy=1.00D-06.
 No special actions if energy rises.
 Restarting incremental Fock formation.
 SCF Done:  E(UM062X) =  -420.206529867     A.U. after   24 cycles
            NFock= 24  Conv=0.40D-08     -V/T= 2.0032
 <Sx>= 0.0000 <Sy>= 0.0000 <Sz>= 0.5000 <S**2>= 0.7642 S= 0.5071
 <L.S>=  0.00000000000    
 Annihilation of the first spin contaminant:
 S**2 before annihilation     0.7642,   after     0.7501
 DoSCS=F DFT=T ScalE2(SS,OS)=  1.000000  1.000000
 Range of M.O.s used for correlation:     1   225
 NBasis=   225 NAE=    31 NBE=    30 NFC=     0 NFV=     0
 NROrb=    225 NOA=    31 NOB=    30 NVA=   194 NVB=   195

 **** Warning!!: The largest alpha MO coefficient is  0.20884646D+03


 **** Warning!!: The largest beta MO coefficient is  0.20554724D+03

 Symmetrizing basis deriv contribution to polar:
 IMax=3 JMax=2 DiffMx= 0.00D+00
 G2DrvN: will do    16 centers at a time, making    1 passes.
 Calling FoFCou, ICntrl=  3107 FMM=F I1Cent=   0 AccDes= 0.00D+00.
 End of G2Drv F.D. properties file   721 does not exist.
 End of G2Drv F.D. properties file   722 does not exist.
 End of G2Drv F.D. properties file   788 does not exist.
          IDoAtm=111111111111111
          Differentiating once with respect to electric field.
                with respect to dipole field.
          Differentiating once with respect to nuclear coordinates.
 Keep R1 and R2 ints in memory in canonical form, NReq=671901991.
          There are    48 degrees of freedom in the 1st order CPHF.  IDoFFX=6 NUNeed=     3.
     45 vectors produced by pass  0 Test12= 2.47D-14 2.08D-09 XBig12= 1.08D+02 3.95D+00.
 AX will form    45 AO Fock derivatives at one time.
     45 vectors produced by pass  1 Test12= 2.47D-14 2.08D-09 XBig12= 2.63D+01 9.40D-01.
     45 vectors produced by pass  2 Test12= 2.47D-14 2.08D-09 XBig12= 1.03D+00 1.35D-01.
     45 vectors produced by pass  3 Test12= 2.47D-14 2.08D-09 XBig12= 1.20D-02 1.72D-02.
     45 vectors produced by pass  4 Test12= 2.47D-14 2.08D-09 XBig12= 1.46D-04 2.01D-03.
     45 vectors produced by pass  5 Test12= 2.47D-14 2.08D-09 XBig12= 2.26D-06 1.29D-04.
     39 vectors produced by pass  6 Test12= 2.47D-14 2.08D-09 XBig12= 1.65D-08 1.00D-05.
     23 vectors produced by pass  7 Test12= 2.47D-14 2.08D-09 XBig12= 9.73D-11 6.55D-07.
      5 vectors produced by pass  8 Test12= 2.47D-14 2.08D-09 XBig12= 6.95D-13 7.40D-08.
      2 vectors produced by pass  9 Test12= 2.47D-14 2.08D-09 XBig12= 9.18D-15 1.04D-08.
      1 vectors produced by pass 10 Test12= 2.47D-14 2.08D-09 XBig12= 1.37D-15 5.47D-09.
 InvSVY:  IOpt=1 It=  1 EMax= 2.66D-15
 Solved reduced A of dimension   340 with    48 vectors.
 Isotropic polarizability for W=    0.000000       74.14 Bohr**3.
 End of Minotr F.D. properties file   721 does not exist.
 End of Minotr F.D. properties file   722 does not exist.
 End of Minotr F.D. properties file   788 does not exist.

 **********************************************************************

            Population analysis using the SCF density.

 **********************************************************************

 Orbital symmetries:
 Alpha Orbitals:
       Occupied  (A) (A) (A) (A) (A) (A) (A) (A) (A) (A) (A) (A)
                 (A) (A) (A) (A) (A) (A) (A) (A) (A) (A) (A) (A)
                 (A) (A) (A) (A) (A) (A) (A)
       Virtual   (A) (A) (A) (A) (A) (A) (A) (A) (A) (A) (A) (A)
                 (A) (A) (A) (A) (A) (A) (A) (A) (A) (A) (A) (A)
                 (A) (A) (A) (A) (A) (A) (A) (A) (A) (A) (A) (A)
                 (A) (A) (A) (A) (A) (A) (A) (A) (A) (A) (A) (A)
                 (A) (A) (A) (A) (A) (A) (A) (A) (A) (A) (A) (A)
                 (A) (A) (A) (A) (A) (A) (A) (A) (A) (A) (A) (A)
                 (A) (A) (A) (A) (A) (A) (A) (A) (A) (A) (A) (A)
                 (A) (A) (A) (A) (A) (A) (A) (A) (A) (A) (A) (A)
                 (A) (A) (A) (A) (A) (A) (A) (A) (A) (A) (A) (A)
                 (A) (A) (A) (A) (A) (A) (A) (A) (A) (A) (A) (A)
                 (A) (A) (A) (A) (A) (A) (A) (A) (A) (A) (A) (A)
                 (A) (A) (A) (A) (A) (A) (A) (A) (A) (A) (A) (A)
                 (A) (A) (A) (A) (A) (A) (A) (A) (A) (A) (A) (A)
                 (A) (A) (A) (A) (A) (A) (A) (A) (A) (A) (A) (A)
                 (A) (A) (A) (A) (A) (A) (A) (A) (A) (A) (A) (A)
                 (A) (A) (A) (A) (A) (A) (A) (A) (A) (A) (A) (A)
                 (A) (A)
 Beta  Orbitals:
       Occupied  (A) (A) (A) (A) (A) (A) (A) (A) (A) (A) (A) (A)
                 (A) (A) (A) (A) (A) (A) (A) (A) (A) (A) (A) (A)
                 (A) (A) (A) (A) (A) (A)
       Virtual   (A) (A) (A) (A) (A) (A) (A) (A) (A) (A) (A) (A)
                 (A) (A) (A) (A) (A) (A) (A) (A) (A) (A) (A) (A)
                 (A) (A) (A) (A) (A) (A) (A) (A) (A) (A) (A) (A)
                 (A) (A) (A) (A) (A) (A) (A) (A) (A) (A) (A) (A)
                 (A) (A) (A) (A) (A) (A) (A) (A) (A) (A) (A) (A)
                 (A) (A) (A) (A) (A) (A) (A) (A) (A) (A) (A) (A)
                 (A) (A) (A) (A) (A) (A) (A) (A) (A) (A) (A) (A)
                 (A) (A) (A) (A) (A) (A) (A) (A) (A) (A) (A) (A)
                 (A) (A) (A) (A) (A) (A) (A) (A) (A) (A) (A) (A)
                 (A) (A) (A) (A) (A) (A) (A) (A) (A) (A) (A) (A)
                 (A) (A) (A) (A) (A) (A) (A) (A) (A) (A) (A) (A)
                 (A) (A) (A) (A) (A) (A) (A) (A) (A) (A) (A) (A)
                 (A) (A) (A) (A) (A) (A) (A) (A) (A) (A) (A) (A)
                 (A) (A) (A) (A) (A) (A) (A) (A) (A) (A) (A) (A)
                 (A) (A) (A) (A) (A) (A) (A) (A) (A) (A) (A) (A)
                 (A) (A) (A) (A) (A) (A) (A) (A) (A) (A) (A) (A)
                 (A) (A) (A)
 The electronic state is 2-A.
 Alpha  occ. eigenvalues --  -19.69455 -19.65638 -19.64375 -10.71764 -10.61447
 Alpha  occ. eigenvalues --  -10.58985 -10.57763 -10.54501  -1.26849  -1.17542
 Alpha  occ. eigenvalues --   -1.11562  -0.91522  -0.88132  -0.78989  -0.71610
 Alpha  occ. eigenvalues --   -0.65567  -0.62119  -0.59641  -0.57569  -0.54438
 Alpha  occ. eigenvalues --   -0.53369  -0.50304  -0.49339  -0.47631  -0.46106
 Alpha  occ. eigenvalues --   -0.42930  -0.41768  -0.40316  -0.39552  -0.37391
 Alpha  occ. eigenvalues --   -0.34337
 Alpha virt. eigenvalues --   -0.02376  -0.00446   0.00852   0.01443   0.01911
 Alpha virt. eigenvalues --    0.02600   0.03967   0.05055   0.05339   0.06075
 Alpha virt. eigenvalues --    0.06611   0.07343   0.08062   0.08865   0.10087
 Alpha virt. eigenvalues --    0.11120   0.11650   0.12218   0.12597   0.12946
 Alpha virt. eigenvalues --    0.13836   0.14360   0.14446   0.15219   0.15694
 Alpha virt. eigenvalues --    0.16151   0.17459   0.17668   0.19229   0.20054
 Alpha virt. eigenvalues --    0.20313   0.21198   0.22425   0.23388   0.23863
 Alpha virt. eigenvalues --    0.24990   0.26157   0.27790   0.28503   0.29291
 Alpha virt. eigenvalues --    0.30286   0.30676   0.31549   0.32620   0.33222
 Alpha virt. eigenvalues --    0.33716   0.34811   0.34891   0.37886   0.38236
 Alpha virt. eigenvalues --    0.40368   0.42347   0.45101   0.46487   0.49341
 Alpha virt. eigenvalues --    0.49723   0.51462   0.54662   0.55951   0.58565
 Alpha virt. eigenvalues --    0.61360   0.62700   0.63779   0.65441   0.66382
 Alpha virt. eigenvalues --    0.66881   0.67881   0.68615   0.70736   0.71902
 Alpha virt. eigenvalues --    0.73164   0.75237   0.76205   0.77954   0.79719
 Alpha virt. eigenvalues --    0.86465   0.87527   0.91643   0.95923   1.00866
 Alpha virt. eigenvalues --    1.01478   1.04526   1.07147   1.07900   1.11058
 Alpha virt. eigenvalues --    1.12664   1.14529   1.17366   1.18839   1.19571
 Alpha virt. eigenvalues --    1.21563   1.24120   1.26172   1.31760   1.32712
 Alpha virt. eigenvalues --    1.34369   1.36146   1.37224   1.41782   1.43814
 Alpha virt. eigenvalues --    1.44624   1.48097   1.50214   1.51472   1.52731
 Alpha virt. eigenvalues --    1.57495   1.59200   1.59484   1.61608   1.62925
 Alpha virt. eigenvalues --    1.66721   1.68580   1.69013   1.72573   1.74148
 Alpha virt. eigenvalues --    1.79451   1.82195   1.84345   1.85368   1.86049
 Alpha virt. eigenvalues --    1.93941   1.95515   1.99770   2.01764   2.03660
 Alpha virt. eigenvalues --    2.10709   2.12546   2.13191   2.20843   2.30857
 Alpha virt. eigenvalues --    2.34547   2.39542   2.43286   2.50591   2.53384
 Alpha virt. eigenvalues --    2.54210   2.59566   2.61191   2.61969   2.64524
 Alpha virt. eigenvalues --    2.64748   2.67764   2.70889   2.72671   2.74492
 Alpha virt. eigenvalues --    2.78960   2.82010   2.86527   2.87262   2.89997
 Alpha virt. eigenvalues --    2.92645   2.95437   2.97416   3.00053   3.01257
 Alpha virt. eigenvalues --    3.07484   3.12802   3.13951   3.18197   3.18797
 Alpha virt. eigenvalues --    3.23618   3.25781   3.30508   3.34153   3.39067
 Alpha virt. eigenvalues --    3.42897   3.52584   3.65104   3.72298   3.84222
 Alpha virt. eigenvalues --    3.85465   3.89362   3.90434   4.03543   4.14793
 Alpha virt. eigenvalues --    4.15933   4.27583   5.06451   5.12771   5.12928
 Alpha virt. eigenvalues --    5.15914   5.31898   5.44420   5.57614   5.72339
 Alpha virt. eigenvalues --    5.94050  23.62531  23.92867  23.93521  24.05397
 Alpha virt. eigenvalues --   25.06739  49.94874  49.99155  50.11372
  Beta  occ. eigenvalues --  -19.69445 -19.64344 -19.64149 -10.71780 -10.61445
  Beta  occ. eigenvalues --  -10.59022 -10.57579 -10.54501  -1.26806  -1.17457
  Beta  occ. eigenvalues --   -1.04783  -0.91074  -0.87760  -0.78902  -0.71456
  Beta  occ. eigenvalues --   -0.65509  -0.61785  -0.59533  -0.57471  -0.54363
  Beta  occ. eigenvalues --   -0.50572  -0.50210  -0.47570  -0.46148  -0.42902
  Beta  occ. eigenvalues --   -0.40898  -0.39769  -0.39436  -0.37465  -0.35889
  Beta virt. eigenvalues --   -0.08471  -0.02334  -0.00419   0.01032   0.01440
  Beta virt. eigenvalues --    0.02054   0.02779   0.04237   0.05223   0.05760
  Beta virt. eigenvalues --    0.06579   0.06700   0.07381   0.08282   0.09029
  Beta virt. eigenvalues --    0.10564   0.11359   0.11752   0.12297   0.12714
  Beta virt. eigenvalues --    0.13056   0.14112   0.14433   0.14565   0.15264
  Beta virt. eigenvalues --    0.15740   0.16491   0.17584   0.17799   0.19408
  Beta virt. eigenvalues --    0.19979   0.20312   0.21365   0.22853   0.23424
  Beta virt. eigenvalues --    0.24028   0.25126   0.26251   0.27661   0.28093
  Beta virt. eigenvalues --    0.29357   0.30318   0.30693   0.31394   0.32646
  Beta virt. eigenvalues --    0.33295   0.33837   0.34858   0.34966   0.38106
  Beta virt. eigenvalues --    0.38412   0.40280   0.42419   0.45179   0.46628
  Beta virt. eigenvalues --    0.49394   0.49736   0.51501   0.54787   0.55994
  Beta virt. eigenvalues --    0.58679   0.61487   0.63023   0.64019   0.65527
  Beta virt. eigenvalues --    0.66558   0.67166   0.67933   0.68792   0.70722
  Beta virt. eigenvalues --    0.71969   0.73212   0.75230   0.76425   0.77996
  Beta virt. eigenvalues --    0.79893   0.86540   0.87802   0.91748   0.95939
  Beta virt. eigenvalues --    1.00905   1.01884   1.06280   1.07280   1.08855
  Beta virt. eigenvalues --    1.11370   1.13521   1.14731   1.18005   1.19248
  Beta virt. eigenvalues --    1.20036   1.21723   1.24157   1.26501   1.32086
  Beta virt. eigenvalues --    1.33469   1.34365   1.36890   1.37446   1.42094
  Beta virt. eigenvalues --    1.44054   1.44812   1.48437   1.50319   1.52187
  Beta virt. eigenvalues --    1.53608   1.57551   1.59263   1.59523   1.61662
  Beta virt. eigenvalues --    1.63071   1.66793   1.68902   1.69030   1.72584
  Beta virt. eigenvalues --    1.74168   1.79764   1.83112   1.84425   1.85541
  Beta virt. eigenvalues --    1.86152   1.94047   1.95615   1.99838   2.02042
  Beta virt. eigenvalues --    2.03714   2.10848   2.12851   2.14094   2.20873
  Beta virt. eigenvalues --    2.30881   2.34578   2.39631   2.43629   2.50595
  Beta virt. eigenvalues --    2.53398   2.54241   2.59438   2.61207   2.61969
  Beta virt. eigenvalues --    2.64519   2.64734   2.67654   2.70772   2.72689
  Beta virt. eigenvalues --    2.74714   2.79089   2.82150   2.87515   2.90150
  Beta virt. eigenvalues --    2.92358   2.93625   2.96623   2.98866   3.00968
  Beta virt. eigenvalues --    3.01453   3.08763   3.13580   3.14914   3.19787
  Beta virt. eigenvalues --    3.19971   3.25221   3.26895   3.30568   3.34188
  Beta virt. eigenvalues --    3.39183   3.42931   3.52661   3.65214   3.72427
  Beta virt. eigenvalues --    3.84228   3.85469   3.90332   3.92751   4.03569
  Beta virt. eigenvalues --    4.14843   4.16236   4.27614   5.08212   5.12832
  Beta virt. eigenvalues --    5.15971   5.21336   5.32103   5.44464   5.59946
  Beta virt. eigenvalues --    5.72417   5.94079  23.62572  23.92872  23.93538
  Beta virt. eigenvalues --   24.05398  25.06861  49.94370  49.99152  50.11345
          Condensed to atoms (all electrons):
               1          2          3          4          5          6
     1  O    8.104028   0.265590   0.126033  -0.020458  -0.146001  -0.049461
     2  H    0.265590   0.465948   0.058038   0.003922  -0.001290  -0.054093
     3  C    0.126033   0.058038  24.165552   0.670764  -8.580660  -9.150005
     4  H   -0.020458   0.003922   0.670764   0.419941  -0.234336  -0.035761
     5  C   -0.146001  -0.001290  -8.580660  -0.234336  15.546560  -2.372325
     6  C   -0.049461  -0.054093  -9.150005  -0.035761  -2.372325  18.581628
     7  O    0.002699   0.008452   0.473160   0.000363   0.276335  -0.416622
     8  O   -0.002483   0.000159   0.226296   0.000537  -0.239445  -0.247134
     9  C    0.000695  -0.000793   0.075216   0.000685  -0.231796   0.027914
    10  C   -0.000695  -0.000398   0.062745   0.000846  -0.074584  -0.138108
    11  H    0.000034  -0.000022   0.001313  -0.000036   0.012844   0.003763
    12  H   -0.000244  -0.000059  -0.018160  -0.000089  -0.030906   0.031182
    13  H   -0.000033  -0.000032   0.005283   0.000024   0.010524  -0.019399
    14  H    0.000002   0.000034  -0.017150  -0.000089  -0.006085   0.034379
    15  H    0.000121  -0.000222   0.006173  -0.000065  -0.024589  -0.004291
               7          8          9         10         11         12
     1  O    0.002699  -0.002483   0.000695  -0.000695   0.000034  -0.000244
     2  H    0.008452   0.000159  -0.000793  -0.000398  -0.000022  -0.000059
     3  C    0.473160   0.226296   0.075216   0.062745   0.001313  -0.018160
     4  H    0.000363   0.000537   0.000685   0.000846  -0.000036  -0.000089
     5  C    0.276335  -0.239445  -0.231796  -0.074584   0.012844  -0.030906
     6  C   -0.416622  -0.247134   0.027914  -0.138108   0.003763   0.031182
     7  O    8.088170  -0.130875   0.033997  -0.062317   0.002404  -0.023214
     8  O   -0.130875   8.326023   0.168938  -0.031760  -0.092149  -0.004508
     9  C    0.033997   0.168938   5.373995   0.052873   0.436162   0.403821
    10  C   -0.062317  -0.031760   0.052873   5.463146  -0.052251  -0.018895
    11  H    0.002404  -0.092149   0.436162  -0.052251   0.523124  -0.035789
    12  H   -0.023214  -0.004508   0.403821  -0.018895  -0.035789   0.508856
    13  H   -0.000148   0.017712  -0.043992   0.398570   0.000707  -0.004930
    14  H    0.000660  -0.008378  -0.034635   0.413776  -0.010868   0.004629
    15  H    0.004465  -0.018067  -0.000082   0.389780   0.010016  -0.010670
              13         14         15
     1  O   -0.000033   0.000002   0.000121
     2  H   -0.000032   0.000034  -0.000222
     3  C    0.005283  -0.017150   0.006173
     4  H    0.000024  -0.000089  -0.000065
     5  C    0.010524  -0.006085  -0.024589
     6  C   -0.019399   0.034379  -0.004291
     7  O   -0.000148   0.000660   0.004465
     8  O    0.017712  -0.008378  -0.018067
     9  C   -0.043992  -0.034635  -0.000082
    10  C    0.398570   0.413776   0.389780
    11  H    0.000707  -0.010868   0.010016
    12  H   -0.004930   0.004629  -0.010670
    13  H    0.531078  -0.032674  -0.030556
    14  H   -0.032674   0.536918  -0.048632
    15  H   -0.030556  -0.048632   0.542391
          Atomic-Atomic Spin Densities.
               1          2          3          4          5          6
     1  O    0.944959   0.007467   0.163299   0.006372  -0.211724  -0.058902
     2  H    0.007467  -0.029677  -0.030623  -0.000744   0.014573   0.023405
     3  C    0.163299  -0.030623   0.891400   0.051005  -0.622091  -0.547668
     4  H    0.006372  -0.000744   0.051005   0.011386  -0.043736  -0.007700
     5  C   -0.211724   0.014573  -0.622091  -0.043736   0.853956   0.235005
     6  C   -0.058902   0.023405  -0.547668  -0.007700   0.235005   0.369673
     7  O    0.004612  -0.000943   0.041773   0.000508  -0.023285  -0.038256
     8  O   -0.000616   0.000000   0.000364  -0.000352  -0.009106   0.021496
     9  C    0.000470  -0.000241   0.018017   0.000199  -0.006000  -0.020846
    10  C    0.000545  -0.000346   0.017356   0.000187  -0.001470  -0.014762
    11  H   -0.000001   0.000008   0.000163   0.000006  -0.001971   0.001907
    12  H   -0.000168   0.000134  -0.005380  -0.000062   0.000849   0.006109
    13  H    0.000024  -0.000041   0.001643   0.000012   0.000248  -0.002757
    14  H   -0.000054   0.000048  -0.003062  -0.000033  -0.000021   0.003913
    15  H   -0.000003   0.000006  -0.000594  -0.000002  -0.000463   0.000861
               7          8          9         10         11         12
     1  O    0.004612  -0.000616   0.000470   0.000545  -0.000001  -0.000168
     2  H   -0.000943   0.000000  -0.000241  -0.000346   0.000008   0.000134
     3  C    0.041773   0.000364   0.018017   0.017356   0.000163  -0.005380
     4  H    0.000508  -0.000352   0.000199   0.000187   0.000006  -0.000062
     5  C   -0.023285  -0.009106  -0.006000  -0.001470  -0.001971   0.000849
     6  C   -0.038256   0.021496  -0.020846  -0.014762   0.001907   0.006109
     7  O    0.025715  -0.001015  -0.001639   0.001191  -0.000149   0.000082
     8  O   -0.001015  -0.007633   0.002908  -0.003246  -0.000308  -0.000004
     9  C   -0.001639   0.002908   0.005240   0.002001   0.000175  -0.000853
    10  C    0.001191  -0.003246   0.002001   0.001146  -0.000285  -0.000969
    11  H   -0.000149  -0.000308   0.000175  -0.000285   0.000193   0.000268
    12  H    0.000082  -0.000004  -0.000853  -0.000969   0.000268   0.000225
    13  H   -0.000056   0.000001   0.000375   0.000487  -0.000090  -0.000127
    14  H   -0.000003  -0.000065  -0.000181  -0.000917   0.000106   0.000121
    15  H   -0.000093   0.000171  -0.000057   0.000085   0.000005   0.000008
              13         14         15
     1  O    0.000024  -0.000054  -0.000003
     2  H   -0.000041   0.000048   0.000006
     3  C    0.001643  -0.003062  -0.000594
     4  H    0.000012  -0.000033  -0.000002
     5  C    0.000248  -0.000021  -0.000463
     6  C   -0.002757   0.003913   0.000861
     7  O   -0.000056  -0.000003  -0.000093
     8  O    0.000001  -0.000065   0.000171
     9  C    0.000375  -0.000181  -0.000057
    10  C    0.000487  -0.000917   0.000085
    11  H   -0.000090   0.000106   0.000005
    12  H   -0.000127   0.000121   0.000008
    13  H    0.000564  -0.000257   0.000013
    14  H   -0.000257   0.000374   0.000001
    15  H    0.000013   0.000001  -0.000014
 Mulliken charges and spin densities:
               1          2
     1  O   -0.279826   0.856279
     2  H    0.254768  -0.016973
     3  C   -2.104596  -0.024397
     4  H    0.193753   0.017047
     5  C    2.095754   0.184765
     6  C   -0.191664  -0.028523
     7  O   -0.257530   0.008443
     8  O    0.035134   0.002595
     9  C   -0.262999  -0.000430
    10  C   -0.402727   0.001004
    11  H    0.200751   0.000029
    12  H    0.198975   0.000233
    13  H    0.167865   0.000036
    14  H    0.168114  -0.000031
    15  H    0.184229  -0.000076
 Sum of Mulliken charges =  -0.00000   1.00000
 Mulliken charges and spin densities with hydrogens summed into heavy atoms:
               1          2
     1  O   -0.025059   0.839306
     3  C   -1.910843  -0.007350
     5  C    2.095754   0.184765
     6  C   -0.191664  -0.028523
     7  O   -0.257530   0.008443
     8  O    0.035134   0.002595
     9  C    0.136727  -0.000168
    10  C    0.117481   0.000933
 APT charges:
               1
     1  O   -0.193743
     2  H    0.282314
     3  C   -0.306005
     4  H    0.250119
     5  C   -0.309263
     6  C    1.514152
     7  O   -0.787619
     8  O   -0.983525
     9  C    0.545514
    10  C   -0.042525
    11  H   -0.012068
    12  H   -0.010565
    13  H    0.011814
    14  H    0.011489
    15  H    0.029913
 Sum of APT charges =   0.00000
 APT charges with hydrogens summed into heavy atoms:
               1
     1  O    0.088570
     3  C   -0.055887
     5  C   -0.309263
     6  C    1.514152
     7  O   -0.787619
     8  O   -0.983525
     9  C    0.522881
    10  C    0.010691
 Electronic spatial extent (au):  <R**2>=           1321.6022
 Charge=             -0.0000 electrons
 Dipole moment (field-independent basis, Debye):
    X=             -2.8139    Y=             -1.2540    Z=              0.0705  Tot=              3.0815
 Quadrupole moment (field-independent basis, Debye-Ang):
   XX=            -44.1889   YY=            -48.5098   ZZ=            -47.7331
   XY=             -4.5425   XZ=              1.1928   YZ=             -0.1765
 Traceless Quadrupole moment (field-independent basis, Debye-Ang):
   XX=              2.6217   YY=             -1.6992   ZZ=             -0.9225
   XY=             -4.5425   XZ=              1.1928   YZ=             -0.1765
 Octapole moment (field-independent basis, Debye-Ang**2):
  XXX=            -37.8353  YYY=              6.9860  ZZZ=             -3.6064  XYY=             10.8071
  XXY=            -18.6399  XXZ=             -0.5928  XZZ=             -3.9686  YZZ=              1.1505
  YYZ=              0.9366  XYZ=             -4.4238
 Hexadecapole moment (field-independent basis, Debye-Ang**3):
 XXXX=          -1386.8951 YYYY=           -229.1502 ZZZZ=           -114.1676 XXXY=            -69.9798
 XXXZ=             21.8241 YYYX=             18.4088 YYYZ=             -0.4701 ZZZX=              2.2449
 ZZZY=             -2.1548 XXYY=           -228.8756 XXZZ=           -253.8952 YYZZ=            -58.0364
 XXYZ=            -13.4172 YYXZ=              3.3886 ZZXY=              3.9323
 N-N= 3.488679068067D+02 E-N=-1.682214609498D+03  KE= 4.188714006704D+02
  Exact polarizability: 102.840   2.827  69.037   3.169  -2.149  50.545
 Approx polarizability: 105.785  -0.763  84.446   6.325  -4.600  58.392
                          Isotropic Fermi Contact Couplings
        Atom                 a.u.       MegaHertz       Gauss      10(-4) cm-1
     1  O(17)              0.12396     -75.14389     -26.81321     -25.06530
     2  H(1)              -0.01422     -63.58268     -22.68788     -21.20890
     3  C(13)              0.01896      21.31891       7.60712       7.11122
     4  H(1)               0.00613      27.40572       9.77904       9.14156
     5  C(13)              0.03698      41.56990      14.83318      13.86623
     6  C(13)             -0.01050     -11.80506      -4.21234      -3.93775
     7  O(17)              0.00487      -2.95141      -1.05314      -0.98448
     8  O(17)              0.01058      -6.41508      -2.28906      -2.13984
     9  C(13)              0.00122       1.37350       0.49010       0.45815
    10  C(13)              0.00001       0.00647       0.00231       0.00216
    11  H(1)               0.00001       0.05329       0.01902       0.01778
    12  H(1)              -0.00000      -0.02140      -0.00764      -0.00714
    13  H(1)               0.00002       0.10294       0.03673       0.03434
    14  H(1)               0.00001       0.03492       0.01246       0.01165
    15  H(1)              -0.00001      -0.02556      -0.00912      -0.00853
 --------------------------------------------------------
       Center         ----  Spin Dipole Couplings  ----
                      3XX-RR        3YY-RR        3ZZ-RR
 --------------------------------------------------------
     1   Atom        0.188986      1.491739     -1.680725
     2   Atom        0.075593      0.030874     -0.106466
     3   Atom        0.040632     -0.011115     -0.029517
     4   Atom       -0.010648      0.017140     -0.006492
     5   Atom       -0.072481      0.190362     -0.117880
     6   Atom        0.010327     -0.001041     -0.009286
     7   Atom        0.025789     -0.016300     -0.009489
     8   Atom        0.009136     -0.004958     -0.004178
     9   Atom        0.003887     -0.001827     -0.002060
    10   Atom        0.001539     -0.000703     -0.000835
    11   Atom        0.001479     -0.000657     -0.000822
    12   Atom        0.001729     -0.000879     -0.000850
    13   Atom        0.000986     -0.000468     -0.000518
    14   Atom        0.001258     -0.000716     -0.000542
    15   Atom        0.001669     -0.000765     -0.000903
 --------------------------------------------------------
                        XY            XZ            YZ
 --------------------------------------------------------
     1   Atom        2.449243     -0.140538     -0.181687
     2   Atom       -0.091382      0.040663     -0.036144
     3   Atom       -0.034065      0.015283     -0.007748
     4   Atom       -0.001091     -0.000317     -0.003977
     5   Atom        0.186332     -0.023329     -0.023962
     6   Atom       -0.000690      0.002749     -0.001489
     7   Atom       -0.032742      0.010173     -0.003570
     8   Atom       -0.005505      0.002595     -0.000782
     9   Atom       -0.000545      0.000610     -0.000055
    10   Atom       -0.000265     -0.000443      0.000090
    11   Atom        0.000463      0.000458      0.000109
    12   Atom       -0.000280      0.000999     -0.000265
    13   Atom       -0.000176     -0.000131      0.000026
    14   Atom        0.000083     -0.000645     -0.000010
    15   Atom       -0.000628     -0.000689      0.000198
 --------------------------------------------------------


 ---------------------------------------------------------------------------------
              Anisotropic Spin Dipole Couplings in Principal Axis System
 ---------------------------------------------------------------------------------

       Atom             a.u.   MegaHertz   Gauss  10(-4) cm-1        Axes

              Baa    -1.6942   122.589    43.743    40.891  0.7797 -0.5870  0.2180
     1 O(17)  Bbb    -1.6910   122.359    43.661    40.814 -0.1460  0.1680  0.9749
              Bcc     3.3852  -244.948   -87.403   -81.706  0.6089  0.7920 -0.0453
 
              Baa    -0.1177   -62.818   -22.415   -20.954 -0.1316  0.1571  0.9788
     2 H(1)   Bbb    -0.0407   -21.720    -7.750    -7.245  0.6261  0.7787 -0.0408
              Bcc     0.1584    84.539    30.165    28.199  0.7686 -0.6074  0.2008
 
              Baa    -0.0328    -4.398    -1.569    -1.467 -0.1533  0.1102  0.9820
     3 C(13)  Bbb    -0.0280    -3.759    -1.341    -1.254  0.4497  0.8927 -0.0299
              Bcc     0.0608     8.157     2.911     2.721  0.8799 -0.4370  0.1864
 
              Baa    -0.0108    -5.736    -2.047    -1.913  0.9903  0.0568  0.1267
     4 H(1)   Bbb    -0.0071    -3.776    -1.347    -1.260 -0.1341  0.1547  0.9788
              Bcc     0.0178     9.513     3.394     3.173 -0.0360  0.9863 -0.1608
 
              Baa    -0.1709   -22.936    -8.184    -7.651  0.8780 -0.4404  0.1872
     5 C(13)  Bbb    -0.1186   -15.908    -5.677    -5.306 -0.1310  0.1550  0.9792
              Bcc     0.2895    38.844    13.861    12.957  0.4603  0.8843 -0.0784
 
              Baa    -0.0099    -1.326    -0.473    -0.442 -0.1280  0.1550  0.9796
     6 C(13)  Bbb    -0.0009    -0.120    -0.043    -0.040  0.0957  0.9850 -0.1434
              Bcc     0.0108     1.446     0.516     0.482  0.9871 -0.0754  0.1409
 
              Baa    -0.0343     2.482     0.886     0.828  0.4868  0.8704 -0.0743
     7 O(17)  Bbb    -0.0114     0.826     0.295     0.275 -0.1301  0.1564  0.9791
              Bcc     0.0457    -3.308    -1.180    -1.103  0.8638 -0.4669  0.1894
 
              Baa    -0.0069     0.496     0.177     0.166  0.3318  0.9422 -0.0464
     8 O(17)  Bbb    -0.0046     0.336     0.120     0.112 -0.1455  0.0998  0.9843
              Bcc     0.0115    -0.832    -0.297    -0.278  0.9320 -0.3199  0.1702
 
              Baa    -0.0021    -0.285    -0.102    -0.095 -0.1011 -0.0011  0.9949
     9 C(13)  Bbb    -0.0019    -0.252    -0.090    -0.084  0.0931  0.9956  0.0106
              Bcc     0.0040     0.537     0.192     0.179  0.9905 -0.0937  0.1006
 
              Baa    -0.0009    -0.124    -0.044    -0.041  0.1510 -0.2115  0.9656
    10 C(13)  Bbb    -0.0007    -0.098    -0.035    -0.033  0.1503  0.9704  0.1890
              Bcc     0.0017     0.222     0.079     0.074  0.9770 -0.1166 -0.1783
 
              Baa    -0.0009    -0.487    -0.174    -0.162 -0.1637 -0.1224  0.9789
    11 H(1)   Bbb    -0.0008    -0.401    -0.143    -0.134 -0.2191  0.9720  0.0849
              Bcc     0.0017     0.888     0.317     0.296  0.9619  0.2005  0.1860
 
              Baa    -0.0013    -0.675    -0.241    -0.225 -0.2525  0.4164  0.8734
    12 H(1)   Bbb    -0.0008    -0.452    -0.161    -0.151  0.2380  0.9017 -0.3610
              Bcc     0.0021     1.127     0.402     0.376  0.9379 -0.1167  0.3268
 
              Baa    -0.0005    -0.284    -0.101    -0.095  0.0564 -0.2375  0.9697
    13 H(1)   Bbb    -0.0005    -0.259    -0.093    -0.087  0.1356  0.9641  0.2283
              Bcc     0.0010     0.543     0.194     0.181  0.9892 -0.1186 -0.0866
 
              Baa    -0.0008    -0.404    -0.144    -0.135  0.2958 -0.3868  0.8734
    14 H(1)   Bbb    -0.0007    -0.380    -0.136    -0.127  0.0852  0.9214  0.3792
              Bcc     0.0015     0.784     0.280     0.261  0.9514  0.0377 -0.3055
 
              Baa    -0.0011    -0.579    -0.207    -0.193  0.1891 -0.2207  0.9568
    15 H(1)   Bbb    -0.0009    -0.487    -0.174    -0.162  0.2742  0.9475  0.1643
              Bcc     0.0020     1.066     0.380     0.356  0.9429 -0.2313 -0.2397
 

 ---------------------------------------------------------------------------------

 Calling FoFJK, ICntrl=    100127 FMM=F ISym2X=0 I1Cent= 0 IOpClX= 1 NMat=1 NMatS=1 NMatT=0.
 Full mass-weighted force constant matrix:
 Low frequencies --- -272.8750  -79.7550  -45.1094   -2.9585    0.0006    0.0007
 Low frequencies ---    0.0010   16.4068   30.5326
 ******    3 imaginary frequencies (negative Signs) ****** 
 Diagonal vibrational polarizability:
       53.6641767      33.4674711      64.1566260
 Harmonic frequencies (cm**-1), IR intensities (KM/Mole), Raman scattering
 activities (A**4/AMU), depolarization ratios for plane and unpolarized
 incident light, reduced masses (AMU), force constants (mDyne/A),
 and normal coordinates:
                      1                      2                      3
                      A                      A                      A
 Frequencies --   -272.8737               -55.2344               -22.2209
 Red. masses --     12.7046                 6.3528                 6.7659
 Frc consts  --      0.5574                 0.0114                 0.0020
 IR Inten    --     24.2208                 1.2460                 0.6366
  Atom  AN      X      Y      Z        X      Y      Z        X      Y      Z
     1   8    -0.24  -0.53   0.05    -0.15   0.12   0.36     0.42  -0.16   0.16
     2   1     0.01  -0.20   0.04    -0.16   0.04   0.15     0.57   0.02   0.07
     3   6     0.30   0.71  -0.07     0.05  -0.03  -0.24    -0.07   0.04  -0.04
     4   1     0.01   0.12  -0.02     0.08  -0.01  -0.33    -0.13  -0.08  -0.03
     5   6     0.02   0.02  -0.00     0.03  -0.07  -0.17    -0.02   0.20  -0.07
     6   6    -0.00   0.00  -0.00     0.01  -0.07  -0.10    -0.07   0.11  -0.07
     7   8    -0.01  -0.00  -0.00     0.02  -0.09  -0.21    -0.18   0.09  -0.17
     8   8     0.01  -0.01   0.00    -0.01  -0.04   0.10    -0.00   0.01   0.05
     9   6     0.00  -0.01   0.00    -0.02  -0.04   0.11    -0.07  -0.13   0.07
    10   6     0.00  -0.00  -0.00     0.10   0.19   0.05    -0.07  -0.08   0.04
    11   1     0.00  -0.01   0.01    -0.07  -0.07   0.30    -0.01  -0.21   0.16
    12   1     0.00  -0.01  -0.00    -0.06  -0.18  -0.01    -0.18  -0.18   0.00
    13   1     0.00  -0.00  -0.00     0.10   0.18   0.06    -0.12  -0.19   0.06
    14   1     0.00   0.00   0.00     0.15   0.33   0.17     0.04  -0.03   0.10
    15   1     0.00  -0.00  -0.00     0.15   0.22  -0.14    -0.13  -0.00  -0.05
                      4                      5                      6
                      A                      A                      A
 Frequencies --     77.7565               117.4324               192.0372
 Red. masses --      3.9034                 3.3084                 2.5544
 Frc consts  --      0.0139                 0.0269                 0.0555
 IR Inten    --      2.9627                 1.4172                 5.5476
  Atom  AN      X      Y      Z        X      Y      Z        X      Y      Z
     1   8     0.06   0.00  -0.04     0.03   0.01  -0.01     0.15   0.09   0.01
     2   1     0.05   0.03   0.07     0.03   0.04   0.10     0.15   0.08   0.00
     3   6     0.06  -0.02  -0.22    -0.04   0.04   0.07     0.04   0.14  -0.01
     4   1     0.09  -0.04  -0.41    -0.05   0.06   0.14     0.08   0.22  -0.00
     5   6     0.03   0.00  -0.00    -0.03   0.02  -0.01    -0.02  -0.08  -0.00
     6   6    -0.01  -0.01   0.15    -0.05  -0.03  -0.02    -0.05  -0.12   0.00
     7   8    -0.05   0.00   0.21    -0.13  -0.01   0.14    -0.02  -0.12   0.01
     8   8     0.01  -0.03   0.15    -0.00  -0.09  -0.18    -0.10  -0.07  -0.01
     9   6     0.02  -0.09  -0.04    -0.03  -0.08  -0.01    -0.03   0.09  -0.02
    10   6    -0.12   0.13  -0.21     0.24   0.14  -0.00    -0.01   0.04   0.02
    11   1     0.06  -0.16   0.05    -0.13  -0.11   0.25    -0.11   0.20  -0.13
    12   1     0.07  -0.23  -0.16    -0.17  -0.21  -0.15     0.10   0.16   0.06
    13   1    -0.12   0.05  -0.39     0.17   0.05   0.16     0.18   0.47  -0.09
    14   1    -0.17   0.29  -0.08     0.46   0.28   0.15    -0.44  -0.08  -0.14
    15   1    -0.18   0.22  -0.32     0.27   0.22  -0.31     0.24  -0.26   0.29
                      7                      8                      9
                      A                      A                      A
 Frequencies --    237.2848               266.8104               284.5509
 Red. masses --      1.5729                 4.0522                 1.0571
 Frc consts  --      0.0522                 0.1700                 0.0504
 IR Inten    --      2.8769                 1.9673               112.5157
  Atom  AN      X      Y      Z        X      Y      Z        X      Y      Z
     1   8    -0.07  -0.04  -0.00     0.02   0.01   0.01     0.01  -0.01  -0.05
     2   1    -0.05  -0.02  -0.01     0.02   0.02   0.03    -0.13   0.16   0.98
     3   6    -0.03  -0.06  -0.02     0.00  -0.00  -0.19     0.00   0.00   0.01
     4   1    -0.05  -0.11  -0.06     0.07  -0.06  -0.65     0.00  -0.00  -0.00
     5   6     0.01   0.09   0.03    -0.09   0.05   0.41     0.00  -0.00   0.00
     6   6    -0.00   0.05   0.01    -0.05   0.00   0.12     0.00  -0.00  -0.01
     7   8    -0.08   0.05  -0.02    -0.00  -0.03  -0.11     0.01  -0.00  -0.03
     8   8     0.05  -0.02   0.02    -0.03  -0.01  -0.05     0.00   0.00   0.01
     9   6     0.05  -0.05  -0.00     0.00   0.05  -0.08    -0.00  -0.00   0.01
    10   6     0.08  -0.01  -0.01     0.11  -0.05   0.01    -0.01   0.00   0.00
    11   1     0.04  -0.06   0.02    -0.03   0.10  -0.14     0.00  -0.01   0.01
    12   1     0.05  -0.07  -0.02     0.04   0.11  -0.03    -0.00  -0.01   0.00
    13   1     0.31   0.50  -0.17     0.01  -0.19   0.23    -0.00   0.01  -0.01
    14   1    -0.43  -0.09  -0.13     0.39  -0.09  -0.01    -0.02   0.01   0.00
    15   1     0.39  -0.35   0.24     0.05   0.03  -0.08    -0.00  -0.00   0.01
                     10                     11                     12
                      A                      A                      A
 Frequencies --    340.0691               424.2560               556.1233
 Red. masses --      3.0009                 4.0804                 4.5411
 Frc consts  --      0.2045                 0.4327                 0.8275
 IR Inten    --     14.5315                 1.5781                 5.2477
  Atom  AN      X      Y      Z        X      Y      Z        X      Y      Z
     1   8     0.03   0.02   0.00     0.03   0.02  -0.00    -0.02  -0.02  -0.00
     2   1     0.01  -0.02  -0.03     0.03   0.03   0.04    -0.07  -0.07   0.01
     3   6     0.00   0.03  -0.03    -0.13   0.09  -0.00     0.22  -0.12   0.05
     4   1     0.03   0.05  -0.11    -0.13   0.13   0.09     0.20  -0.15   0.08
     5   6    -0.05  -0.07   0.09    -0.16  -0.11  -0.12     0.29   0.18  -0.02
     6   6     0.02   0.04  -0.01    -0.06   0.04   0.05    -0.00  -0.04   0.04
     7   8     0.22   0.05   0.02     0.11   0.05   0.02    -0.02  -0.05   0.01
     8   8    -0.01   0.07  -0.12    -0.08   0.08   0.22    -0.15   0.09   0.05
     9   6    -0.16  -0.17   0.06    -0.02  -0.07  -0.15    -0.26   0.02  -0.14
    10   6    -0.07   0.00   0.02     0.19  -0.11  -0.08     0.00  -0.02  -0.02
    11   1    -0.08  -0.34   0.35     0.03  -0.11  -0.15    -0.18  -0.09  -0.03
    12   1    -0.46  -0.31  -0.11     0.07  -0.11  -0.18    -0.30  -0.05  -0.21
    13   1     0.06   0.28  -0.09     0.18   0.03   0.30    -0.00   0.17   0.44
    14   1    -0.34   0.08   0.06     0.41  -0.22  -0.16     0.23  -0.14  -0.10
    15   1     0.13  -0.15   0.02     0.41  -0.25  -0.17     0.28  -0.19  -0.12
                     13                     14                     15
                      A                      A                      A
 Frequencies --    626.4751               730.3968               777.2992
 Red. masses --      8.2034                 1.0644                 2.7372
 Frc consts  --      1.8969                 0.3346                 0.9744
 IR Inten    --     10.2011               185.4487                 0.1429
  Atom  AN      X      Y      Z        X      Y      Z        X      Y      Z
     1   8    -0.04  -0.03  -0.00    -0.05  -0.02  -0.00     0.00  -0.00  -0.00
     2   1     0.10   0.16  -0.01     0.57   0.81  -0.06    -0.01  -0.01   0.01
     3   6    -0.22   0.04  -0.04     0.00  -0.02   0.00    -0.03   0.03   0.16
     4   1    -0.34  -0.17  -0.02     0.05   0.08  -0.00     0.12  -0.12  -0.89
     5   6    -0.01   0.54  -0.08     0.01  -0.02   0.00     0.02  -0.02  -0.16
     6   6    -0.10  -0.11  -0.01     0.02  -0.00   0.00    -0.04   0.04   0.29
     7   8     0.36  -0.10   0.07    -0.00  -0.01   0.00     0.01  -0.02  -0.08
     8   8    -0.07  -0.24   0.01    -0.00   0.01  -0.00     0.01  -0.01  -0.08
     9   6     0.02  -0.02   0.03    -0.00   0.00  -0.00     0.02   0.01   0.00
    10   6    -0.00   0.01   0.01    -0.00   0.00  -0.00     0.01   0.00   0.01
    11   1    -0.13   0.18  -0.21     0.00  -0.01   0.02    -0.00  -0.01   0.09
    12   1     0.27   0.10   0.17    -0.02  -0.01  -0.01    -0.05  -0.03  -0.05
    13   1    -0.01  -0.03  -0.08    -0.00   0.00   0.01    -0.00  -0.04  -0.05
    14   1    -0.03   0.10   0.08     0.01  -0.01  -0.01    -0.03  -0.02  -0.02
    15   1    -0.05   0.07  -0.05     0.00  -0.01   0.00    -0.06   0.03   0.07
                     16                     17                     18
                      A                      A                      A
 Frequencies --    785.2849               794.9197               801.5635
 Red. masses --      1.9416                 1.0871                 1.2171
 Frc consts  --      0.7055                 0.4047                 0.4607
 IR Inten    --     60.5932                49.3557                 5.3948
  Atom  AN      X      Y      Z        X      Y      Z        X      Y      Z
     1   8     0.00   0.00   0.00    -0.01  -0.04   0.01    -0.00  -0.00   0.00
     2   1    -0.01   0.01   0.03    -0.05  -0.10   0.01    -0.01  -0.02  -0.00
     3   6     0.01  -0.01  -0.13    -0.03  -0.05  -0.00    -0.03   0.01  -0.00
     4   1    -0.17   0.06   0.92     0.42   0.90  -0.03    -0.02   0.01  -0.05
     5   6     0.00   0.00  -0.03     0.01   0.03  -0.00    -0.01   0.04   0.01
     6   6    -0.03   0.03   0.23    -0.01   0.00   0.01     0.01  -0.04  -0.04
     7   8     0.01  -0.02  -0.06     0.00   0.00  -0.00    -0.00  -0.04   0.02
     8   8     0.01  -0.00  -0.06    -0.00   0.00  -0.00    -0.00   0.03   0.01
     9   6     0.01   0.01  -0.00     0.01  -0.00   0.00     0.05   0.06  -0.01
    10   6     0.01   0.00   0.00     0.00  -0.00  -0.00     0.02   0.03  -0.02
    11   1    -0.00  -0.02   0.11     0.00   0.00  -0.01    -0.02  -0.10   0.52
    12   1    -0.05  -0.05  -0.06     0.01   0.01   0.01    -0.15  -0.31  -0.37
    13   1    -0.00  -0.04  -0.04     0.01  -0.00  -0.02    -0.06  -0.18  -0.00
    14   1    -0.03  -0.04  -0.04    -0.01   0.01   0.01     0.02  -0.32  -0.32
    15   1    -0.06   0.02   0.09    -0.00   0.00  -0.01    -0.18   0.02   0.42
                     19                     20                     21
                      A                      A                      A
 Frequencies --    895.8541               932.4567              1075.1863
 Red. masses --      3.0562                 2.9632                 4.1493
 Frc consts  --      1.4451                 1.5180                 2.8261
 IR Inten    --     11.4055                 3.9885                24.7295
  Atom  AN      X      Y      Z        X      Y      Z        X      Y      Z
     1   8    -0.00  -0.00   0.00     0.00  -0.00   0.00    -0.00   0.00  -0.00
     2   1    -0.01  -0.01   0.00    -0.03  -0.04   0.00     0.01   0.01  -0.00
     3   6    -0.02   0.01  -0.00    -0.12   0.04  -0.02     0.07  -0.03   0.01
     4   1    -0.06  -0.05  -0.00    -0.13   0.06  -0.03     0.07  -0.05   0.02
     5   6     0.01   0.07  -0.01    -0.06   0.06  -0.02     0.04  -0.00   0.01
     6   6    -0.01  -0.10   0.00     0.12  -0.10   0.03    -0.14   0.01  -0.03
     7   8    -0.03  -0.14   0.02    -0.05  -0.15   0.02     0.02   0.02   0.00
     8   8    -0.08   0.24  -0.03     0.17   0.11  -0.01    -0.20   0.09  -0.05
     9   6     0.08  -0.01   0.11    -0.00  -0.00  -0.10     0.30  -0.20  -0.12
    10   6     0.11  -0.12  -0.06    -0.14   0.05   0.07    -0.07   0.09   0.16
    11   1     0.18  -0.06   0.04     0.36  -0.25  -0.17     0.31  -0.17  -0.25
    12   1    -0.22   0.20   0.25    -0.06  -0.01  -0.11     0.39  -0.29  -0.20
    13   1     0.21  -0.14  -0.61    -0.12   0.35   0.57    -0.08   0.12   0.29
    14   1    -0.18   0.22   0.21     0.15   0.09   0.13    -0.03   0.13   0.21
    15   1    -0.01   0.06  -0.30     0.22  -0.13  -0.15    -0.09   0.07   0.29
                     22                     23                     24
                      A                      A                      A
 Frequencies --   1128.1168              1204.2598              1306.1419
 Red. masses --      2.0755                 1.7690                 2.8246
 Frc consts  --      1.5563                 1.5115                 2.8391
 IR Inten    --     23.3237                 2.9290               602.4073
  Atom  AN      X      Y      Z        X      Y      Z        X      Y      Z
     1   8     0.00   0.00  -0.00    -0.00   0.00  -0.00     0.00  -0.00   0.00
     2   1    -0.00  -0.00   0.00     0.00   0.00  -0.00    -0.03  -0.04   0.00
     3   6     0.01  -0.00   0.00     0.02  -0.01   0.00    -0.07   0.03  -0.01
     4   1     0.01  -0.01   0.00     0.02  -0.01   0.00    -0.08   0.04  -0.02
     5   6     0.01   0.00   0.00     0.00  -0.01   0.00    -0.01   0.01  -0.00
     6   6    -0.03   0.01   0.00    -0.06   0.01  -0.01     0.34   0.03   0.04
     7   8     0.00   0.00  -0.00     0.01   0.04  -0.00    -0.04   0.01  -0.01
     8   8    -0.05   0.01  -0.05    -0.02  -0.07   0.01    -0.15  -0.02  -0.01
     9   6     0.08   0.00   0.21     0.09   0.16  -0.03     0.07  -0.05  -0.03
    10   6    -0.09   0.01  -0.17    -0.07  -0.12   0.03    -0.03  -0.05   0.00
    11   1     0.08   0.05   0.12     0.24  -0.12   0.41    -0.69   0.43   0.21
    12   1     0.18  -0.03   0.20    -0.28  -0.11  -0.33     0.11  -0.16  -0.13
    13   1    -0.12   0.18   0.45     0.10   0.27  -0.03     0.02   0.11   0.04
    14   1     0.41  -0.22  -0.32     0.02   0.25   0.35     0.02   0.15   0.19
    15   1     0.33  -0.31  -0.17     0.13  -0.08  -0.45     0.01  -0.05  -0.09
                     25                     26                     27
                      A                      A                      A
 Frequencies --   1350.8276              1403.5092              1432.4964
 Red. masses --      1.3378                 1.3077                 1.4071
 Frc consts  --      1.4382                 1.5177                 1.7012
 IR Inten    --    191.9166                51.6999                17.4478
  Atom  AN      X      Y      Z        X      Y      Z        X      Y      Z
     1   8    -0.00   0.00  -0.00    -0.00   0.00  -0.00     0.00  -0.00   0.00
     2   1     0.01   0.01  -0.00     0.00   0.00  -0.00    -0.00  -0.00  -0.00
     3   6     0.02  -0.01   0.00     0.01  -0.01   0.00    -0.01   0.00  -0.00
     4   1     0.02  -0.01   0.00     0.02  -0.01   0.00    -0.02   0.01  -0.00
     5   6     0.00  -0.00   0.00     0.00  -0.00   0.00    -0.00   0.00   0.00
     6   6    -0.10  -0.02  -0.01    -0.07   0.00  -0.01     0.07  -0.00   0.01
     7   8     0.01  -0.02   0.00     0.01  -0.02   0.00    -0.01   0.01  -0.00
     8   8     0.08   0.07  -0.01     0.05   0.02   0.01    -0.05  -0.02  -0.02
     9   6    -0.04   0.01   0.01     0.03  -0.03  -0.03    -0.08   0.06   0.08
    10   6    -0.02  -0.04   0.03     0.03  -0.05  -0.11     0.07  -0.05  -0.06
    11   1    -0.42   0.25   0.14    -0.30   0.15   0.20     0.45  -0.22  -0.25
    12   1     0.69  -0.37  -0.21    -0.18   0.21   0.15     0.37  -0.34  -0.21
    13   1     0.03   0.03  -0.08    -0.02   0.17   0.51     0.03   0.05   0.32
    14   1    -0.03   0.03   0.09    -0.15   0.37   0.26    -0.29   0.19   0.12
    15   1     0.05  -0.02  -0.20    -0.29   0.03   0.35    -0.27   0.15   0.13
                     28                     29                     30
                      A                      A                      A
 Frequencies --   1492.8863              1503.3713              1515.5262
 Red. masses --      1.0413                 1.0624                 1.0875
 Frc consts  --      1.3674                 1.4148                 1.4716
 IR Inten    --      9.8376                 3.4261                21.2161
  Atom  AN      X      Y      Z        X      Y      Z        X      Y      Z
     1   8    -0.00   0.00   0.00     0.00  -0.00   0.00     0.00  -0.00   0.00
     2   1     0.00   0.00  -0.00    -0.00  -0.00  -0.00    -0.00  -0.00   0.00
     3   6     0.00  -0.00   0.00    -0.00   0.00  -0.00    -0.01   0.00  -0.00
     4   1     0.00   0.00   0.00    -0.00   0.00  -0.00    -0.01   0.00  -0.00
     5   6    -0.00  -0.00  -0.00     0.00   0.00   0.00     0.00   0.00   0.00
     6   6    -0.00   0.01  -0.00     0.02  -0.01   0.00     0.02  -0.01   0.01
     7   8    -0.00  -0.01   0.00    -0.00   0.01  -0.00    -0.00   0.01  -0.00
     8   8     0.01   0.00  -0.00    -0.02  -0.00  -0.01    -0.02  -0.00  -0.01
     9   6    -0.02  -0.01   0.02    -0.01  -0.02  -0.05    -0.05   0.01  -0.05
    10   6    -0.03  -0.04  -0.00     0.02  -0.02   0.03    -0.02   0.01  -0.02
    11   1     0.02   0.01  -0.14     0.05  -0.24   0.43     0.15  -0.29   0.36
    12   1    -0.01  -0.06  -0.03     0.30   0.30   0.29     0.39   0.20   0.19
    13   1     0.26   0.53  -0.29     0.09   0.27   0.13    -0.05  -0.19  -0.21
    14   1     0.58  -0.05   0.03    -0.14  -0.26  -0.22     0.25   0.27   0.24
    15   1    -0.35   0.13   0.26    -0.25   0.31  -0.31     0.19  -0.30   0.36
                     31                     32                     33
                      A                      A                      A
 Frequencies --   1815.1746              2194.2983              3075.9688
 Red. masses --     11.8010                 6.0568                 1.0354
 Frc consts  --     22.9090                17.1824                 5.7721
 IR Inten    --    250.9440                87.8805                 9.3502
  Atom  AN      X      Y      Z        X      Y      Z        X      Y      Z
     1   8    -0.00   0.00  -0.00    -0.00  -0.01   0.00    -0.00   0.00  -0.00
     2   1    -0.00  -0.03   0.00    -0.00  -0.01   0.00     0.00   0.00  -0.00
     3   6     0.06  -0.02   0.01    -0.36   0.12  -0.07     0.00  -0.00   0.00
     4   1     0.11  -0.00   0.01    -0.68   0.24  -0.13    -0.00   0.00  -0.00
     5   6    -0.05  -0.00  -0.01     0.51  -0.17   0.10    -0.00   0.00  -0.00
     6   6    -0.01   0.77  -0.12    -0.08   0.06  -0.02     0.00   0.00   0.00
     7   8     0.02  -0.50   0.08     0.00  -0.01   0.00     0.00  -0.00  -0.00
     8   8    -0.04  -0.07   0.00    -0.01  -0.00  -0.00    -0.00  -0.00  -0.00
     9   6    -0.03   0.03  -0.01     0.00   0.00  -0.00     0.00   0.00  -0.00
    10   6     0.01  -0.00   0.01    -0.00   0.00   0.00    -0.02   0.02   0.04
    11   1     0.15  -0.15   0.11     0.01   0.00   0.00     0.00   0.01   0.00
    12   1     0.17   0.06   0.02     0.00   0.00   0.00    -0.00  -0.02   0.02
    13   1    -0.01  -0.06  -0.05     0.00  -0.00   0.00     0.56  -0.22   0.12
    14   1    -0.04   0.00   0.00    -0.00  -0.00  -0.00     0.03   0.40  -0.44
    15   1     0.05  -0.01  -0.05     0.00  -0.00  -0.00    -0.31  -0.39  -0.14
                     34                     35                     36
                      A                      A                      A
 Frequencies --   3109.3853              3151.4480              3156.0607
 Red. masses --      1.0608                 1.1013                 1.1049
 Frc consts  --      6.0425                 6.4445                 6.4845
 IR Inten    --     17.2196                14.1622                 1.4107
  Atom  AN      X      Y      Z        X      Y      Z        X      Y      Z
     1   8    -0.00   0.00  -0.00    -0.00   0.00   0.00    -0.00   0.00  -0.00
     2   1     0.00   0.00  -0.00     0.00   0.00  -0.00     0.00  -0.00  -0.00
     3   6     0.00  -0.00   0.00     0.00  -0.00   0.00    -0.00  -0.00   0.00
     4   1    -0.00   0.00   0.00    -0.00   0.00  -0.00    -0.00   0.00   0.00
     5   6    -0.00  -0.00  -0.00    -0.00   0.00  -0.00    -0.00  -0.00  -0.00
     6   6     0.00   0.00   0.00     0.00   0.00  -0.00    -0.00   0.00  -0.00
     7   8     0.00  -0.00   0.00    -0.00  -0.00   0.00    -0.00  -0.00   0.00
     8   8    -0.00   0.00  -0.00     0.00  -0.00   0.00     0.00  -0.00  -0.00
     9   6    -0.02   0.01  -0.06    -0.01  -0.02  -0.01     0.02   0.05  -0.01
    10   6     0.01  -0.01   0.01    -0.05   0.06  -0.05    -0.06  -0.04  -0.01
    11   1     0.32   0.42   0.16     0.16   0.21   0.08    -0.25  -0.33  -0.13
    12   1    -0.10  -0.54   0.60    -0.00   0.01  -0.01    -0.04  -0.23   0.27
    13   1    -0.12   0.05  -0.03     0.62  -0.23   0.12     0.34  -0.15   0.07
    14   1     0.01   0.05  -0.05    -0.05  -0.46   0.51     0.00   0.13  -0.15
    15   1    -0.01  -0.02  -0.00     0.00   0.02  -0.00     0.41   0.53   0.20
                     37                     38                     39
                      A                      A                      A
 Frequencies --   3177.0103              3475.1898              3762.7803
 Red. masses --      1.1076                 1.1592                 1.0678
 Frc consts  --      6.5866                 8.2481                 8.9072
 IR Inten    --     14.1663                75.4179                28.3653
  Atom  AN      X      Y      Z        X      Y      Z        X      Y      Z
     1   8     0.00  -0.00   0.00    -0.00  -0.00   0.00    -0.05   0.04  -0.01
     2   1    -0.00   0.00  -0.00    -0.00   0.00  -0.00     0.79  -0.57   0.20
     3   6     0.00  -0.00   0.00    -0.10   0.04  -0.02    -0.00  -0.00  -0.00
     4   1    -0.00   0.00  -0.00     0.88  -0.42   0.18     0.00  -0.00   0.00
     5   6    -0.00   0.00  -0.00     0.03  -0.01   0.01     0.00  -0.00   0.00
     6   6     0.00  -0.00   0.00    -0.00   0.00  -0.00     0.00  -0.00   0.00
     7   8    -0.00   0.00  -0.00     0.00   0.00  -0.00    -0.00   0.00  -0.00
     8   8     0.00   0.00   0.00     0.00  -0.00   0.00     0.00   0.00  -0.00
     9   6    -0.04  -0.07   0.01    -0.00   0.00  -0.00    -0.00  -0.00   0.00
    10   6    -0.03  -0.05   0.01    -0.00  -0.00   0.00    -0.00  -0.00  -0.00
    11   1     0.37   0.50   0.20     0.00   0.00   0.00    -0.00   0.00  -0.00
    12   1     0.05   0.28  -0.33     0.00  -0.00  -0.00    -0.00   0.00  -0.00
    13   1     0.07  -0.04   0.02     0.00  -0.00  -0.00    -0.00   0.00   0.00
    14   1     0.02   0.23  -0.27    -0.00   0.00  -0.00     0.00   0.00  -0.00
    15   1     0.29   0.37   0.14    -0.00   0.00   0.00     0.00   0.00   0.00

 -------------------
 - Thermochemistry -
 -------------------
 Temperature   298.150 Kelvin.  Pressure   1.00000 Atm.
 Atom     1 has atomic number  8 and mass  15.99491
 Atom     2 has atomic number  1 and mass   1.00783
 Atom     3 has atomic number  6 and mass  12.00000
 Atom     4 has atomic number  1 and mass   1.00783
 Atom     5 has atomic number  6 and mass  12.00000
 Atom     6 has atomic number  6 and mass  12.00000
 Atom     7 has atomic number  8 and mass  15.99491
 Atom     8 has atomic number  8 and mass  15.99491
 Atom     9 has atomic number  6 and mass  12.00000
 Atom    10 has atomic number  6 and mass  12.00000
 Atom    11 has atomic number  1 and mass   1.00783
 Atom    12 has atomic number  1 and mass   1.00783
 Atom    13 has atomic number  1 and mass   1.00783
 Atom    14 has atomic number  1 and mass   1.00783
 Atom    15 has atomic number  1 and mass   1.00783
 Molecular mass:   115.03952 amu.
 Principal axes and moments of inertia in atomic units:
                           1         2         3
     Eigenvalues --   340.336471903.229912089.92331
           X            0.99993  -0.01005  -0.00588
           Y            0.01014   0.99984   0.01492
           Z            0.00573  -0.01498   0.99987
 This molecule is an asymmetric top.
 Rotational symmetry number  1.
 Rotational temperatures (Kelvin)      0.25449     0.04551     0.04144
 Rotational constants (GHZ):           5.30281     0.94825     0.86354
    3 imaginary frequencies ignored.
 Zero-point vibrational energy     294103.2 (Joules/Mol)
                                   70.29234 (Kcal/Mol)
 Warning -- explicit consideration of   9 degrees of freedom as
           vibrations may cause significant error
 Vibrational temperatures:    111.87   168.96   276.30   341.40   383.88
          (Kelvin)            409.41   489.28   610.41   800.14   901.36
                             1050.88  1118.36  1129.85  1143.71  1153.27
                             1288.93  1341.60  1546.95  1623.11  1732.66
                             1879.25  1943.54  2019.34  2061.04  2147.93
                             2163.02  2180.50  2611.63  3157.11  4425.63
                             4473.71  4534.23  4540.87  4571.01  5000.02
                             5413.80
 
 Zero-point correction=                           0.112018 (Hartree/Particle)
 Thermal correction to Energy=                    0.119948
 Thermal correction to Enthalpy=                  0.120892
 Thermal correction to Gibbs Free Energy=         0.078527
 Sum of electronic and zero-point Energies=           -420.094512
 Sum of electronic and thermal Energies=              -420.086582
 Sum of electronic and thermal Enthalpies=            -420.085638
 Sum of electronic and thermal Free Energies=         -420.128003
 
                     E (Thermal)             CV                S
                      KCal/Mol        Cal/Mol-Kelvin    Cal/Mol-Kelvin
 Total                   75.268             27.935             89.164
 Electronic               0.000              0.000              1.377
 Translational            0.889              2.981             40.136
 Rotational               0.889              2.981             28.694
 Vibrational             73.491             21.974             18.957
 Vibration     1          0.599              1.964              3.947
 Vibration     2          0.608              1.935              3.142
 Vibration     3          0.634              1.851              2.208
 Vibration     4          0.656              1.784              1.823
 Vibration     5          0.672              1.734              1.617
 Vibration     6          0.683              1.702              1.506
 Vibration     7          0.720              1.595              1.212
 Vibration     8          0.786              1.417              0.878
 Vibration     9          0.912              1.126              0.532
                       Q            Log10(Q)             Ln(Q)
 Total Bot       0.758637D-36        -36.119966        -83.169296
 Total V=0       0.253911D+16         15.404681         35.470589
 Vib (Bot)       0.187788D-49        -49.726331       -114.499109
 Vib (Bot)    1  0.264948D+01          0.423160          0.974362
 Vib (Bot)    2  0.174124D+01          0.240858          0.554596
 Vib (Bot)    3  0.104142D+01          0.017625          0.040584
 Vib (Bot)    4  0.827369D+00         -0.082301         -0.189505
 Vib (Bot)    5  0.725511D+00         -0.139356         -0.320879
 Vib (Bot)    6  0.674034D+00         -0.171318         -0.394474
 Vib (Bot)    7  0.545997D+00         -0.262810         -0.605142
 Vib (Bot)    8  0.412525D+00         -0.384549         -0.885457
 Vib (Bot)    9  0.280528D+00         -0.552023         -1.271080
 Vib (V=0)       0.628515D+02          1.798316          4.140775
 Vib (V=0)    1  0.319624D+01          0.504640          1.161976
 Vib (V=0)    2  0.231160D+01          0.363913          0.837941
 Vib (V=0)    3  0.165523D+01          0.218858          0.503939
 Vib (V=0)    4  0.146672D+01          0.166346          0.383026
 Vib (V=0)    5  0.138112D+01          0.140230          0.322892
 Vib (V=0)    6  0.133924D+01          0.126858          0.292102
 Vib (V=0)    7  0.124035D+01          0.093543          0.215391
 Vib (V=0)    8  0.114821D+01          0.060022          0.138205
 Vib (V=0)    9  0.107332D+01          0.030729          0.070757
 Electronic      0.200000D+01          0.301030          0.693147
 Translational   0.484981D+08          7.685724         17.697035
 Rotational      0.416496D+06          5.619611         12.939632
 ***** Axes restored to original set *****
 -------------------------------------------------------------------
 Center     Atomic                   Forces (Hartrees/Bohr)
 Number     Number              X              Y              Z
 -------------------------------------------------------------------
      1        8           0.004306516    0.009306645   -0.000939669
      2        1           0.000101639    0.000159528   -0.000013837
      3        6          -0.003694088   -0.010086568    0.001145168
      4        1          -0.000127385   -0.000040625   -0.000012354
      5        6          -0.000450819    0.000285056   -0.000102067
      6        6           0.000032048    0.000123193   -0.000016843
      7        8          -0.000208443    0.000165477   -0.000055154
      8        8           0.000015657    0.000077838   -0.000011221
      9        6           0.000025653    0.000015179    0.000000715
     10        6          -0.000003461   -0.000006281    0.000002461
     11        1           0.000003615    0.000000557   -0.000001111
     12        1          -0.000001081    0.000003541    0.000001473
     13        1           0.000000018   -0.000001024    0.000001022
     14        1           0.000000476   -0.000001802   -0.000000251
     15        1          -0.000000346   -0.000000713    0.000001667
 -------------------------------------------------------------------
 Cartesian Forces:  Max     0.010086568 RMS     0.002227036

 GradGradGradGradGradGradGradGradGradGradGradGradGradGradGradGradGradGrad
 Berny optimization.
 Search for a local minimum.
 Step number   1 out of a maximum of    2
 All quantities printed in internal units (Hartrees-Bohrs-Radians)
 Second derivative matrix not updated -- analytic derivatives used.
 ITU=  0
     Eigenvalues ---   -0.03709  -0.00122  -0.00019   0.00108   0.00185
     Eigenvalues ---    0.00305   0.00467   0.00991   0.01356   0.02119
     Eigenvalues ---    0.02740   0.03213   0.03486   0.04678   0.06249
     Eigenvalues ---    0.07530   0.07678   0.08568   0.09532   0.10250
     Eigenvalues ---    0.11386   0.14188   0.17078   0.18468   0.19836
     Eigenvalues ---    0.28736   0.29613   0.43842   0.49267   0.62599
     Eigenvalues ---    0.71439   0.76543   0.79135   0.86589   0.91940
     Eigenvalues ---    0.93962   0.96564   1.67943   2.56243
 Eigenvalue     1 is  -3.71D-02 should be greater than     0.000000 Eigenvector:
                          Y3        Y1        X1        X3        Y2
   1                    0.68872  -0.56933  -0.29770   0.29002  -0.12525
                          Z3        Z1        Y4        X2        Z2
   1                   -0.07307   0.05338   0.04535   0.03210   0.02542
 Eigenvalue     2 is  -1.22D-03 should be greater than     0.000000 Eigenvector:
                          Z1        Z4        Z7        Z11       Y14
   1                    0.54806  -0.29013  -0.27471   0.24423   0.24218
                          Z3        Z5        Y12       Y15       X1
   1                   -0.23813  -0.20702  -0.16767   0.15573  -0.15429
 Eigenvalue     3 is  -1.94D-04 should be greater than     0.000000 Eigenvector:
                          X2        X1        Y5        X7        Y11
   1                    0.60428   0.44237   0.21839  -0.17702  -0.17127
                          Y1        X12       Y13       Z7        Z1
   1                   -0.16899  -0.16893  -0.16872  -0.15567   0.15325
 Quadratic step=1.557D+00 exceeds max=3.000D-01 adjusted using Lamda=-1.261D-02.
 Angle between NR and scaled steps=  70.68 degrees.
 Angle between quadratic step and forces=   7.55 degrees.
 Linear search not attempted -- first point.
 B after Tr=     0.001587    0.002510   -0.000190
         Rot=    1.000000   -0.000035   -0.000005   -0.000170 Ang=  -0.02 deg.
 Variable       Old X    -DE/DX   Delta X   Delta X   Delta X     New X
                                 (Linear)    (Quad)   (Total)
    X1        6.21801   0.00431   0.00000   0.10992   0.11091   6.32892
    Y1        1.57493   0.00931   0.00000   0.16631   0.17095   1.74588
    Z1        0.22143  -0.00094   0.00000  -0.01258  -0.01271   0.20872
    X2        4.75738   0.00010   0.00000  -0.00530  -0.00461   4.75277
    Y2        2.62922   0.00016   0.00000   0.00687   0.01100   2.64022
    Z2       -0.14928  -0.00001   0.00000  -0.00201  -0.00206  -0.15134
    X3        4.36903  -0.00369   0.00000  -0.09042  -0.08810   4.28093
    Y3       -1.95186  -0.01009   0.00000  -0.20270  -0.19878  -2.15064
    Z3        0.54918   0.00115   0.00000   0.02083   0.02045   0.56963
    X4        6.15503  -0.00013   0.00000   0.00183   0.00437   6.15940
    Y4       -2.80189  -0.00004   0.00000  -0.00507  -0.00054  -2.80243
    Z4        0.92714  -0.00001   0.00000   0.00100   0.00056   0.92770
    X5        2.19220  -0.00045   0.00000  -0.00644  -0.00438   2.18782
    Y5       -1.38675   0.00029   0.00000   0.00619   0.00943  -1.37732
    Z5        0.16533  -0.00010   0.00000  -0.00194  -0.00225   0.16308
    X6       -0.15760   0.00003   0.00000  -0.00449  -0.00289  -0.16049
    Y6       -0.06804   0.00012   0.00000   0.00405   0.00653  -0.06151
    Z6       -0.36513  -0.00002   0.00000  -0.00149  -0.00168  -0.36681
    X7       -0.21078  -0.00021   0.00000  -0.00963  -0.00879  -0.21957
    Y7        2.17549   0.00017   0.00000   0.00475   0.00723   2.18273
    Z7       -0.73754  -0.00006   0.00000  -0.00282  -0.00285  -0.74039
    X8       -2.13881   0.00002   0.00000  -0.00281  -0.00068  -2.13949
    Y8       -1.60315   0.00008   0.00000   0.00165   0.00346  -1.59969
    Z8       -0.39255  -0.00001   0.00000  -0.00018  -0.00046  -0.39301
    X9       -4.56035   0.00003   0.00000  -0.00308  -0.00135  -4.56170
    Y9       -0.44040   0.00002   0.00000  -0.00217  -0.00114  -0.44154
    Z9       -0.87850   0.00000   0.00000   0.00031   0.00013  -0.87836
   X10       -5.59147  -0.00000   0.00000  -0.00236  -0.00104  -5.59251
   Y10        0.80865  -0.00001   0.00000  -0.00130  -0.00080   0.80785
   Z10        1.48373   0.00000   0.00000   0.00014   0.00006   1.48379
   X11       -5.74541   0.00000   0.00000  -0.00158   0.00067  -5.74474
   Y11       -2.00370   0.00000   0.00000  -0.00395  -0.00329  -2.00699
   Z11       -1.49563  -0.00000   0.00000   0.00196   0.00169  -1.49395
   X12       -4.34258  -0.00000   0.00000  -0.00427  -0.00301  -4.34559
   Y12        0.91113   0.00000   0.00000  -0.00315  -0.00194   0.90919
   Z12       -2.41873   0.00000   0.00000  -0.00061  -0.00070  -2.41943
   X13       -7.48087   0.00000   0.00000  -0.00195  -0.00088  -7.48175
   Y13        1.54432  -0.00000   0.00000  -0.00079  -0.00090   1.54342
   Z13        1.10382   0.00000   0.00000   0.00025   0.00023   1.10406
   X14       -5.72009   0.00000   0.00000  -0.00165   0.00015  -5.71994
   Y14       -0.55726  -0.00000   0.00000  -0.00075  -0.00039  -0.55765
   Z14        3.02243  -0.00000   0.00000   0.00073   0.00056   3.02298
   X15       -4.38902  -0.00000   0.00000  -0.00118  -0.00038  -4.38941
   Y15        2.37701  -0.00000   0.00000  -0.00171  -0.00083   2.37618
   Z15        2.06497   0.00000   0.00000  -0.00098  -0.00097   2.06400
         Item               Value     Threshold  Converged?
 Maximum Force            0.010087     0.000450     NO 
 RMS     Force            0.002227     0.000300     NO 
 Maximum Displacement     0.198782     0.001800     NO 
 RMS     Displacement     0.044697     0.001200     NO 
 Predicted change in Energy=-6.057453D-03
 GradGradGradGradGradGradGradGradGradGradGradGradGradGradGradGradGradGrad


 ----------------------------------------------------------------------

 Electric dipole moment (input orientation):
 (Debye = 10**-18 statcoulomb cm , SI units = C m)
                  (au)            (Debye)         (10**-30 SI)
   Tot        0.121235D+01      0.308149D+01      0.102787D+02
   x         -0.110603D+01     -0.281124D+01     -0.937730D+01
   y         -0.495561D+00     -0.125959D+01     -0.420154D+01
   z          0.302241D-01      0.768220D-01      0.256250D+00

 Dipole polarizability, Alpha (input orientation).
 (esu units = cm**3 , SI units = C**2 m**2 J**-1)
 Alpha(0;0):
               (au)            (10**-24 esu)      (10**-40 SI)
   iso        0.741409D+02      0.109866D+02      0.122242D+02
   aniso      0.466651D+02      0.691506D+01      0.769404D+01
   xx         0.102829D+03      0.152377D+02      0.169542D+02
   yx         0.291289D+01      0.431646D+00      0.480271D+00
   yy         0.690293D+02      0.102291D+02      0.113814D+02
   zx         0.315161D+01      0.467020D+00      0.519630D+00
   zy        -0.222820D+01     -0.330185D+00     -0.367380D+00
   zz         0.505644D+02      0.749287D+01      0.833695D+01

 ----------------------------------------------------------------------

 Dipole orientation:
     8          0.79766896         -0.85367487         -6.31094543
     1         -0.19865592          0.40864491         -5.41860409
     6          2.03234791         -2.99881815         -3.17433250
     1          3.02212037         -4.20560408         -4.44681851
     6          1.06741442         -1.89071056         -1.42897694
     6         -0.33797332         -0.14886057          0.16248453
     8         -1.50400856          1.59605503         -0.71534386
     8         -0.17682583         -0.72407620          2.59675894
     6         -1.49834278          0.93154803          4.31852377
     6          0.00846726          3.31772483          4.80755147
     1         -1.71529476         -0.19798327          6.02328900
     1         -3.35431075          1.35393071          3.52900701
     1         -0.96090834          4.46561993          6.22106631
     1          1.88502071          2.85024335          5.52158204
     1          0.19409302          4.43050057          3.08396227

 Electric dipole moment (dipole orientation):
 (Debye = 10**-18 statcoulomb cm , SI units = C m)
                  (au)            (Debye)         (10**-30 SI)
   Tot        0.121235D+01      0.308149D+01      0.102787D+02
   x          0.000000D+00      0.000000D+00      0.000000D+00
   y          0.000000D+00      0.000000D+00      0.000000D+00
   z          0.121235D+01      0.308149D+01      0.102787D+02

 Dipole polarizability, Alpha (dipole orientation).
 (esu units = cm**3 , SI units = C**2 m**2 J**-1)
 Alpha(0;0):
               (au)            (10**-24 esu)      (10**-40 SI)
   iso        0.741409D+02      0.109866D+02      0.122242D+02
   aniso      0.466651D+02      0.691506D+01      0.769404D+01
   xx         0.570167D+02      0.844901D+01      0.940079D+01
   yx        -0.105273D+02     -0.155999D+01     -0.173572D+01
   yy         0.661823D+02      0.980721D+01      0.109120D+02
   zx        -0.722962D+01     -0.107132D+01     -0.119200D+01
   zy         0.836208D+01      0.123913D+01      0.137872D+01
   zz         0.992237D+02      0.147034D+02      0.163598D+02

 ----------------------------------------------------------------------
 1\1\GINC-AJ\Freq\UM062X\6-311++G(d,p)\C5H7O3(2)\AAYUSH\16-Aug-2025\0\\
 # freq 6-311++g(d,p) m062x\\Title Card Required\\0,2\O,3.290428,0.8334
 19,0.117177\H,2.517496,1.391323,-0.078997\C,2.311989,-1.032879,0.29061
 2\H,3.257099,-1.482697,0.49062\C,1.160062,-0.733834,0.087489\C,-0.0833
 96,-0.036006,-0.193219\O,-0.111542,1.15122,-0.390288\O,-1.13181,-0.848
 352,-0.207731\C,-2.413231,-0.233048,-0.464881\C,-2.958879,0.427917,0.7
 85158\H,-3.04034,-1.06031,-0.791454\H,-2.297995,0.48215,-1.279936\H,-3
 .958706,0.817219,0.584119\H,-3.026942,-0.294891,1.5994\H,-2.322572,1.2
 57861,1.092735\\Version=ES64L-G16RevA.03\State=2-A\HF=-420.2065299\S2=
 0.764228\S2-1=0.\S2A=0.750093\RMSD=4.024e-09\RMSF=2.227e-03\ZeroPoint=
 0.112018\Thermal=0.1199477\Dipole=-1.1060279,-0.495561,0.0302241\Dipol
 eDeriv=-0.1222605,0.2064266,0.0052614,0.1082004,-0.0555581,-0.0447697,
 0.0213279,-0.0309124,-0.4034117,0.2067131,0.0451056,-0.0264255,0.17737
 59,0.3197606,0.0215036,-0.0463661,0.0065871,0.3204673,-0.5510293,-0.42
 89822,0.0174251,-0.227681,-0.3092234,0.0100817,-0.0283567,-0.0162396,-
 0.0577631,0.3021696,-0.0186508,0.013949,0.0229979,0.2478223,-0.0047372
 ,0.011108,-0.0107233,0.2003641,-0.4387607,0.3900663,-0.090145,0.077109
 1,-0.3499619,0.0477683,-0.0553762,0.0910697,-0.1390667,2.5955069,0.144
 6131,0.1561273,0.3108469,1.4937502,-0.2069951,0.2091575,-0.1588816,0.4
 532001,-0.9259245,0.0510927,-0.0473315,0.0279363,-1.0485291,0.1534764,
 -0.0549346,0.1278924,-0.388404,-1.9584658,-0.2530103,-0.0142264,-0.304
 155,-0.6617207,0.0090081,-0.128384,-0.0145793,-0.3303881,1.0062225,-0.
 0722036,-0.0179927,-0.2551216,0.2989851,0.0286094,0.0689155,0.0679185,
 0.3313355,-0.0851891,-0.0089273,0.0098764,0.0486562,0.00773,-0.0457901
 ,0.0146389,-0.0902225,-0.0501172,-0.0497411,-0.0299193,-0.0191123,-0.0
 573882,-0.0320744,-0.0742979,-0.0209107,-0.0439683,0.0456103,-0.019229
 1,-0.0225401,0.0623867,0.0665609,0.0244726,0.0653521,0.0026638,0.03120
 16,-0.0369398,-0.0953989,0.062867,-0.0189306,0.0743299,0.0759903,-0.00
 0781,-0.0198591,0.0161462,0.0548502,0.0879083,0.0150701,0.0024926,-0.0
 084415,-0.0163175,0.0880402,0.0342885,0.0453515,-0.0371248,0.0474785,-
 0.0810079,-0.0333544,-0.0612261,0.0048738,-0.0464688,-0.0079126,-0.020
 64,0.0373879\Polar=102.8290914,2.9128943,69.0292675,3.1516081,-2.22819
 75,50.5644103\Quadrupole=1.9636914,-1.2787524,-0.684939,-3.3663014,0.9
 022882,-0.1260547\PG=C01 [X(C5H7O3)]\NImag=3\\0.33583020,-0.22942787,0
 .17024202,0.08316918,-0.05914000,0.02069183,-0.32912072,0.23072648,-0.
 08211473,0.32740647,0.21984241,-0.17282473,0.05784476,-0.22180593,0.17
 920470,-0.08032042,0.05930422,-0.02293190,0.08029923,-0.05904537,0.023
 52311,0.01831276,0.04082452,-0.00419414,-0.00155361,0.00408205,-0.0008
 2544,1.25246997,0.01667811,0.01776356,-0.00075356,-0.00452970,-0.00178
 529,-0.00033641,-0.47618921,0.18089014,-0.00023881,0.00246510,-0.00094
 587,0.00057811,0.00082054,-0.00021465,0.23712480,-0.08297278,0.1085618
 9,-0.00085182,-0.00616674,0.00077746,0.00018805,0.00015380,-0.00003988
 ,-0.33374622,0.14643887,-0.06441700,0.33077539,-0.00194529,-0.01259811
 ,0.00194701,-0.00045585,-0.00095606,0.00013904,0.16221817,-0.08801724,
 0.03100471,-0.14449183,0.09028259,0.00010270,0.00139707,0.00065285,0.0
 0005486,0.00021879,0.00026926,-0.06697126,0.02885936,-0.04475511,0.065
 46162,-0.03108789,0.03183561,-0.02292403,-0.03764875,0.00279119,0.0005
 2418,-0.00144224,0.00034182,-0.92978327,0.31117402,-0.17081250,0.00310
 935,-0.01749601,0.00218115,1.23245591,-0.00577373,-0.00305225,0.000106
 26,-0.00311056,-0.00247354,-0.00003234,0.27929911,-0.11347458,0.050309
 37,0.00266343,0.00742567,0.00038472,-0.37704682,0.24672017,-0.00247761
 ,-0.00417095,0.00268811,0.00064918,0.00017690,-0.00019871,-0.16562742,
 0.05464567,-0.06563639,-0.00110388,-0.00234652,0.00801104,0.21932172,-
 0.08139628,0.10065222,0.00002261,0.00232488,-0.00023748,0.00019644,-0.
 00427997,0.00055813,0.00217963,0.00552294,-0.00089340,-0.00072348,0.00
 229484,-0.00124415,-0.22119253,0.08279397,-0.03368935,0.63631249,0.004
 62099,0.00007837,0.00050123,-0.00755699,0.00093047,-0.00108089,-0.0130
 1053,0.00242467,-0.00177823,0.00164212,0.00393318,0.00051789,0.0845072
 8,-0.09432078,0.01489752,-0.01628687,0.97054590,-0.00062901,0.00019183
 ,-0.00085094,0.00111900,-0.00058228,0.00111506,0.00206428,0.00063268,0
 .00207999,-0.00109730,0.00060955,0.00552131,-0.03402804,0.01507045,-0.
 07792882,0.06081218,-0.12627596,0.23806871,-0.00108046,-0.00055576,-0.
 00018199,0.00152673,0.00210136,0.00010905,-0.00128103,-0.00060290,-0.0
 0011805,0.00024186,-0.00099475,0.00032244,-0.00239822,0.04028801,-0.00
 991155,-0.11038979,0.03983618,-0.01098750,0.10899221,-0.00279345,0.000
 55018,-0.00034483,0.00467920,-0.00213690,0.00073556,-0.00029117,0.0026
 9144,-0.00039476,-0.00016861,0.00057086,-0.00026742,0.03763789,-0.0526
 1719,0.01719632,0.02288117,-0.71843484,0.10699186,-0.01327214,0.852651
 84,0.00021849,-0.00003199,0.00081546,-0.00034045,0.00034930,-0.0017326
 1,-0.00017614,-0.00044593,0.00048803,0.00017645,-0.00037809,-0.0008378
 7,-0.00947431,0.01753383,0.01742864,-0.00753945,0.11088937,-0.09923431
 ,0.01256543,-0.13487034,0.05875307,-0.00026469,0.00009744,-0.00007392,
 0.00126953,0.00173445,-0.00010801,-0.00715808,0.00123785,-0.00122885,0
 .00123150,0.00078741,0.00012110,-0.05958301,-0.01665050,-0.00728667,-0
 .24780936,-0.10201913,-0.00547641,0.00229534,-0.05856847,0.00354145,0.
 54109200,-0.00125826,-0.00023061,-0.00014611,0.00193101,-0.00018371,0.
 00033149,0.00430039,-0.00088227,0.00077881,-0.00017669,-0.00077567,0.0
 0003345,0.00410522,0.01334901,0.00038581,-0.07836643,-0.18241716,0.008
 51682,-0.06081459,-0.07984858,0.00911035,0.07262686,0.37423628,0.00015
 939,0.00002220,-0.00007161,-0.00015322,0.00028904,0.00012367,-0.001564
 59,0.00036344,0.00048732,0.00024210,0.00016510,-0.00036662,-0.00990027
 ,-0.00258116,0.00920091,-0.01159002,0.00456584,-0.06918907,0.00536669,
 0.00979910,0.02966859,0.04704040,-0.03651728,0.09662273,0.00002581,-0.
 00019735,0.00009087,-0.00052791,-0.00063932,-0.00002374,0.00168241,0.0
 0005836,0.00019849,-0.00039249,0.00000821,-0.00007573,0.00195161,-0.00
 126635,0.00059563,-0.06471914,-0.01256101,-0.00916675,0.00463813,0.017
 35248,-0.00180783,-0.15010016,0.03195945,-0.01972469,0.48477873,0.0000
 6622,0.00009704,0.00000360,0.00014361,0.00027370,-0.00005786,-0.001630
 68,0.00047505,-0.00024531,0.00015460,0.00018062,-0.00005703,-0.0052725
 0,-0.00212931,0.00016696,-0.01298014,0.02649730,-0.00627201,-0.0031047
 1,-0.00829568,-0.00010557,0.05388813,-0.11833395,0.01908977,0.10099777
 ,0.59926751,0.00000504,-0.00003657,-0.00006737,-0.00007752,-0.00008223
 ,0.00008727,0.00026753,-0.00001497,-0.00006806,-0.00002436,-0.00005338
 ,-0.00034003,-0.00041512,0.00079156,0.00612353,-0.00919111,-0.00903953
 ,0.00047302,-0.00041092,0.00365232,-0.00643302,-0.02323487,0.01725730,
 -0.07295769,0.00682925,-0.02382258,0.55973564,0.00002026,0.00001748,-0
 .00001307,0.00005281,0.00012812,-0.00000123,-0.00044192,0.00000060,-0.
 00005640,0.00007775,0.00004464,0.00010848,-0.00050157,-0.00048104,-0.0
 0150179,0.00336417,0.00755350,0.00206960,-0.00009923,-0.00255519,0.001
 12183,-0.03364643,0.02161607,0.02808780,-0.08574505,0.00807818,0.02817
 717,0.57353659,0.00003666,-0.00000926,-0.00002717,-0.00006483,-0.00003
 098,0.00005007,0.00013908,-0.00000255,-0.00003494,-0.00002402,-0.00000
 339,-0.00003569,0.00037103,0.00008534,0.00077366,-0.00192520,0.0002131
 0,0.00030241,0.00139545,0.00020913,-0.00176318,0.01652026,-0.00827733,
 -0.01080113,0.01098919,-0.10546620,-0.04582615,0.01811501,0.57078659,0
 .00000102,-0.00000134,0.00000662,0.00001816,0.00004823,-0.00002356,-0.
 00025397,0.00007268,-0.00000606,0.00002972,0.00000702,0.00004215,0.000
 07793,-0.00033030,-0.00063609,0.00197592,0.00466427,0.00052155,0.00078
 412,-0.00242054,-0.00026487,-0.00476258,0.00164202,0.01052427,0.039230
 45,-0.05032823,-0.18493978,0.03188407,-0.03381900,0.52541471,-0.000000
 20,0.00001437,-0.00000158,0.00004751,0.00009700,-0.00000519,-0.0005439
 7,0.00017999,-0.00009282,0.00006241,0.00002932,-0.00001844,-0.00131911
 ,-0.00068089,0.00026164,-0.00127442,0.00553815,-0.00289681,0.00050969,
 -0.00117455,0.00029955,-0.03630506,-0.02127425,-0.00982963,-0.13116038
 ,-0.11673706,-0.04358796,0.01003263,0.01065636,0.00394374,0.15975910,-
 0.00002773,-0.00000544,0.00001133,0.00002554,-0.00000819,-0.00001393,0
 .00018720,-0.00012421,0.00006327,-0.00000549,-0.00002278,0.00002554,0.
 00064527,0.00041694,-0.00041110,0.00237509,-0.00356967,0.00160091,-0.0
 0141691,0.00178718,-0.00070472,0.01793876,0.01340322,0.00651277,-0.130
 06958,-0.21936733,-0.06194220,-0.00683638,-0.00957902,-0.00315917,0.12
 593657,0.22919418,0.00000628,-0.00000104,0.00000539,-0.00001683,-0.000
 00884,-0.00001091,-0.00005083,0.00002204,-0.00002596,0.00000597,0.0000
 0133,-0.00001553,-0.00032468,-0.00005149,0.00023086,0.00060025,0.00314
 904,-0.00071564,0.00139687,-0.00090759,0.00082548,-0.00836095,-0.00447
 789,-0.00125048,-0.04428854,-0.05837859,-0.07567851,-0.01550713,-0.022
 99452,-0.00844135,0.05006966,0.06733779,0.07783384,0.00003100,0.000003
 47,0.00000592,-0.00001560,0.00003518,-0.00001133,-0.00012986,0.0000111
 0,-0.00006116,0.00004346,0.00000574,-0.00005299,-0.00033958,-0.0000720
 4,0.00104855,0.00388874,0.00728328,-0.00215841,-0.00116724,-0.00360687
 ,0.00008447,-0.01347878,0.02660470,-0.02896078,-0.05500083,-0.03035810
 ,0.03158157,0.00000731,-0.00873239,0.00923082,-0.00006763,-0.01076493,
 0.01424832,0.06610395,0.00000539,-0.00001299,-0.00001671,-0.00003238,-
 0.00004013,0.00002684,0.00013845,0.00003762,-0.00004142,-0.00002956,-0
 .00000126,-0.00000136,0.00034266,-0.00011226,0.00035457,-0.00381706,-0
 .00156579,-0.00029540,-0.00134833,0.00071467,-0.00112420,0.01018722,-0
 .01153801,0.01049700,-0.02161376,-0.16747884,0.13268346,0.00119320,0.0
 1218947,-0.01338954,-0.00291946,-0.01336655,0.01736400,0.01738045,0.18
 121114,0.00002017,-0.00000177,0.00000825,-0.00003717,-0.00000861,-0.00
 001127,0.00005717,-0.00000310,0.00002259,-0.00000077,0.00001393,-0.000
 00647,-0.00009224,-0.00025101,-0.00007374,0.00164976,0.00429739,0.0002
 7815,0.00147599,-0.00200826,0.00060393,-0.00649749,0.00384631,-0.00282
 671,0.02318005,0.13044793,-0.20085766,0.00454139,0.01729961,-0.0200294
 7,-0.00002085,-0.00714497,0.00951038,-0.02595528,-0.14391248,0.2151142
 7,-0.00000856,0.00000397,0.00000908,0.00004404,0.00005813,-0.00001796,
 -0.00013588,-0.00002236,0.00000121,0.00003703,-0.00000330,0.00001228,-
 0.00012857,0.00003736,-0.00027095,0.00171388,0.00064826,-0.00014350,-0
 .00037046,-0.00026879,0.00049681,-0.00085302,0.00064482,0.00270264,-0.
 01065498,0.00235417,-0.00463724,-0.27522421,0.08922327,-0.04627364,0.0
 0036641,0.00022702,0.00018019,0.00012162,-0.00030910,0.00032587,0.2973
 7488,-0.00000328,-0.00000333,0.00000785,-0.00000531,-0.00002024,-0.000
 00749,0.00006755,0.00001056,0.00002524,-0.00001787,-0.00000646,-0.0000
 0770,0.00014994,0.00007980,0.00004791,-0.00126597,-0.00253255,-0.00031
 386,-0.00033020,0.00112382,0.00035601,0.00396019,-0.00027081,-0.003206
 11,0.01145529,-0.00562794,0.00563980,0.08831032,-0.08007269,0.01697698
 ,-0.00049497,-0.00005545,0.00039532,-0.00010138,0.00040175,-0.00001409
 ,-0.09838748,0.08379288,-0.00000911,-0.00000106,0.00001540,-0.00001006
 ,-0.00003185,-0.00001104,0.00017768,-0.00003759,0.00001245,-0.00001861
 ,-0.00001502,-0.00002737,0.00019790,0.00022562,0.00041118,-0.00137815,
 -0.00269351,-0.00046388,-0.00000598,0.00117564,-0.00015236,0.00665845,
 -0.00331073,-0.00468160,0.02377916,-0.00739371,0.00847324,-0.04802309,
 0.01809284,-0.05760475,-0.00081421,-0.00003550,0.00103451,-0.00039105,
 0.00113512,0.00055510,0.05017243,-0.01812726,0.05889822,-0.00001085,-0
 .00000972,-0.00001465,0.00000561,-0.00002191,0.00001360,0.00002994,0.0
 0003037,-0.00000163,-0.00002149,-0.00000501,0.00000656,0.00002462,0.00
 006120,-0.00004143,-0.00090562,-0.00152431,0.00027823,-0.00033879,0.00
 088234,0.00007687,0.00197540,-0.00079811,-0.00069058,-0.00275302,-0.00
 762055,0.01037220,-0.04810210,-0.01211274,0.01072388,0.00019586,0.0002
 4019,-0.00079514,-0.00018374,0.00123087,0.00214457,0.00350500,0.019690
 32,-0.02289330,0.04742172,-0.00000751,-0.00000179,-0.00001770,0.000017
 25,0.00000517,0.00001528,-0.00004184,-0.00000110,-0.00000514,0.0000056
 5,-0.00000063,0.00001286,-0.00005594,0.00007069,-0.00013114,0.00029583
 ,-0.00027997,0.00035511,-0.00037062,0.00032531,0.00024775,-0.00194326,
 0.00086912,0.00065469,0.00169941,0.01151128,-0.01417954,-0.01198681,-0
 .17203247,0.13679600,-0.00044065,0.00092553,0.00069797,0.00186270,-0.0
 0104636,-0.00300560,-0.00169852,-0.00766719,0.00685948,0.01174406,0.18
 209119,0.00000576,0.00000257,0.00000924,-0.00000945,-0.00000665,-0.000
 00898,0.00004860,-0.00002436,0.00001266,-0.00000350,0.00000532,-0.0000
 0122,0.00006894,0.00000545,-0.00003899,0.00022337,0.00038413,-0.000145
 32,-0.00007087,-0.00022205,0.00019238,-0.00127354,0.00007271,0.0028438
 2,0.00120557,0.02013551,-0.02378674,0.01220406,0.13392220,-0.19612065,
 -0.00043598,0.00000679,0.00089414,0.00197168,-0.00366591,-0.00327698,0
 .00031530,0.00232890,-0.00376860,-0.01467518,-0.14612103,0.21508131,0.
 00001869,-0.00000642,-0.00001215,-0.00004353,-0.00004313,0.00003137,0.
 00009913,0.00001195,0.00001801,-0.00003130,0.00000371,-0.00000863,0.00
 010422,-0.00006115,0.00003394,-0.00066361,0.00132906,0.00024044,-0.001
 07875,-0.00073384,0.00075684,0.00133482,-0.00110020,-0.00118524,0.0079
 7726,0.01202107,0.00434635,-0.14333102,-0.12458712,-0.04660964,-0.0003
 0285,0.00154539,0.00283654,0.00018720,-0.00040859,-0.00079117,-0.01578
 716,-0.02302716,-0.00744206,-0.00084254,0.00092027,0.00042523,0.152359
 42,-0.00001267,0.00000732,0.00002402,0.00003847,0.00004573,-0.00002822
 ,-0.00009309,-0.00000581,0.00000556,0.00002234,-0.00001133,0.00000742,
 0.00002898,0.00003229,-0.00018932,0.00043292,-0.00150223,-0.00053212,-
 0.00081007,0.00070876,0.00093740,0.00020279,0.00090047,0.00114674,-0.0
 0817281,-0.01160325,-0.00502729,-0.12319770,-0.20800974,-0.05675907,0.
 00127006,0.00037158,-0.00214752,0.00044908,0.00060753,0.00044471,0.007
 49253,0.01084785,0.00415752,-0.01178700,-0.01476878,-0.00682357,0.1341
 3617,0.22237959,-0.00001308,0.00000174,-0.00002547,0.00004089,0.000018
 27,0.00002524,-0.00007629,-0.00000716,-0.00001283,0.00001197,-0.000012
 11,0.00001800,0.00006651,0.00021532,-0.00023376,-0.00005649,-0.0029985
 9,0.00047018,-0.00033373,0.00188499,-0.00012055,0.00094188,0.00247695,
 0.00187247,-0.02002219,-0.02318286,-0.00976385,-0.04309167,-0.05513900
 ,-0.06844272,0.00312889,-0.00214683,-0.00419625,-0.00058034,0.00038602
 ,0.00098962,-0.00287252,-0.00410149,-0.00269050,0.01549600,0.01782101,
 0.00811391,0.04736018,0.06478374,0.07399650\\-0.00430652,-0.00930664,0
 .00093967,-0.00010164,-0.00015953,0.00001384,0.00369409,0.01008657,-0.
 00114517,0.00012738,0.00004063,0.00001235,0.00045082,-0.00028506,0.000
 10207,-0.00003205,-0.00012319,0.00001684,0.00020844,-0.00016548,0.0000
 5515,-0.00001566,-0.00007784,0.00001122,-0.00002565,-0.00001518,-0.000
 00071,0.00000346,0.00000628,-0.00000246,-0.00000362,-0.00000056,0.0000
 0111,0.00000108,-0.00000354,-0.00000147,-0.00000002,0.00000102,-0.0000
 0102,-0.00000048,0.00000180,0.00000025,0.00000035,0.00000071,-0.000001
 67\\\@


 GOD DOES NOT PLAY WITH DICE.
               -- A. EINSTEIN
 Job cpu time:       0 days  0 hours 53 minutes  4.6 seconds.
 Elapsed time:       0 days  0 hours  2 minutes 13.0 seconds.
 File lengths (MBytes):  RWF=    153 Int=      0 D2E=      0 Chk=      6 Scr=      1
 Normal termination of Gaussian 16 at Sat Aug 16 17:34:21 2025.
