 Entering Gaussian System, Link 0=g16
 Initial command:
 /opt/g16/l1.exe "/home/aayush/scratches/g16/Gau-4224.inp" -scrdir="/home/aayush/scratches/g16/"
 Entering Link 1 = /opt/g16/l1.exe PID=      4227.
  
 Copyright (c) 1988,1990,1992,1993,1995,1998,2003,2009,2016,
            Gaussian, Inc.  All Rights Reserved.
  
 This is part of the Gaussian(R) 16 program.  It is based on
 the Gaussian(R) 09 system (copyright 2009, Gaussian, Inc.),
 the Gaussian(R) 03 system (copyright 2003, Gaussian, Inc.),
 the Gaussian(R) 98 system (copyright 1998, Gaussian, Inc.),
 the Gaussian(R) 94 system (copyright 1995, Gaussian, Inc.),
 the Gaussian 92(TM) system (copyright 1992, Gaussian, Inc.),
 the Gaussian 90(TM) system (copyright 1990, Gaussian, Inc.),
 the Gaussian 88(TM) system (copyright 1988, Gaussian, Inc.),
 the Gaussian 86(TM) system (copyright 1986, Carnegie Mellon
 University), and the Gaussian 82(TM) system (copyright 1983,
 Carnegie Mellon University). Gaussian is a federally registered
 trademark of Gaussian, Inc.
  
 This software contains proprietary and confidential information,
 including trade secrets, belonging to Gaussian, Inc.
  
 This software is provided under written license and may be
 used, copied, transmitted, or stored only in accord with that
 written license.
  
 The following legend is applicable only to US Government
 contracts under FAR:
  
                    RESTRICTED RIGHTS LEGEND
  
 Use, reproduction and disclosure by the US Government is
 subject to restrictions as set forth in subparagraphs (a)
 and (c) of the Commercial Computer Software - Restricted
 Rights clause in FAR 52.227-19.
  
 Gaussian, Inc.
 340 Quinnipiac St., Bldg. 40, Wallingford CT 06492
  
  
 ---------------------------------------------------------------
 Warning -- This program may not be used in any manner that
 competes with the business of Gaussian, Inc. or will provide
 assistance to any competitor of Gaussian, Inc.  The licensee
 of this program is prohibited from giving any competitor of
 Gaussian, Inc. access to this program.  By using this program,
 the user acknowledges that Gaussian, Inc. is engaged in the
 business of creating and licensing software in the field of
 computational chemistry and represents and warrants to the
 licensee that it is not a competitor of Gaussian, Inc. and that
 it will not use this program in any manner prohibited above.
 ---------------------------------------------------------------
  

 Cite this work as:
 Gaussian 16, Revision A.03,
 M. J. Frisch, G. W. Trucks, H. B. Schlegel, G. E. Scuseria, 
 M. A. Robb, J. R. Cheeseman, G. Scalmani, V. Barone, 
 G. A. Petersson, H. Nakatsuji, X. Li, M. Caricato, A. V. Marenich, 
 J. Bloino, B. G. Janesko, R. Gomperts, B. Mennucci, H. P. Hratchian, 
 J. V. Ortiz, A. F. Izmaylov, J. L. Sonnenberg, D. Williams-Young, 
 F. Ding, F. Lipparini, F. Egidi, J. Goings, B. Peng, A. Petrone, 
 T. Henderson, D. Ranasinghe, V. G. Zakrzewski, J. Gao, N. Rega, 
 G. Zheng, W. Liang, M. Hada, M. Ehara, K. Toyota, R. Fukuda, 
 J. Hasegawa, M. Ishida, T. Nakajima, Y. Honda, O. Kitao, H. Nakai, 
 T. Vreven, K. Throssell, J. A. Montgomery, Jr., J. E. Peralta, 
 F. Ogliaro, M. J. Bearpark, J. J. Heyd, E. N. Brothers, K. N. Kudin, 
 V. N. Staroverov, T. A. Keith, R. Kobayashi, J. Normand, 
 K. Raghavachari, A. P. Rendell, J. C. Burant, S. S. Iyengar, 
 J. Tomasi, M. Cossi, J. M. Millam, M. Klene, C. Adamo, R. Cammi, 
 J. W. Ochterski, R. L. Martin, K. Morokuma, O. Farkas, 
 J. B. Foresman, and D. J. Fox, Gaussian, Inc., Wallingford CT, 2016.
 
 ******************************************
 Gaussian 16:  ES64L-G16RevA.03 25-Dec-2016
                 2-Aug-2025 
 ******************************************
 %nprocshared=24
 Will use up to   24 processors via shared memory.
 %mem=12GB
 %chk=ethyl_propiolate_ts1.chk
 --------------------------
 # ccsd(t)/6-311++g(d,p) sp
 --------------------------
 1/38=1,172=1/1;
 2/12=2,17=6,18=5,40=1/2;
 3/5=4,6=6,7=1111,11=9,25=1,30=1/1,2,3;
 4//1;
 5/5=2,38=5/2;
 8/6=4,9=120000,10=2/1,4;
 9/5=7,14=2/13;
 6/7=2,8=2,9=2,10=2/1;
 99/5=1,9=1/99;
 -------------------
 Title Card Required
 -------------------
 Symbolic Z-matrix:
 Charge =  0 Multiplicity = 2
 O                     3.3511    0.79694   0.10789 
 H                     2.58968   1.36951  -0.08821 
 C                     2.39922  -1.00658   0.27217 
 H                     3.32451  -1.4965    0.47539 
 C                     1.23161  -0.7455    0.07355 
 C                    -0.01141  -0.04495  -0.20639 
 O                    -0.03804   1.14242  -0.40157 
 O                    -1.06028  -0.85644  -0.22218 
 C                    -2.34141  -0.23972  -0.47851 
 C                    -2.88651   0.41982   0.77248 
 H                    -2.96901  -1.06611  -0.80629 
 H                    -2.22549   0.47645  -1.2926 
 H                    -3.88605   0.81008   0.5719 
 H                    -2.95517  -0.30409   1.58568 
 H                    -2.24971   1.24893   1.08127 
 
                          Input orientation:                          
 ---------------------------------------------------------------------
 Center     Atomic      Atomic             Coordinates (Angstroms)
 Number     Number       Type             X           Y           Z
 ---------------------------------------------------------------------
      1          8           0        3.351098    0.796937    0.107886
      2          1           0        2.589683    1.369509   -0.088207
      3          6           0        2.399220   -1.006578    0.272165
      4          1           0        3.324511   -1.496502    0.475392
      5          6           0        1.231610   -0.745503    0.073553
      6          6           0       -0.011413   -0.044945   -0.206393
      7          8           0       -0.038037    1.142419   -0.401570
      8          8           0       -1.060275   -0.856441   -0.222176
      9          6           0       -2.341409   -0.239723   -0.478513
     10          6           0       -2.886514    0.419818    0.772475
     11          1           0       -2.969011   -1.066113   -0.806286
     12          1           0       -2.225491    0.476454   -1.292596
     13          1           0       -3.886052    0.810081    0.571902
     14          1           0       -2.955173   -0.304092    1.585680
     15          1           0       -2.249714    1.248932    1.081273
 ---------------------------------------------------------------------
                    Distance matrix (angstroms):
                    1          2          3          4          5
     1  O    0.000000
     2  H    0.972648   0.000000
     3  C    2.045905   2.410795   0.000000
     4  H    2.322850   3.011916   1.066532   0.000000
     5  C    2.621551   2.518691   1.212815   2.259582   0.000000
     6  C    3.480520   2.963165   2.639111   3.701383   1.454049
     7  O    3.444581   2.656065   3.318483   4.363450   2.324219
     8  O    4.722585   4.277265   3.497859   4.485825   2.313547
     9  C    5.815769   5.201695   4.860571   5.881503   3.650624
    10  C    6.284242   5.624182   5.497627   6.506717   4.336521
    11  H    6.652101   6.111217   5.475811   6.437107   4.303734
    12  H    5.758681   5.043213   5.102530   6.149867   3.912939
    13  H    7.252022   6.533288   6.549407   7.571120   5.372025
    14  H    6.570022   6.028952   5.557727   6.487605   4.473312
    15  H    5.702708   4.980159   5.230160   6.243115   4.136773
                    6          7          8          9         10
     6  C    0.000000
     7  O    1.203593   0.000000
     8  O    1.326230   2.252242   0.000000
     9  C    2.353905   2.687333   1.444768   0.000000
    10  C    3.072522   3.164547   2.439942   1.515620   0.000000
    11  H    3.185913   3.692156   2.007092   1.088228   2.169627
    12  H    2.520682   2.454056   2.068849   1.090448   2.169027
    13  H    4.043469   3.983129   3.375333   2.142751   1.091609
    14  H    3.456068   3.814609   2.676578   2.154470   1.090900
    15  H    2.888285   2.664898   2.747060   2.158109   1.090092
                   11         12         13         14         15
    11  H    0.000000
    12  H    1.780121   0.000000
    13  H    2.502093   2.518953   0.000000
    14  H    2.510452   3.070205   1.770780   0.000000
    15  H    3.072410   2.496510   1.769082   1.778759   0.000000
 Stoichiometry    C5H7O3(2)
 Framework group  C1[X(C5H7O3)]
 Deg. of freedom    39
 Full point group                 C1      NOp   1
 Largest Abelian subgroup         C1      NOp   1
 Largest concise Abelian subgroup C1      NOp   1
                         Standard orientation:                         
 ---------------------------------------------------------------------
 Center     Atomic      Atomic             Coordinates (Angstroms)
 Number     Number       Type             X           Y           Z
 ---------------------------------------------------------------------
      1          8           0        3.351098    0.796937    0.107886
      2          1           0        2.589683    1.369509   -0.088207
      3          6           0        2.399220   -1.006578    0.272165
      4          1           0        3.324511   -1.496502    0.475392
      5          6           0        1.231610   -0.745503    0.073553
      6          6           0       -0.011413   -0.044945   -0.206393
      7          8           0       -0.038037    1.142419   -0.401570
      8          8           0       -1.060275   -0.856441   -0.222176
      9          6           0       -2.341409   -0.239723   -0.478513
     10          6           0       -2.886514    0.419818    0.772475
     11          1           0       -2.969011   -1.066113   -0.806286
     12          1           0       -2.225491    0.476454   -1.292596
     13          1           0       -3.886052    0.810081    0.571902
     14          1           0       -2.955173   -0.304092    1.585680
     15          1           0       -2.249714    1.248932    1.081273
 ---------------------------------------------------------------------
 Rotational constants (GHZ):           5.3920805           0.9490180           0.8664727
 Standard basis: 6-311++G(d,p) (5D, 7F)
 There are   233 symmetry adapted cartesian basis functions of A   symmetry.
 There are   225 symmetry adapted basis functions of A   symmetry.
   225 basis functions,   351 primitive gaussians,   233 cartesian basis functions
    31 alpha electrons       30 beta electrons
       nuclear repulsion energy       349.4457440221 Hartrees.
 NAtoms=   15 NActive=   15 NUniq=   15 SFac= 1.00D+00 NAtFMM=   60 NAOKFM=F Big=F
 Integral buffers will be    131072 words long.
 Raffenetti 2 integral format.
 Two-electron integral symmetry is turned on.
 One-electron integrals computed using PRISM.
 NBasis=   225 RedAO= T EigKep=  2.18D-06  NBF=   225
 NBsUse=   225 1.00D-06 EigRej= -1.00D+00 NBFU=   225
 ExpMin= 3.60D-02 ExpMax= 8.59D+03 ExpMxC= 1.30D+03 IAcc=3 IRadAn=         5 AccDes= 0.00D+00
 Harris functional with IExCor=  205 and IRadAn=       5 diagonalized for initial guess.
 HarFok:  IExCor=  205 AccDes= 0.00D+00 IRadAn=         5 IDoV= 1 UseB2=F ITyADJ=14
 ICtDFT=  3500011 ScaDFX=  1.000000  1.000000  1.000000  1.000000
 FoFCou: FMM=F IPFlag=           0 FMFlag=      100000 FMFlg1=           0
         NFxFlg=           0 DoJE=T BraDBF=F KetDBF=T FulRan=T
         wScrn=  0.000000 ICntrl=       500 IOpCl=  0 I1Cent=   200000004 NGrid=           0
         NMat0=    1 NMatS0=      1 NMatT0=    0 NMatD0=    1 NMtDS0=    0 NMtDT0=    0
 Petite list used in FoFCou.
 Initial guess <Sx>= 0.0000 <Sy>= 0.0000 <Sz>= 0.5000 <S**2>= 0.7500 S= 0.5000
 Requested convergence on RMS density matrix=1.00D-08 within 128 cycles.
 Requested convergence on MAX density matrix=1.00D-06.
 Requested convergence on             energy=1.00D-06.
 No special actions if energy rises.
 Initial convergence to 1.0D-05 achieved.  Increase integral accuracy.
 SCF Done:  E(UHF) =  -417.985212327     A.U. after   34 cycles
            NFock= 34  Conv=0.45D-08     -V/T= 2.0006
 <Sx>= 0.0000 <Sy>= 0.0000 <Sz>= 0.5000 <S**2>= 0.9996 S= 0.6178
 <L.S>=  0.00000000000    
 Annihilation of the first spin contaminant:
 S**2 before annihilation     0.9996,   after     0.7901
 ExpMin= 3.60D-02 ExpMax= 8.59D+03 ExpMxC= 1.30D+03 IAcc=3 IRadAn=         5 AccDes= 0.00D+00
 HarFok:  IExCor=  205 AccDes= 0.00D+00 IRadAn=         5 IDoV=-2 UseB2=F ITyADJ=14
 ICtDFT= 12500011 ScaDFX=  1.000000  1.000000  1.000000  1.000000
 Range of M.O.s used for correlation:     9   225
 NBasis=   225 NAE=    31 NBE=    30 NFC=     8 NFV=     0
 NROrb=    217 NOA=    23 NOB=    22 NVA=   194 NVB=   195

 **** Warning!!: The largest alpha MO coefficient is  0.16102703D+03


 **** Warning!!: The largest beta MO coefficient is  0.17778025D+03

 Semi-Direct transformation.
 ModeAB=           4 MOrb=            23 LenV=    1609179872
 LASXX=    109339976 LTotXX=   109339976 LenRXX=   221407890
 LTotAB=   112067914 MaxLAS=   125254136 LenRXY=           0
 NonZer=   330747866 LenScr=   498067456 LnRSAI=   125254136
 LnScr1=   188641280 LExtra=           0 Total=   1033370762
 MaxDsk=          -1 SrtSym=           T ITran=            4
 JobTyp=1 Pass  1:  I=   1 to  23.
 (rs|ai) integrals will be sorted in core.
 ModeAB=           4 MOrb=            22 LenV=    1609179872
 LASXX=    104936601 LTotXX=   104936601 LenRXX=   190867446
 LTotAB=    85930845 MaxLAS=   119808304 LenRXY=           0
 NonZer=   295804047 LenScr=   445446144 LnRSAI=   119808304
 LnScr1=   180483072 LExtra=           0 Total=    936604966
 MaxDsk=          -1 SrtSym=           T ITran=            4
 JobTyp=2 Pass  1:  I=   1 to  22.
 (rs|ai) integrals will be sorted in core.
 SymMOI:  orbitals are not symmetric.
 Spin components of T(2) and E(2):
     alpha-alpha T2 =       0.5092568440D-01 E2=     -0.1678728054D+00
     alpha-beta  T2 =       0.2810156249D+00 E2=     -0.9276212251D+00
     beta-beta   T2 =       0.5068721418D-01 E2=     -0.1576660394D+00
 ANorm=    0.1175852254D+01
 E2 =    -0.1253160070D+01 EUMP2 =    -0.41923837239642D+03
 (S**2,0)=  0.99956D+00           (S**2,1)=  0.93178D+00
 E(PUHF)=      -0.41800533970D+03        E(PMP2)=      -0.41925600281D+03
 Keep R2 and R3 ints in memory in canonical form, NReq=652884060.
 CIDS: In Core Option IDoMem=           1.
 Iterations=  50 Convergence= 0.100D-06
 Produce multiple copies of IABC intergrals
 Iteration Nr.   1
 **********************
 DD1Dir will call FoFMem   1 times, MxPair=      1496
 NAB=   506 NAA=   253 NBB=   231.
 E(PMP3)=      -0.41928169660D+03
 MP4(R+Q)=  0.24584433D-01
 E3=       -0.30037304D-01        EUMP3=      -0.41926840970D+03
 E4(DQ)=   -0.56230774D-02        UMP4(DQ)=   -0.41927403278D+03
 E4(SDQ)=  -0.26761758D-01        UMP4(SDQ)=  -0.41929517146D+03
 DE(Corr)=  -1.2583271     E(Corr)=     -419.24353944    
 NORM(A)=   0.11854345D+01
 Iteration Nr.   2
 **********************
 DD1Dir will call FoFMem   1 times, MxPair=      1496
 NAB=   506 NAA=   253 NBB=   231.
 DE(Corr)=  -1.3018509     E(CORR)=     -419.28706327     Delta=-4.35D-02
 NORM(A)=   0.12072821D+01
 Iteration Nr.   3
 **********************
 DD1Dir will call FoFMem   1 times, MxPair=      1496
 NAB=   506 NAA=   253 NBB=   231.
 DE(Corr)=  -1.3051641     E(CORR)=     -419.29037639     Delta=-3.31D-03
 NORM(A)=   0.12203331D+01
 Iteration Nr.   4
 **********************
 DD1Dir will call FoFMem   1 times, MxPair=      1496
 NAB=   506 NAA=   253 NBB=   231.
 DE(Corr)=  -1.3128469     E(CORR)=     -419.29805921     Delta=-7.68D-03
 NORM(A)=   0.12291145D+01
 Iteration Nr.   5
 **********************
 DD1Dir will call FoFMem   1 times, MxPair=      1496
 NAB=   506 NAA=   253 NBB=   231.
 DE(Corr)=  -1.3151408     E(CORR)=     -419.30035316     Delta=-2.29D-03
 NORM(A)=   0.12333399D+01
 Iteration Nr.   6
 **********************
 DD1Dir will call FoFMem   1 times, MxPair=      1496
 NAB=   506 NAA=   253 NBB=   231.
 DE(Corr)=  -1.3158218     E(CORR)=     -419.30103412     Delta=-6.81D-04
 NORM(A)=   0.12339591D+01
 Iteration Nr.   7
 **********************
 DD1Dir will call FoFMem   1 times, MxPair=      1496
 NAB=   506 NAA=   253 NBB=   231.
 DE(Corr)=  -1.3159089     E(CORR)=     -419.30112126     Delta=-8.71D-05
 NORM(A)=   0.12340949D+01
 Iteration Nr.   8
 **********************
 DD1Dir will call FoFMem   1 times, MxPair=      1496
 NAB=   506 NAA=   253 NBB=   231.
 DE(Corr)=  -1.3158885     E(CORR)=     -419.30110087     Delta= 2.04D-05
 NORM(A)=   0.12341077D+01
 Iteration Nr.   9
 **********************
 DD1Dir will call FoFMem   1 times, MxPair=      1496
 NAB=   506 NAA=   253 NBB=   231.
 DE(Corr)=  -1.3159011     E(CORR)=     -419.30111339     Delta=-1.25D-05
 NORM(A)=   0.12341033D+01
 Iteration Nr.  10
 **********************
 DD1Dir will call FoFMem   1 times, MxPair=      1496
 NAB=   506 NAA=   253 NBB=   231.
 DE(Corr)=  -1.3158968     E(CORR)=     -419.30110911     Delta= 4.28D-06
 NORM(A)=   0.12341049D+01
 Iteration Nr.  11
 **********************
 DD1Dir will call FoFMem   1 times, MxPair=      1496
 NAB=   506 NAA=   253 NBB=   231.
 DE(Corr)=  -1.3159079     E(CORR)=     -419.30112018     Delta=-1.11D-05
 NORM(A)=   0.12341215D+01
 Iteration Nr.  12
 **********************
 DD1Dir will call FoFMem   1 times, MxPair=      1496
 NAB=   506 NAA=   253 NBB=   231.
 DE(Corr)=  -1.3159110     E(CORR)=     -419.30112328     Delta=-3.10D-06
 NORM(A)=   0.12341429D+01
 Iteration Nr.  13
 **********************
 DD1Dir will call FoFMem   1 times, MxPair=      1496
 NAB=   506 NAA=   253 NBB=   231.
 DE(Corr)=  -1.3159170     E(CORR)=     -419.30112931     Delta=-6.03D-06
 NORM(A)=   0.12341613D+01
 Iteration Nr.  14
 **********************
 DD1Dir will call FoFMem   1 times, MxPair=      1496
 NAB=   506 NAA=   253 NBB=   231.
 DE(Corr)=  -1.3159210     E(CORR)=     -419.30113328     Delta=-3.97D-06
 NORM(A)=   0.12341737D+01
 Iteration Nr.  15
 **********************
 DD1Dir will call FoFMem   1 times, MxPair=      1496
 NAB=   506 NAA=   253 NBB=   231.
 DE(Corr)=  -1.3159230     E(CORR)=     -419.30113531     Delta=-2.02D-06
 NORM(A)=   0.12341798D+01
 Iteration Nr.  16
 **********************
 DD1Dir will call FoFMem   1 times, MxPair=      1496
 NAB=   506 NAA=   253 NBB=   231.
 DE(Corr)=  -1.3159244     E(CORR)=     -419.30113677     Delta=-1.46D-06
 NORM(A)=   0.12341827D+01
 Iteration Nr.  17
 **********************
 DD1Dir will call FoFMem   1 times, MxPair=      1496
 NAB=   506 NAA=   253 NBB=   231.
 DE(Corr)=  -1.3159248     E(CORR)=     -419.30113712     Delta=-3.47D-07
 NORM(A)=   0.12341834D+01
 Iteration Nr.  18
 **********************
 DD1Dir will call FoFMem   1 times, MxPair=      1496
 NAB=   506 NAA=   253 NBB=   231.
 DE(Corr)=  -1.3159250     E(CORR)=     -419.30113730     Delta=-1.81D-07
 NORM(A)=   0.12341835D+01
 Iteration Nr.  19
 **********************
 DD1Dir will call FoFMem   1 times, MxPair=      1496
 NAB=   506 NAA=   253 NBB=   231.
 DE(Corr)=  -1.3159250     E(CORR)=     -419.30113729     Delta= 4.29D-09
 NORM(A)=   0.12341835D+01
 Wavefunction amplitudes converged. E(Corr)=     -419.30113729    
 Largest amplitude= 7.76D-02
 Time for triples=    38184.60 seconds.
 T4(CCSD)= -0.57812107D-01
 T5(CCSD)=  0.40875988D-02
 CCSD(T)= -0.41935486180D+03

 S**2, projected HF & approx projected MPn energies after annihilation of
 unwanted spin states (see manual for definitions):

 spins       (S**2,0) (S**2,1)    PUHF        PMP2        PMP3        PMP4
 annihilated
 s+1         0.72637  0.74066 -418.005340 -419.256003 -419.281697
 s+1,s+2     0.75038  0.74993 -418.003756 -419.254498 -419.280297
 s+1 to s+3  0.75000  0.75000 -418.003789 -419.254523 -419.280308
 s+1 to s+4  0.75000  0.75000 -418.003789 -419.254522 -419.280307
 s+1 to s+5  0.75000  0.75000 -418.003789
 s+1 to s+6  0.75000  0.75000 -418.003789

 Discarding MO integrals.

 **********************************************************************

            Population analysis using the SCF density.

 **********************************************************************

 Orbital symmetries:
 Alpha Orbitals:
       Occupied  (A) (A) (A) (A) (A) (A) (A) (A) (A) (A) (A) (A)
                 (A) (A) (A) (A) (A) (A) (A) (A) (A) (A) (A) (A)
                 (A) (A) (A) (A) (A) (A) (A)
       Virtual   (A) (A) (A) (A) (A) (A) (A) (A) (A) (A) (A) (A)
                 (A) (A) (A) (A) (A) (A) (A) (A) (A) (A) (A) (A)
                 (A) (A) (A) (A) (A) (A) (A) (A) (A) (A) (A) (A)
                 (A) (A) (A) (A) (A) (A) (A) (A) (A) (A) (A) (A)
                 (A) (A) (A) (A) (A) (A) (A) (A) (A) (A) (A) (A)
                 (A) (A) (A) (A) (A) (A) (A) (A) (A) (A) (A) (A)
                 (A) (A) (A) (A) (A) (A) (A) (A) (A) (A) (A) (A)
                 (A) (A) (A) (A) (A) (A) (A) (A) (A) (A) (A) (A)
                 (A) (A) (A) (A) (A) (A) (A) (A) (A) (A) (A) (A)
                 (A) (A) (A) (A) (A) (A) (A) (A) (A) (A) (A) (A)
                 (A) (A) (A) (A) (A) (A) (A) (A) (A) (A) (A) (A)
                 (A) (A) (A) (A) (A) (A) (A) (A) (A) (A) (A) (A)
                 (A) (A) (A) (A) (A) (A) (A) (A) (A) (A) (A) (A)
                 (A) (A) (A) (A) (A) (A) (A) (A) (A) (A) (A) (A)
                 (A) (A) (A) (A) (A) (A) (A) (A) (A) (A) (A) (A)
                 (A) (A) (A) (A) (A) (A) (A) (A) (A) (A) (A) (A)
                 (A) (A)
 Beta  Orbitals:
       Occupied  (A) (A) (A) (A) (A) (A) (A) (A) (A) (A) (A) (A)
                 (A) (A) (A) (A) (A) (A) (A) (A) (A) (A) (A) (A)
                 (A) (A) (A) (A) (A) (A)
       Virtual   (A) (A) (A) (A) (A) (A) (A) (A) (A) (A) (A) (A)
                 (A) (A) (A) (A) (A) (A) (A) (A) (A) (A) (A) (A)
                 (A) (A) (A) (A) (A) (A) (A) (A) (A) (A) (A) (A)
                 (A) (A) (A) (A) (A) (A) (A) (A) (A) (A) (A) (A)
                 (A) (A) (A) (A) (A) (A) (A) (A) (A) (A) (A) (A)
                 (A) (A) (A) (A) (A) (A) (A) (A) (A) (A) (A) (A)
                 (A) (A) (A) (A) (A) (A) (A) (A) (A) (A) (A) (A)
                 (A) (A) (A) (A) (A) (A) (A) (A) (A) (A) (A) (A)
                 (A) (A) (A) (A) (A) (A) (A) (A) (A) (A) (A) (A)
                 (A) (A) (A) (A) (A) (A) (A) (A) (A) (A) (A) (A)
                 (A) (A) (A) (A) (A) (A) (A) (A) (A) (A) (A) (A)
                 (A) (A) (A) (A) (A) (A) (A) (A) (A) (A) (A) (A)
                 (A) (A) (A) (A) (A) (A) (A) (A) (A) (A) (A) (A)
                 (A) (A) (A) (A) (A) (A) (A) (A) (A) (A) (A) (A)
                 (A) (A) (A) (A) (A) (A) (A) (A) (A) (A) (A) (A)
                 (A) (A) (A) (A) (A) (A) (A) (A) (A) (A) (A) (A)
                 (A) (A) (A)
 The electronic state is 2-A.
 Alpha  occ. eigenvalues --  -20.62257 -20.61388 -20.57186 -11.42137 -11.30428
 Alpha  occ. eigenvalues --  -11.26962 -11.26491 -11.23174  -1.49291  -1.39409
 Alpha  occ. eigenvalues --   -1.37054  -1.09327  -1.04669  -0.92740  -0.84434
 Alpha  occ. eigenvalues --   -0.77449  -0.73464  -0.70863  -0.67515  -0.65579
 Alpha  occ. eigenvalues --   -0.64372  -0.63787  -0.59369  -0.56258  -0.54829
 Alpha  occ. eigenvalues --   -0.54297  -0.51495  -0.50016  -0.48051  -0.43143
 Alpha  occ. eigenvalues --   -0.41900
 Alpha virt. eigenvalues --    0.03888   0.04738   0.05619   0.06297   0.07164
 Alpha virt. eigenvalues --    0.08501   0.08933   0.09377   0.11050   0.12293
 Alpha virt. eigenvalues --    0.12728   0.13679   0.14514   0.15013   0.16672
 Alpha virt. eigenvalues --    0.17215   0.17958   0.18475   0.18715   0.19707
 Alpha virt. eigenvalues --    0.19826   0.20318   0.21498   0.21762   0.22423
 Alpha virt. eigenvalues --    0.23366   0.24520   0.27360   0.27906   0.29087
 Alpha virt. eigenvalues --    0.29481   0.29958   0.30989   0.33340   0.33617
 Alpha virt. eigenvalues --    0.34022   0.35676   0.36054   0.37173   0.38329
 Alpha virt. eigenvalues --    0.38839   0.39429   0.40553   0.41647   0.42033
 Alpha virt. eigenvalues --    0.44651   0.45423   0.46439   0.48129   0.48327
 Alpha virt. eigenvalues --    0.50447   0.53201   0.57145   0.59838   0.61777
 Alpha virt. eigenvalues --    0.62831   0.63770   0.68572   0.70902   0.72136
 Alpha virt. eigenvalues --    0.76596   0.78434   0.78893   0.80914   0.81496
 Alpha virt. eigenvalues --    0.83032   0.83885   0.85753   0.87176   0.88446
 Alpha virt. eigenvalues --    0.89287   0.90733   0.91693   0.93860   0.96831
 Alpha virt. eigenvalues --    1.03091   1.04167   1.09541   1.13091   1.17180
 Alpha virt. eigenvalues --    1.19067   1.24512   1.25113   1.26097   1.30456
 Alpha virt. eigenvalues --    1.32751   1.34201   1.35712   1.38106   1.38375
 Alpha virt. eigenvalues --    1.40873   1.43373   1.45183   1.51604   1.51626
 Alpha virt. eigenvalues --    1.55189   1.56110   1.58136   1.61848   1.65422
 Alpha virt. eigenvalues --    1.67239   1.69412   1.71717   1.72265   1.75351
 Alpha virt. eigenvalues --    1.79972   1.81228   1.82275   1.84455   1.85883
 Alpha virt. eigenvalues --    1.90329   1.92883   1.93494   1.95968   1.98293
 Alpha virt. eigenvalues --    2.04328   2.07372   2.09353   2.11277   2.12197
 Alpha virt. eigenvalues --    2.19899   2.21858   2.25667   2.29279   2.31341
 Alpha virt. eigenvalues --    2.37388   2.40066   2.42107   2.48596   2.59828
 Alpha virt. eigenvalues --    2.62915   2.67793   2.70732   2.81921   2.83319
 Alpha virt. eigenvalues --    2.84235   2.89247   2.91389   2.92366   2.92778
 Alpha virt. eigenvalues --    2.95658   2.97845   3.02386   3.04237   3.08112
 Alpha virt. eigenvalues --    3.09580   3.12398   3.14829   3.15606   3.21820
 Alpha virt. eigenvalues --    3.24389   3.28028   3.28994   3.32154   3.34049
 Alpha virt. eigenvalues --    3.39687   3.45879   3.48771   3.50061   3.52047
 Alpha virt. eigenvalues --    3.55576   3.59569   3.65310   3.69538   3.73887
 Alpha virt. eigenvalues --    3.77711   3.89897   4.00661   4.09129   4.20725
 Alpha virt. eigenvalues --    4.21982   4.25411   4.27153   4.40794   4.52850
 Alpha virt. eigenvalues --    4.53852   4.66819   5.49587   5.54414   5.57796
 Alpha virt. eigenvalues --    5.61226   5.76592   5.90275   6.03274   6.20871
 Alpha virt. eigenvalues --    6.42519  24.70244  25.00481  25.01256  25.14195
 Alpha virt. eigenvalues --   26.13691  51.51792  51.59454  51.71847
  Beta  occ. eigenvalues --  -20.62240 -20.57551 -20.56738 -11.42468 -11.30424
  Beta  occ. eigenvalues --  -11.28667 -11.24499 -11.23173  -1.49049  -1.38645
  Beta  occ. eigenvalues --   -1.23123  -1.07459  -1.04697  -0.93282  -0.84380
  Beta  occ. eigenvalues --   -0.77326  -0.73247  -0.70270  -0.67107  -0.63810
  Beta  occ. eigenvalues --   -0.61895  -0.58945  -0.55415  -0.54710  -0.51246
  Beta  occ. eigenvalues --   -0.50392  -0.48774  -0.46996  -0.44034  -0.42549
  Beta virt. eigenvalues --    0.03888   0.04685   0.05620   0.05853   0.06922
  Beta virt. eigenvalues --    0.07556   0.08568   0.09090   0.10029   0.11956
  Beta virt. eigenvalues --    0.12830   0.13122   0.13688   0.14455   0.14693
  Beta virt. eigenvalues --    0.16799   0.17234   0.17990   0.18392   0.18664
  Beta virt. eigenvalues --    0.19691   0.19836   0.20306   0.21414   0.22166
  Beta virt. eigenvalues --    0.22647   0.24199   0.25337   0.27079   0.28005
  Beta virt. eigenvalues --    0.29224   0.29831   0.30722   0.31769   0.33547
  Beta virt. eigenvalues --    0.33732   0.34984   0.35791   0.37016   0.37468
  Beta virt. eigenvalues --    0.38557   0.39058   0.40525   0.40856   0.41777
  Beta virt. eigenvalues --    0.42376   0.45043   0.45507   0.47566   0.48397
  Beta virt. eigenvalues --    0.48695   0.50916   0.53828   0.57156   0.60006
  Beta virt. eigenvalues --    0.61485   0.63088   0.63708   0.69133   0.69812
  Beta virt. eigenvalues --    0.71981   0.76981   0.78118   0.78699   0.80163
  Beta virt. eigenvalues --    0.82679   0.83787   0.83926   0.85957   0.87171
  Beta virt. eigenvalues --    0.88538   0.89774   0.90763   0.93085   0.93990
  Beta virt. eigenvalues --    0.97273   1.02946   1.04994   1.09671   1.13123
  Beta virt. eigenvalues --    1.18108   1.19105   1.25451   1.26010   1.27227
  Beta virt. eigenvalues --    1.30579   1.34383   1.35231   1.37352   1.39617
  Beta virt. eigenvalues --    1.40419   1.41647   1.43555   1.46553   1.51701
  Beta virt. eigenvalues --    1.53599   1.54758   1.56819   1.58710   1.61934
  Beta virt. eigenvalues --    1.66060   1.67088   1.69861   1.72333   1.73661
  Beta virt. eigenvalues --    1.77462   1.80082   1.81338   1.82387   1.84481
  Beta virt. eigenvalues --    1.86641   1.90452   1.93011   1.93940   1.95981
  Beta virt. eigenvalues --    1.98444   2.04359   2.07828   2.09440   2.11348
  Beta virt. eigenvalues --    2.12380   2.19980   2.22163   2.25854   2.29496
  Beta virt. eigenvalues --    2.31398   2.38379   2.40264   2.42158   2.48617
  Beta virt. eigenvalues --    2.59843   2.62993   2.67756   2.71343   2.81927
  Beta virt. eigenvalues --    2.83338   2.84272   2.88948   2.91405   2.92393
  Beta virt. eigenvalues --    2.92935   2.95657   2.97961   3.01882   3.04150
  Beta virt. eigenvalues --    3.08714   3.09776   3.13627   3.18485   3.22511
  Beta virt. eigenvalues --    3.24983   3.26114   3.28936   3.31221   3.33097
  Beta virt. eigenvalues --    3.34945   3.42328   3.46321   3.50636   3.52082
  Beta virt. eigenvalues --    3.54603   3.59273   3.61319   3.65529   3.69562
  Beta virt. eigenvalues --    3.74364   3.78295   3.89621   4.00937   4.09536
  Beta virt. eigenvalues --    4.20737   4.21989   4.27095   4.28682   4.40840
  Beta virt. eigenvalues --    4.53209   4.53949   4.66848   5.51909   5.57877
  Beta virt. eigenvalues --    5.62274   5.66491   5.77089   5.90346   6.05731
  Beta virt. eigenvalues --    6.21025   6.42637  24.70460  25.00232  25.01247
  Beta virt. eigenvalues --   25.14193  26.13714  51.53985  51.59493  51.72087
          Condensed to atoms (all electrons):
               1          2          3          4          5          6
     1  O    8.080141   0.290172   0.097327  -0.022425  -0.144572  -0.059397
     2  H    0.290172   0.428925   0.035029   0.002238  -0.033757   0.000014
     3  C    0.097327   0.035029  20.704031   0.600356  -7.610537  -6.350540
     4  H   -0.022425   0.002238   0.600356   0.404899  -0.213830   0.024475
     5  C   -0.144572  -0.033757  -7.610537  -0.213830  15.322858  -3.309370
     6  C   -0.059397   0.000014  -6.350540   0.024475  -3.309370  16.518107
     7  O    0.000196   0.006555   0.374261  -0.000965   0.287650  -0.304031
     8  O   -0.003424  -0.000401   0.253006   0.001199  -0.274774  -0.199347
     9  C   -0.000851   0.000395   0.064370   0.001236  -0.269115   0.053899
    10  C   -0.000825  -0.000518   0.055288   0.000735  -0.085510  -0.088560
    11  H    0.000014  -0.000014   0.005126  -0.000001   0.016282  -0.016121
    12  H   -0.000086  -0.000118  -0.013487  -0.000041  -0.048936   0.039014
    13  H   -0.000061  -0.000043   0.004704   0.000020   0.009058  -0.020528
    14  H    0.000054   0.000035  -0.013909  -0.000084  -0.003245   0.021931
    15  H    0.000070  -0.000146   0.001668  -0.000049  -0.026524   0.011495
               7          8          9         10         11         12
     1  O    0.000196  -0.003424  -0.000851  -0.000825   0.000014  -0.000086
     2  H    0.006555  -0.000401   0.000395  -0.000518  -0.000014  -0.000118
     3  C    0.374261   0.253006   0.064370   0.055288   0.005126  -0.013487
     4  H   -0.000965   0.001199   0.001236   0.000735  -0.000001  -0.000041
     5  C    0.287650  -0.274774  -0.269115  -0.085510   0.016282  -0.048936
     6  C   -0.304031  -0.199347   0.053899  -0.088560  -0.016121   0.039014
     7  O    8.152888  -0.116949   0.011988  -0.051223   0.002089  -0.027273
     8  O   -0.116949   8.360705   0.207411  -0.077616  -0.081573  -0.012891
     9  C    0.011988   0.207411   5.322408  -0.013667   0.434228   0.450284
    10  C   -0.051223  -0.077616  -0.013667   5.465590  -0.042695  -0.037314
    11  H    0.002089  -0.081573   0.434228  -0.042695   0.543088  -0.033830
    12  H   -0.027273  -0.012891   0.450284  -0.037314  -0.033830   0.509173
    13  H   -0.000092   0.017148  -0.043945   0.405920   0.001892  -0.004603
    14  H    0.002112  -0.009144  -0.025546   0.412141  -0.006111  -0.000377
    15  H   -0.002497  -0.011878  -0.035333   0.416018   0.006402  -0.001758
              13         14         15
     1  O   -0.000061   0.000054   0.000070
     2  H   -0.000043   0.000035  -0.000146
     3  C    0.004704  -0.013909   0.001668
     4  H    0.000020  -0.000084  -0.000049
     5  C    0.009058  -0.003245  -0.026524
     6  C   -0.020528   0.021931   0.011495
     7  O   -0.000092   0.002112  -0.002497
     8  O    0.017148  -0.009144  -0.011878
     9  C   -0.043945  -0.025546  -0.035333
    10  C    0.405920   0.412141   0.416018
    11  H    0.001892  -0.006111   0.006402
    12  H   -0.004603  -0.000377  -0.001758
    13  H    0.560243  -0.032060  -0.033053
    14  H   -0.032060   0.554307  -0.046414
    15  H   -0.033053  -0.046414   0.549593
          Atomic-Atomic Spin Densities.
               1          2          3          4          5          6
     1  O    0.933057   0.005936   0.169333   0.006243  -0.145342  -0.057303
     2  H    0.005936  -0.037507  -0.025704  -0.000842   0.011876   0.013629
     3  C    0.169333  -0.025704  -0.111791   0.066724  -0.378403  -0.564929
     4  H    0.006243  -0.000842   0.066724   0.058263  -0.047013  -0.011206
     5  C   -0.145342   0.011876  -0.378403  -0.047013   1.284741   0.307729
     6  C   -0.057303   0.013629  -0.564929  -0.011206   0.307729   0.100797
     7  O    0.004089  -0.000732   0.021915  -0.000190  -0.018942  -0.048194
     8  O   -0.000343  -0.000095   0.012873   0.000030  -0.070631   0.088921
     9  C    0.000317  -0.000396   0.026755   0.000182  -0.020670  -0.018665
    10  C    0.000485  -0.000143   0.014168   0.000031   0.000479  -0.003147
    11  H    0.000001   0.000004   0.000773   0.000004  -0.001278   0.000134
    12  H   -0.000181   0.000073  -0.005923  -0.000029  -0.002192   0.007262
    13  H    0.000021  -0.000017   0.001892   0.000009   0.000009  -0.001792
    14  H   -0.000043   0.000023  -0.003183  -0.000017  -0.000356   0.003033
    15  H   -0.000031  -0.000001  -0.000839  -0.000005  -0.000349  -0.000164
               7          8          9         10         11         12
     1  O    0.004089  -0.000343   0.000317   0.000485   0.000001  -0.000181
     2  H   -0.000732  -0.000095  -0.000396  -0.000143   0.000004   0.000073
     3  C    0.021915   0.012873   0.026755   0.014168   0.000773  -0.005923
     4  H   -0.000190   0.000030   0.000182   0.000031   0.000004  -0.000029
     5  C   -0.018942  -0.070631  -0.020670   0.000479  -0.001278  -0.002192
     6  C   -0.048194   0.088921  -0.018665  -0.003147   0.000134   0.007262
     7  O    0.126987   0.000352  -0.004770   0.002381  -0.000213  -0.000085
     8  O    0.000352  -0.028270   0.006514  -0.006913   0.000012  -0.000550
     9  C   -0.004770   0.006514   0.003632   0.000765   0.000767   0.002460
    10  C    0.002381  -0.006913   0.000765  -0.002461  -0.001001  -0.001107
    11  H   -0.000213   0.000012   0.000767  -0.001001   0.000631   0.000356
    12  H   -0.000085  -0.000550   0.002460  -0.001107   0.000356  -0.000256
    13  H    0.000023  -0.000136   0.000431  -0.000612  -0.000093   0.000085
    14  H    0.000044   0.000174   0.000229  -0.000288   0.000052   0.000022
    15  H   -0.000255   0.000718   0.000227   0.000110   0.000192   0.000095
              13         14         15
     1  O    0.000021  -0.000043  -0.000031
     2  H   -0.000017   0.000023  -0.000001
     3  C    0.001892  -0.003183  -0.000839
     4  H    0.000009  -0.000017  -0.000005
     5  C    0.000009  -0.000356  -0.000349
     6  C   -0.001792   0.003033  -0.000164
     7  O    0.000023   0.000044  -0.000255
     8  O   -0.000136   0.000174   0.000718
     9  C    0.000431   0.000229   0.000227
    10  C   -0.000612  -0.000288   0.000110
    11  H   -0.000093   0.000052   0.000192
    12  H    0.000085   0.000022   0.000095
    13  H    0.000257  -0.000028   0.000153
    14  H   -0.000028   0.000282  -0.000049
    15  H    0.000153  -0.000049   0.000190
 Mulliken charges and spin densities:
               1          2
     1  O   -0.236332   0.916241
     2  H    0.271633  -0.033898
     3  C   -2.206693  -0.776339
     4  H    0.202237   0.072182
     5  C    2.384324   0.919658
     6  C   -0.321042  -0.183895
     7  O   -0.334710   0.082409
     8  O   -0.051471   0.002655
     9  C   -0.157763  -0.002221
    10  C   -0.357764   0.002746
    11  H    0.171225   0.000340
    12  H    0.182242   0.000031
    13  H    0.135400   0.000203
    14  H    0.146310  -0.000105
    15  H    0.172403  -0.000008
 Sum of Mulliken charges =  -0.00000   1.00000
 Mulliken charges and spin densities with hydrogens summed into heavy atoms:
               1          2
     1  O    0.035301   0.882343
     3  C   -2.004456  -0.704157
     5  C    2.384324   0.919658
     6  C   -0.321042  -0.183895
     7  O   -0.334710   0.082409
     8  O   -0.051471   0.002655
     9  C    0.195704  -0.001850
    10  C    0.096350   0.002837
 Electronic spatial extent (au):  <R**2>=           1317.2223
 Charge=              0.0000 electrons
 Dipole moment (field-independent basis, Debye):
    X=             -2.2918    Y=             -1.0812    Z=              0.0771  Tot=              2.5352
 Quadrupole moment (field-independent basis, Debye-Ang):
   XX=            -42.9002   YY=            -48.8638   ZZ=            -47.6917
   XY=             -3.6148   XZ=              1.3016   YZ=             -0.0630
 Traceless Quadrupole moment (field-independent basis, Debye-Ang):
   XX=              3.5850   YY=             -2.3785   ZZ=             -1.2065
   XY=             -3.6148   XZ=              1.3016   YZ=             -0.0630
 Octapole moment (field-independent basis, Debye-Ang**2):
  XXX=            -30.4001  YYY=              8.0972  ZZZ=             -3.7790  XYY=             12.0025
  XXY=            -15.6788  XXZ=             -1.2206  XZZ=             -3.3042  YZZ=              1.4018
  YYZ=              1.0452  XYZ=             -4.2459
 Hexadecapole moment (field-independent basis, Debye-Ang**3):
 XXXX=          -1362.4744 YYYY=           -223.7434 ZZZZ=           -112.9232 XXXY=            -57.5434
 XXXZ=             23.7398 YYYX=             22.1340 YYYZ=             -0.4010 ZZZX=              2.6688
 ZZZY=             -1.7786 XXYY=           -223.9741 XXZZ=           -251.7530 YYZZ=            -57.0812
 XXYZ=            -13.7192 YYXZ=              3.4456 ZZXY=              4.7184
 N-N= 3.494457440221D+02 E-N=-1.681788414558D+03  KE= 4.177509565914D+02
 1\1\GINC-AJ\SP\UCCSD(T)-FC\6-311++G(d,p)\C5H7O3(2)\AAYUSH\02-Aug-2025\
 0\\# ccsd(t)/6-311++g(d,p) sp\\Title Card Required\\0,2\O,0,3.351098,0
 .796937,0.107886\H,0,2.589683,1.369509,-0.088207\C,0,2.39922,-1.006578
 ,0.272165\H,0,3.324511,-1.496502,0.475392\C,0,1.23161,-0.745503,0.0735
 53\C,0,-0.011413,-0.044945,-0.206393\O,0,-0.038037,1.142419,-0.40157\O
 ,0,-1.060275,-0.856441,-0.222176\C,0,-2.341409,-0.239723,-0.478513\C,0
 ,-2.886514,0.419818,0.772475\H,0,-2.969011,-1.066113,-0.806286\H,0,-2.
 225491,0.476454,-1.292596\H,0,-3.886052,0.810081,0.571902\H,0,-2.95517
 3,-0.304092,1.58568\H,0,-2.249714,1.248932,1.081273\\Version=ES64L-G16
 RevA.03\State=2-A\HF=-417.9852123\MP2=-419.2383724\MP3=-419.2684097\MP
 4D=-419.2986172\MP4DQ=-419.2740328\PUHF=-418.0053397\PMP2-0=-419.25600
 28\PMP3-0=-419.2816966\MP4SDQ=-419.2951715\CCSD=-419.3011373\CCSD(T)=-
 419.3548618\S2=0.999558\S2-1=0.931777\S2A=0.79007\RMSD=4.510e-09\PG=C0
 1 [X(C5H7O3)]\\@


 THE WISE MAN HAS THE POWER TO REASON AWAY
 WHAT A FOOL BELIEVES.
                     - DOOBIE BROTHERS
 Job cpu time:       0 days 17 hours 48 minutes 30.3 seconds.
 Elapsed time:       0 days  0 hours 44 minutes 49.7 seconds.
 File lengths (MBytes):  RWF=  44733 Int=      0 D2E=      0 Chk=      5 Scr=      1
 Normal termination of Gaussian 16 at Sat Aug  2 01:20:18 2025.
