 Entering Gaussian System, Link 0=g16
 Initial command:
 /opt/g16/l1.exe "/home/aayush/scratches/g16/Gau-36524.inp" -scrdir="/home/aayush/scratches/g16/"
 Entering Link 1 = /opt/g16/l1.exe PID=     36527.
  
 Copyright (c) 1988,1990,1992,1993,1995,1998,2003,2009,2016,
            Gaussian, Inc.  All Rights Reserved.
  
 This is part of the Gaussian(R) 16 program.  It is based on
 the Gaussian(R) 09 system (copyright 2009, Gaussian, Inc.),
 the Gaussian(R) 03 system (copyright 2003, Gaussian, Inc.),
 the Gaussian(R) 98 system (copyright 1998, Gaussian, Inc.),
 the Gaussian(R) 94 system (copyright 1995, Gaussian, Inc.),
 the Gaussian 92(TM) system (copyright 1992, Gaussian, Inc.),
 the Gaussian 90(TM) system (copyright 1990, Gaussian, Inc.),
 the Gaussian 88(TM) system (copyright 1988, Gaussian, Inc.),
 the Gaussian 86(TM) system (copyright 1986, Carnegie Mellon
 University), and the Gaussian 82(TM) system (copyright 1983,
 Carnegie Mellon University). Gaussian is a federally registered
 trademark of Gaussian, Inc.
  
 This software contains proprietary and confidential information,
 including trade secrets, belonging to Gaussian, Inc.
  
 This software is provided under written license and may be
 used, copied, transmitted, or stored only in accord with that
 written license.
  
 The following legend is applicable only to US Government
 contracts under FAR:
  
                    RESTRICTED RIGHTS LEGEND
  
 Use, reproduction and disclosure by the US Government is
 subject to restrictions as set forth in subparagraphs (a)
 and (c) of the Commercial Computer Software - Restricted
 Rights clause in FAR 52.227-19.
  
 Gaussian, Inc.
 340 Quinnipiac St., Bldg. 40, Wallingford CT 06492
  
  
 ---------------------------------------------------------------
 Warning -- This program may not be used in any manner that
 competes with the business of Gaussian, Inc. or will provide
 assistance to any competitor of Gaussian, Inc.  The licensee
 of this program is prohibited from giving any competitor of
 Gaussian, Inc. access to this program.  By using this program,
 the user acknowledges that Gaussian, Inc. is engaged in the
 business of creating and licensing software in the field of
 computational chemistry and represents and warrants to the
 licensee that it is not a competitor of Gaussian, Inc. and that
 it will not use this program in any manner prohibited above.
 ---------------------------------------------------------------
  

 Cite this work as:
 Gaussian 16, Revision A.03,
 M. J. Frisch, G. W. Trucks, H. B. Schlegel, G. E. Scuseria, 
 M. A. Robb, J. R. Cheeseman, G. Scalmani, V. Barone, 
 G. A. Petersson, H. Nakatsuji, X. Li, M. Caricato, A. V. Marenich, 
 J. Bloino, B. G. Janesko, R. Gomperts, B. Mennucci, H. P. Hratchian, 
 J. V. Ortiz, A. F. Izmaylov, J. L. Sonnenberg, D. Williams-Young, 
 F. Ding, F. Lipparini, F. Egidi, J. Goings, B. Peng, A. Petrone, 
 T. Henderson, D. Ranasinghe, V. G. Zakrzewski, J. Gao, N. Rega, 
 G. Zheng, W. Liang, M. Hada, M. Ehara, K. Toyota, R. Fukuda, 
 J. Hasegawa, M. Ishida, T. Nakajima, Y. Honda, O. Kitao, H. Nakai, 
 T. Vreven, K. Throssell, J. A. Montgomery, Jr., J. E. Peralta, 
 F. Ogliaro, M. J. Bearpark, J. J. Heyd, E. N. Brothers, K. N. Kudin, 
 V. N. Staroverov, T. A. Keith, R. Kobayashi, J. Normand, 
 K. Raghavachari, A. P. Rendell, J. C. Burant, S. S. Iyengar, 
 J. Tomasi, M. Cossi, J. M. Millam, M. Klene, C. Adamo, R. Cammi, 
 J. W. Ochterski, R. L. Martin, K. Morokuma, O. Farkas, 
 J. B. Foresman, and D. J. Fox, Gaussian, Inc., Wallingford CT, 2016.
 
 ******************************************
 Gaussian 16:  ES64L-G16RevA.03 25-Dec-2016
                20-Jun-2025 
 ******************************************
 %nprocshared=24
 Will use up to   24 processors via shared memory.
 %mem=12GB
 %chk=ethyl_propiolate_ts1.chk
 -------------------
 # freq 6-31+g m062x
 -------------------
 1/10=4,30=1,38=1/1,3;
 2/12=2,17=6,18=5,40=1/2;
 3/5=1,6=6,7=10,11=2,25=1,30=1,71=2,74=-55,140=1/1,2,3;
 4//1;
 5/5=2,38=5,98=1/2;
 8/6=4,10=90,11=11/1;
 11/6=1,8=1,9=11,15=111,16=1/1,2,10;
 10/6=1/2;
 6/7=2,8=2,9=2,10=2,28=1/1;
 7/8=1,10=1,25=1/1,2,3,16;
 1/10=4,30=1/3;
 99//99;
 -------------------
 Title Card Required
 -------------------
 Symbolic Z-matrix:
 Charge =  0 Multiplicity = 2
 O                     3.24597   0.73867   0.12669 
 H                     2.5075    1.33608  -0.07116 
 C                     2.37985  -0.88184   0.27518 
 H                     3.21644  -1.51853   0.49091 
 C                     1.15329  -0.75004   0.08909 
 C                    -0.08289  -0.03612  -0.19315 
 O                    -0.10959   1.15061  -0.38991 
 O                    -1.13192  -0.84842  -0.20776 
 C                    -2.41372  -0.23298  -0.46495 
 C                    -2.95887   0.42797   0.78518 
 H                    -3.04067  -1.0603   -0.79154 
 H                    -2.29816   0.48195  -1.28018 
 H                    -3.95865   0.81731   0.58414 
 H                    -3.0271   -0.29482   1.59942 
 H                    -2.3227    1.25802   1.0928 
 

 GradGradGradGradGradGradGradGradGradGradGradGradGradGradGradGradGradGrad
 Berny optimization.
 Initialization pass.
 Trust Radius=3.00D-01 FncErr=1.00D-07 GrdErr=1.00D-07 EigMax=2.50D+02 EigMin=1.00D-04
 Number of steps in this run=      2 maximum allowed number of steps=      2.
 GradGradGradGradGradGradGradGradGradGradGradGradGradGradGradGradGradGrad

                          Input orientation:                          
 ---------------------------------------------------------------------
 Center     Atomic      Atomic             Coordinates (Angstroms)
 Number     Number       Type             X           Y           Z
 ---------------------------------------------------------------------
      1          8           0        3.245967    0.738667    0.126687
      2          1           0        2.507499    1.336077   -0.071163
      3          6           0        2.379851   -0.881840    0.275184
      4          1           0        3.216438   -1.518526    0.490905
      5          6           0        1.153286   -0.750043    0.089086
      6          6           0       -0.082889   -0.036120   -0.193145
      7          8           0       -0.109587    1.150610   -0.389914
      8          8           0       -1.131920   -0.848418   -0.207759
      9          6           0       -2.413719   -0.232984   -0.464949
     10          6           0       -2.958867    0.427967    0.785182
     11          1           0       -3.040666   -1.060302   -0.791540
     12          1           0       -2.298164    0.481949   -1.280182
     13          1           0       -3.958646    0.817310    0.584141
     14          1           0       -3.027099   -0.294818    1.599423
     15          1           0       -2.322698    1.258017    1.092802
 ---------------------------------------------------------------------
                    Distance matrix (angstroms):
                    1          2          3          4          5
     1  O    0.000000
     2  H    0.970247   0.000000
     3  C    1.843435   2.248423   0.000000
     4  H    2.286580   2.994541   1.073211   0.000000
     5  C    2.568460   2.492282   1.247584   2.237995   0.000000
     6  C    3.432764   2.933925   2.645688   3.681170   1.455153
     7  O    3.419988   2.642941   3.281846   4.354603   2.331688
     8  O    4.668682   4.246887   3.544980   4.454817   2.306504
     9  C    5.772884   5.180290   4.893580   5.853626   3.646619
    10  C    6.247409   5.607062   5.520652   6.481499   4.333827
    11  H    6.603119   6.086354   5.527364   6.403592   4.296626
    12  H    5.725607   5.028485   5.114969   6.127763   3.912187
    13  H    7.219550   6.519937   6.569559   7.546301   5.369686
    14  H    6.525979   6.006867   5.597617   6.458175   4.468105
    15  H    5.675661   4.969075   5.230818   6.225231   4.137900
                    6          7          8          9         10
     6  C    0.000000
     7  O    1.203229   0.000000
     8  O    1.326841   2.252656   0.000000
     9  C    2.354868   2.688678   1.444962   0.000000
    10  C    3.073068   3.165669   2.439841   1.515543   0.000000
    11  H    3.186765   3.693326   2.007238   1.088200   2.169721
    12  H    2.521406   2.455515   2.068838   1.090453   2.169141
    13  H    4.044009   3.984360   3.375224   2.142547   1.091588
    14  H    3.456674   3.815573   2.676581   2.154458   1.090900
    15  H    2.888805   2.666054   2.747086   2.158230   1.090103
                   11         12         13         14         15
    11  H    0.000000
    12  H    1.780061   0.000000
    13  H    2.502122   2.519001   0.000000
    14  H    2.510549   3.070316   1.770708   0.000000
    15  H    3.072593   2.496785   1.768978   1.778804   0.000000
 Stoichiometry    C5H7O3(2)
 Framework group  C1[X(C5H7O3)]
 Deg. of freedom    39
 Full point group                 C1      NOp   1
 Largest Abelian subgroup         C1      NOp   1
 Largest concise Abelian subgroup C1      NOp   1
                         Standard orientation:                         
 ---------------------------------------------------------------------
 Center     Atomic      Atomic             Coordinates (Angstroms)
 Number     Number       Type             X           Y           Z
 ---------------------------------------------------------------------
      1          8           0        3.316166    0.741579    0.107252
      2          1           0        2.575776    1.335190   -0.094805
      3          6           0        2.455188   -0.880504    0.267914
      4          1           0        3.293824   -1.512949    0.488106
      5          6           0        1.228170   -0.753940    0.081166
      6          6           0       -0.010311   -0.046008   -0.206000
      7          8           0       -0.040789    1.139150   -0.411504
      8          8           0       -1.056785   -0.861686   -0.214355
      9          6           0       -2.340574   -0.252198   -0.475743
     10          6           0       -2.887505    0.416233    0.769623
     11          1           0       -2.964992   -1.083868   -0.796065
     12          1           0       -2.227461    0.457066   -1.296254
     13          1           0       -3.888551    0.800938    0.565976
     14          1           0       -2.953271   -0.300741    1.589187
     15          1           0       -2.253878    1.250524    1.070952
 ---------------------------------------------------------------------
 Rotational constants (GHZ):           5.6371635           0.9507514           0.8739166
 Standard basis: 6-31+G (6D, 7F)
 There are   118 symmetry adapted cartesian basis functions of A   symmetry.
 There are   118 symmetry adapted basis functions of A   symmetry.
   118 basis functions,   236 primitive gaussians,   118 cartesian basis functions
    31 alpha electrons       30 beta electrons
       nuclear repulsion energy       350.9919334002 Hartrees.
 NAtoms=   15 NActive=   15 NUniq=   15 SFac= 1.00D+00 NAtFMM=   60 NAOKFM=F Big=F
 Integral buffers will be    131072 words long.
 Raffenetti 2 integral format.
 Two-electron integral symmetry is turned on.
 One-electron integrals computed using PRISM.
 NBasis=   118 RedAO= T EigKep=  6.80D-06  NBF=   118
 NBsUse=   118 1.00D-06 EigRej= -1.00D+00 NBFU=   118
 ExpMin= 4.38D-02 ExpMax= 5.48D+03 ExpMxC= 8.25D+02 IAcc=3 IRadAn=         5 AccDes= 0.00D+00
 Harris functional with IExCor= 1009 and IRadAn=       5 diagonalized for initial guess.
 HarFok:  IExCor= 1009 AccDes= 0.00D+00 IRadAn=         5 IDoV= 1 UseB2=F ITyADJ=14
 ICtDFT=  3500011 ScaDFX=  1.000000  1.000000  1.000000  1.000000
 FoFCou: FMM=F IPFlag=           0 FMFlag=      100000 FMFlg1=           0
         NFxFlg=           0 DoJE=T BraDBF=F KetDBF=T FulRan=T
         wScrn=  0.000000 ICntrl=       500 IOpCl=  0 I1Cent=   200000004 NGrid=           0
         NMat0=    1 NMatS0=      1 NMatT0=    0 NMatD0=    1 NMtDS0=    0 NMtDT0=    0
 Petite list used in FoFCou.
 Initial guess <Sx>= 0.0000 <Sy>= 0.0000 <Sz>= 0.5000 <S**2>= 0.7500 S= 0.5000
 Requested convergence on RMS density matrix=1.00D-08 within 128 cycles.
 Requested convergence on MAX density matrix=1.00D-06.
 Requested convergence on             energy=1.00D-06.
 No special actions if energy rises.
 SCF Done:  E(UM062X) =  -419.964207848     A.U. after   20 cycles
            NFock= 20  Conv=0.96D-08     -V/T= 2.0054
 <Sx>= 0.0000 <Sy>= 0.0000 <Sz>= 0.5000 <S**2>= 0.7885 S= 0.5191
 <L.S>=  0.00000000000    
 Annihilation of the first spin contaminant:
 S**2 before annihilation     0.7885,   after     0.7506
 DoSCS=F DFT=T ScalE2(SS,OS)=  1.000000  1.000000
 Range of M.O.s used for correlation:     1   118
 NBasis=   118 NAE=    31 NBE=    30 NFC=     0 NFV=     0
 NROrb=    118 NOA=    31 NOB=    30 NVA=    87 NVB=    88

 **** Warning!!: The largest alpha MO coefficient is  0.12248414D+03


 **** Warning!!: The largest beta MO coefficient is  0.11249868D+03

 Symmetrizing basis deriv contribution to polar:
 IMax=3 JMax=2 DiffMx= 0.00D+00
 G2DrvN: will do    16 centers at a time, making    1 passes.
 Calling FoFCou, ICntrl=  3107 FMM=F I1Cent=   0 AccDes= 0.00D+00.
 End of G2Drv F.D. properties file   721 does not exist.
 End of G2Drv F.D. properties file   722 does not exist.
 End of G2Drv F.D. properties file   788 does not exist.
          IDoAtm=111111111111111
          Differentiating once with respect to electric field.
                with respect to dipole field.
          Differentiating once with respect to nuclear coordinates.
 Keep R1 and R2 ints in memory in canonical form, NReq=71861342.
          There are    48 degrees of freedom in the 1st order CPHF.  IDoFFX=6 NUNeed=     3.
     45 vectors produced by pass  0 Test12= 1.11D-14 2.08D-09 XBig12= 1.15D+02 3.65D+00.
 AX will form    45 AO Fock derivatives at one time.
     45 vectors produced by pass  1 Test12= 1.11D-14 2.08D-09 XBig12= 2.68D+01 1.09D+00.
     45 vectors produced by pass  2 Test12= 1.11D-14 2.08D-09 XBig12= 8.48D-01 1.66D-01.
     45 vectors produced by pass  3 Test12= 1.11D-14 2.08D-09 XBig12= 7.62D-03 1.52D-02.
     45 vectors produced by pass  4 Test12= 1.11D-14 2.08D-09 XBig12= 8.52D-05 1.07D-03.
     45 vectors produced by pass  5 Test12= 1.11D-14 2.08D-09 XBig12= 7.76D-07 1.10D-04.
     34 vectors produced by pass  6 Test12= 1.11D-14 2.08D-09 XBig12= 4.76D-09 1.19D-05.
     13 vectors produced by pass  7 Test12= 1.11D-14 2.08D-09 XBig12= 2.61D-11 3.74D-07.
      3 vectors produced by pass  8 Test12= 1.11D-14 2.08D-09 XBig12= 2.07D-13 5.12D-08.
      2 vectors produced by pass  9 Test12= 1.11D-14 2.08D-09 XBig12= 1.99D-15 3.59D-09.
 InvSVY:  IOpt=1 It=  1 EMax= 7.11D-15
 Solved reduced A of dimension   322 with    48 vectors.
 Isotropic polarizability for W=    0.000000       72.48 Bohr**3.
 End of Minotr F.D. properties file   721 does not exist.
 End of Minotr F.D. properties file   722 does not exist.
 End of Minotr F.D. properties file   788 does not exist.

 **********************************************************************

            Population analysis using the SCF density.

 **********************************************************************

 Orbital symmetries:
 Alpha Orbitals:
       Occupied  (A) (A) (A) (A) (A) (A) (A) (A) (A) (A) (A) (A)
                 (A) (A) (A) (A) (A) (A) (A) (A) (A) (A) (A) (A)
                 (A) (A) (A) (A) (A) (A) (A)
       Virtual   (A) (A) (A) (A) (A) (A) (A) (A) (A) (A) (A) (A)
                 (A) (A) (A) (A) (A) (A) (A) (A) (A) (A) (A) (A)
                 (A) (A) (A) (A) (A) (A) (A) (A) (A) (A) (A) (A)
                 (A) (A) (A) (A) (A) (A) (A) (A) (A) (A) (A) (A)
                 (A) (A) (A) (A) (A) (A) (A) (A) (A) (A) (A) (A)
                 (A) (A) (A) (A) (A) (A) (A) (A) (A) (A) (A) (A)
                 (A) (A) (A) (A) (A) (A) (A) (A) (A) (A) (A) (A)
                 (A) (A) (A)
 Beta  Orbitals:
       Occupied  (A) (A) (A) (A) (A) (A) (A) (A) (A) (A) (A) (A)
                 (A) (A) (A) (A) (A) (A) (A) (A) (A) (A) (A) (A)
                 (A) (A) (A) (A) (A) (A)
       Virtual   (A) (A) (A) (A) (A) (A) (A) (A) (A) (A) (A) (A)
                 (A) (A) (A) (A) (A) (A) (A) (A) (A) (A) (A) (A)
                 (A) (A) (A) (A) (A) (A) (A) (A) (A) (A) (A) (A)
                 (A) (A) (A) (A) (A) (A) (A) (A) (A) (A) (A) (A)
                 (A) (A) (A) (A) (A) (A) (A) (A) (A) (A) (A) (A)
                 (A) (A) (A) (A) (A) (A) (A) (A) (A) (A) (A) (A)
                 (A) (A) (A) (A) (A) (A) (A) (A) (A) (A) (A) (A)
                 (A) (A) (A) (A)
 The electronic state is 2-A.
 Alpha  occ. eigenvalues --  -19.72175 -19.68080 -19.66685 -10.74507 -10.64274
 Alpha  occ. eigenvalues --  -10.62712 -10.61433 -10.55546  -1.29663  -1.20354
 Alpha  occ. eigenvalues --   -1.11274  -0.93401  -0.89526  -0.80090  -0.73067
 Alpha  occ. eigenvalues --   -0.66186  -0.62764  -0.60098  -0.58504  -0.55207
 Alpha  occ. eigenvalues --   -0.52323  -0.50912  -0.48873  -0.48089  -0.46374
 Alpha  occ. eigenvalues --   -0.43309  -0.41942  -0.40780  -0.39758  -0.36421
 Alpha  occ. eigenvalues --   -0.32153
 Alpha virt. eigenvalues --   -0.03355   0.01430   0.02753   0.03012   0.03539
 Alpha virt. eigenvalues --    0.04473   0.05291   0.06187   0.07164   0.07698
 Alpha virt. eigenvalues --    0.08030   0.08599   0.09276   0.10287   0.11754
 Alpha virt. eigenvalues --    0.12016   0.13354   0.14784   0.15141   0.15629
 Alpha virt. eigenvalues --    0.16043   0.17365   0.18666   0.20742   0.21656
 Alpha virt. eigenvalues --    0.22881   0.23734   0.24401   0.25306   0.26270
 Alpha virt. eigenvalues --    0.27172   0.27829   0.28605   0.30138   0.30399
 Alpha virt. eigenvalues --    0.31519   0.32250   0.33039   0.34485   0.35818
 Alpha virt. eigenvalues --    0.37563   0.38683   0.39067   0.41493   0.44137
 Alpha virt. eigenvalues --    0.46865   0.52457   0.58737   0.67985   0.69102
 Alpha virt. eigenvalues --    0.69983   0.71648   0.74302   0.74740   0.75426
 Alpha virt. eigenvalues --    0.76633   0.79837   0.83958   0.86235   0.89878
 Alpha virt. eigenvalues --    0.93993   0.97565   1.02016   1.07450   1.08778
 Alpha virt. eigenvalues --    1.10218   1.14574   1.15811   1.18382   1.19595
 Alpha virt. eigenvalues --    1.20477   1.23478   1.25115   1.26873   1.28159
 Alpha virt. eigenvalues --    1.34435   1.36486   1.42048   1.43384   1.45681
 Alpha virt. eigenvalues --    1.46800   1.52181   1.64099   1.70346   1.78616
 Alpha virt. eigenvalues --    1.99358   2.07983
  Beta  occ. eigenvalues --  -19.72151 -19.67969 -19.65736 -10.74556 -10.64444
  Beta  occ. eigenvalues --  -10.62708 -10.60881 -10.55546  -1.29525  -1.20125
  Beta  occ. eigenvalues --   -1.07986  -0.92042  -0.88931  -0.79888  -0.72629
  Beta  occ. eigenvalues --   -0.66074  -0.62348  -0.59824  -0.58174  -0.55042
  Beta  occ. eigenvalues --   -0.50687  -0.50312  -0.48046  -0.46399  -0.43185
  Beta  occ. eigenvalues --   -0.42085  -0.40984  -0.39768  -0.38972  -0.34506
  Beta virt. eigenvalues --   -0.09886  -0.03340   0.01294   0.02613   0.02989
  Beta virt. eigenvalues --    0.03922   0.04496   0.06120   0.06220   0.07359
  Beta virt. eigenvalues --    0.07495   0.08035   0.08782   0.09565   0.10374
  Beta virt. eigenvalues --    0.11816   0.12943   0.13218   0.14603   0.15334
  Beta virt. eigenvalues --    0.15704   0.16456   0.17326   0.18827   0.20762
  Beta virt. eigenvalues --    0.21752   0.23135   0.23678   0.24539   0.25466
  Beta virt. eigenvalues --    0.26287   0.27195   0.27681   0.28590   0.30128
  Beta virt. eigenvalues --    0.30442   0.31598   0.32124   0.33057   0.34481
  Beta virt. eigenvalues --    0.35780   0.37631   0.38882   0.39161   0.41212
  Beta virt. eigenvalues --    0.44063   0.47279   0.52818   0.58912   0.67920
  Beta virt. eigenvalues --    0.68966   0.70091   0.71741   0.74903   0.75240
  Beta virt. eigenvalues --    0.75840   0.77082   0.79942   0.84388   0.86931
  Beta virt. eigenvalues --    0.89528   0.93578   0.98025   1.02088   1.07827
  Beta virt. eigenvalues --    1.08813   1.10225   1.14433   1.15992   1.18437
  Beta virt. eigenvalues --    1.19735   1.21103   1.23640   1.25918   1.27186
  Beta virt. eigenvalues --    1.31055   1.34575   1.36598   1.42130   1.44600
  Beta virt. eigenvalues --    1.45970   1.46911   1.52430   1.63779   1.70551
  Beta virt. eigenvalues --    1.80329   1.99356   2.07952
          Condensed to atoms (all electrons):
               1          2          3          4          5          6
     1  O    8.371352   0.161297   0.076640  -0.031391   0.082850  -0.139402
     2  H    0.161297   0.412306   0.046018   0.002827  -0.068366   0.025979
     3  C    0.076640   0.046018   9.752261   0.412695  -1.703674  -2.998670
     4  H   -0.031391   0.002827   0.412695   0.413057  -0.115953   0.043258
     5  C    0.082850  -0.068366  -1.703674  -0.115953  13.774948  -4.724683
     6  C   -0.139402   0.025979  -2.998670   0.043258  -4.724683  13.718040
     7  O    0.015342   0.003483   0.461695  -0.000521   0.253071  -0.682740
     8  O   -0.003583   0.002366   0.220031   0.000989  -0.983338   0.145733
     9  C   -0.000623   0.001948  -0.060100   0.000951  -0.457379   0.352636
    10  C   -0.000777   0.000837   0.026278   0.000042  -0.066634  -0.116099
    11  H   -0.000000  -0.000000  -0.003088  -0.000000  -0.011373   0.029537
    12  H    0.000004  -0.000000   0.006794   0.000000   0.021993  -0.033734
    13  H    0.000000  -0.000000  -0.000331   0.000000   0.002058   0.006107
    14  H    0.000001  -0.000000   0.000485   0.000000   0.004946   0.001182
    15  H   -0.000001  -0.000000  -0.000357  -0.000000  -0.009386   0.005773
               7          8          9         10         11         12
     1  O    0.015342  -0.003583  -0.000623  -0.000777  -0.000000   0.000004
     2  H    0.003483   0.002366   0.001948   0.000837  -0.000000  -0.000000
     3  C    0.461695   0.220031  -0.060100   0.026278  -0.003088   0.006794
     4  H   -0.000521   0.000989   0.000951   0.000042  -0.000000   0.000000
     5  C    0.253071  -0.983338  -0.457379  -0.066634  -0.011373   0.021993
     6  C   -0.682740   0.145733   0.352636  -0.116099   0.029537  -0.033734
     7  O    8.716958  -0.301212  -0.024987  -0.035475  -0.000405   0.002000
     8  O   -0.301212   9.239378  -0.030263   0.037531  -0.072762  -0.031834
     9  C   -0.024987  -0.030263   5.857749  -0.089500   0.428243   0.415002
    10  C   -0.035475   0.037531  -0.089500   5.739657  -0.056809  -0.070864
    11  H   -0.000405  -0.072762   0.428243  -0.056809   0.495303  -0.031817
    12  H    0.002000  -0.031834   0.415002  -0.070864  -0.031817   0.487418
    13  H   -0.000213   0.006997  -0.072735   0.401154  -0.000750  -0.000866
    14  H   -0.000398  -0.002207  -0.051498   0.390705  -0.004533   0.003766
    15  H    0.002329  -0.009084  -0.047344   0.405738   0.003564  -0.004690
              13         14         15
     1  O    0.000000   0.000001  -0.000001
     2  H   -0.000000  -0.000000  -0.000000
     3  C   -0.000331   0.000485  -0.000357
     4  H    0.000000   0.000000  -0.000000
     5  C    0.002058   0.004946  -0.009386
     6  C    0.006107   0.001182   0.005773
     7  O   -0.000213  -0.000398   0.002329
     8  O    0.006997  -0.002207  -0.009084
     9  C   -0.072735  -0.051498  -0.047344
    10  C    0.401154   0.390705   0.405738
    11  H   -0.000750  -0.004533   0.003564
    12  H   -0.000866   0.003766  -0.004690
    13  H    0.494720  -0.025047  -0.022553
    14  H   -0.025047   0.487284  -0.026967
    15  H   -0.022553  -0.026967   0.467852
          Atomic-Atomic Spin Densities.
               1          2          3          4          5          6
     1  O    0.607344   0.003278  -0.057396  -0.009907   0.011363  -0.062299
     2  H    0.003278  -0.021575  -0.005363  -0.000028  -0.004978   0.014918
     3  C   -0.057396  -0.005363   0.103558   0.038787  -0.406092   0.039898
     4  H   -0.009907  -0.000028   0.038787   0.029597  -0.033733   0.007400
     5  C    0.011363  -0.004978  -0.406092  -0.033733   1.049014   0.157824
     6  C   -0.062299   0.014918   0.039898   0.007400   0.157824  -0.152317
     7  O    0.010180  -0.002631  -0.010372  -0.000490  -0.019237  -0.044149
     8  O   -0.000743  -0.000027   0.008454   0.000014  -0.006684   0.032159
     9  C   -0.000561   0.000150   0.003601   0.000079   0.004826  -0.016437
    10  C    0.000091  -0.000086  -0.002254  -0.000013  -0.005837   0.015259
    11  H   -0.000000   0.000000  -0.000083   0.000000  -0.000190  -0.000534
    12  H   -0.000004   0.000000   0.000348   0.000000  -0.000911   0.000964
    13  H    0.000000  -0.000000  -0.000039  -0.000000  -0.000003  -0.000015
    14  H   -0.000000   0.000000   0.000073   0.000000  -0.000291   0.000104
    15  H   -0.000000   0.000000   0.000020   0.000000   0.000268  -0.000440
               7          8          9         10         11         12
     1  O    0.010180  -0.000743  -0.000561   0.000091  -0.000000  -0.000004
     2  H   -0.002631  -0.000027   0.000150  -0.000086   0.000000   0.000000
     3  C   -0.010372   0.008454   0.003601  -0.002254  -0.000083   0.000348
     4  H   -0.000490   0.000014   0.000079  -0.000013   0.000000   0.000000
     5  C   -0.019237  -0.006684   0.004826  -0.005837  -0.000190  -0.000911
     6  C   -0.044149   0.032159  -0.016437   0.015259  -0.000534   0.000964
     7  O    0.095313  -0.002229  -0.001757   0.001026  -0.000019  -0.000283
     8  O   -0.002229  -0.023748   0.004775  -0.006516  -0.000112   0.001139
     9  C   -0.001757   0.004775  -0.001768   0.006634   0.000199  -0.001135
    10  C    0.001026  -0.006516   0.006634  -0.007245   0.000483   0.000162
    11  H   -0.000019  -0.000112   0.000199   0.000483   0.000267   0.000025
    12  H   -0.000283   0.001139  -0.001135   0.000162   0.000025  -0.000269
    13  H   -0.000036  -0.000078  -0.000170   0.000226   0.000007  -0.000019
    14  H   -0.000029   0.000245  -0.000211   0.000166  -0.000000  -0.000002
    15  H   -0.000035   0.000097  -0.000125   0.000172   0.000003  -0.000003
              13         14         15
     1  O    0.000000  -0.000000  -0.000000
     2  H   -0.000000   0.000000   0.000000
     3  C   -0.000039   0.000073   0.000020
     4  H   -0.000000   0.000000   0.000000
     5  C   -0.000003  -0.000291   0.000268
     6  C   -0.000015   0.000104  -0.000440
     7  O   -0.000036  -0.000029  -0.000035
     8  O   -0.000078   0.000245   0.000097
     9  C   -0.000170  -0.000211  -0.000125
    10  C    0.000226   0.000166   0.000172
    11  H    0.000007  -0.000000   0.000003
    12  H   -0.000019  -0.000002  -0.000003
    13  H    0.000270  -0.000035   0.000010
    14  H   -0.000035   0.000000  -0.000010
    15  H    0.000010  -0.000010  -0.000026
 Mulliken charges and spin densities:
               1          2
     1  O   -0.531710   0.501344
     2  H    0.411306  -0.016342
     3  C   -0.236677  -0.286859
     4  H    0.274046   0.031707
     5  C    0.000919   0.745338
     6  C    0.367084  -0.007665
     7  O   -0.408926   0.025252
     8  O   -0.218742   0.006747
     9  C   -0.222099  -0.001902
    10  C   -0.565785   0.002267
    11  H    0.224890   0.000044
    12  H    0.236828   0.000012
    13  H    0.211458   0.000118
    14  H    0.222282   0.000010
    15  H    0.235126  -0.000070
 Sum of Mulliken charges =  -0.00000   1.00000
 Mulliken charges and spin densities with hydrogens summed into heavy atoms:
               1          2
     1  O   -0.120403   0.485003
     3  C    0.037369  -0.255152
     5  C    0.000919   0.745338
     6  C    0.367084  -0.007665
     7  O   -0.408926   0.025252
     8  O   -0.218742   0.006747
     9  C    0.239619  -0.001847
    10  C    0.103081   0.002325
 APT charges:
               1
     1  O   -0.352073
     2  H    0.246616
     3  C   -0.092935
     4  H    0.215239
     5  C   -0.288196
     6  C    1.457040
     7  O   -0.750482
     8  O   -0.969901
     9  C    0.516609
    10  C   -0.061775
    11  H    0.000332
    12  H   -0.002400
    13  H    0.019770
    14  H    0.022022
    15  H    0.040134
 Sum of APT charges =   0.00000
 APT charges with hydrogens summed into heavy atoms:
               1
     1  O   -0.105457
     3  C    0.122304
     5  C   -0.288196
     6  C    1.457040
     7  O   -0.750482
     8  O   -0.969901
     9  C    0.514541
    10  C    0.020151
 Electronic spatial extent (au):  <R**2>=           1312.5285
 Charge=             -0.0000 electrons
 Dipole moment (field-independent basis, Debye):
    X=             -3.5399    Y=             -1.6820    Z=              0.0596  Tot=              3.9196
 Quadrupole moment (field-independent basis, Debye-Ang):
   XX=            -48.5076   YY=            -49.4354   ZZ=            -47.9550
   XY=             -6.3310   XZ=              1.1314   YZ=             -0.1849
 Traceless Quadrupole moment (field-independent basis, Debye-Ang):
   XX=              0.1251   YY=             -0.8027   ZZ=              0.6777
   XY=             -6.3310   XZ=              1.1314   YZ=             -0.1849
 Octapole moment (field-independent basis, Debye-Ang**2):
  XXX=            -61.4065  YYY=              4.4614  ZZZ=             -3.5418  XYY=             11.0396
  XXY=            -23.6217  XXZ=             -1.6501  XZZ=             -4.2833  YZZ=              0.8026
  YYZ=              1.4622  XYZ=             -5.0351
 Hexadecapole moment (field-independent basis, Debye-Ang**3):
 XXXX=          -1483.7065 YYYY=           -215.9437 ZZZZ=           -114.2661 XXXY=            -88.4695
 XXXZ=             17.9334 YYYX=             11.2214 YYYZ=             -1.0628 ZZZX=              2.1506
 ZZZY=             -2.2255 XXYY=           -232.2029 XXZZ=           -254.5936 YYZZ=            -55.9903
 XXYZ=            -14.3186 YYXZ=              3.4356 ZZXY=              2.8182
 N-N= 3.509919334002D+02 E-N=-1.684043411995D+03  KE= 4.177155933084D+02
  Exact polarizability: 102.282   7.306  68.506   3.369  -2.843  46.657
 Approx polarizability: 104.913   9.147  85.433   5.833  -5.546  49.291
                          Isotropic Fermi Contact Couplings
        Atom                 a.u.       MegaHertz       Gauss      10(-4) cm-1
     1  O(17)              0.04732     -28.68334     -10.23493      -9.56773
     2  H(1)              -0.00875     -39.09064     -13.94851     -13.03924
     3  C(13)             -0.01439     -16.17290      -5.77089      -5.39470
     4  H(1)               0.01411      63.07870      22.50805      21.04079
     5  C(13)              0.11495     129.22976      46.11239      43.10641
     6  C(13)             -0.02482     -27.90480      -9.95713      -9.30804
     7  O(17)              0.01830     -11.09070      -3.95744      -3.69946
     8  O(17)              0.02010     -12.18276      -4.34711      -4.06373
     9  C(13)              0.00277       3.11696       1.11221       1.03971
    10  C(13)              0.00000       0.00538       0.00192       0.00180
    11  H(1)               0.00003       0.11708       0.04178       0.03905
    12  H(1)               0.00001       0.04208       0.01501       0.01404
    13  H(1)               0.00004       0.18081       0.06452       0.06031
    14  H(1)               0.00002       0.08533       0.03045       0.02846
    15  H(1)              -0.00003      -0.11176      -0.03988      -0.03728
 --------------------------------------------------------
       Center         ----  Spin Dipole Couplings  ----
                      3XX-RR        3YY-RR        3ZZ-RR
 --------------------------------------------------------
     1   Atom        0.271926      0.665524     -0.937450
     2   Atom        0.041493      0.022009     -0.063503
     3   Atom        0.106335     -0.058228     -0.048107
     4   Atom       -0.005672      0.006631     -0.000959
     5   Atom       -0.292138      0.562677     -0.270539
     6   Atom        0.017746      0.003479     -0.021224
     7   Atom        0.073542     -0.048064     -0.025478
     8   Atom        0.021834     -0.010884     -0.010950
     9   Atom        0.007243     -0.003470     -0.003773
    10   Atom        0.002274     -0.000926     -0.001348
    11   Atom        0.002637     -0.001198     -0.001439
    12   Atom        0.002425     -0.001158     -0.001268
    13   Atom        0.001396     -0.000618     -0.000779
    14   Atom        0.001936     -0.001156     -0.000780
    15   Atom        0.002010     -0.000750     -0.001260
 --------------------------------------------------------
                        XY            XZ            YZ
 --------------------------------------------------------
     1   Atom        1.399589     -0.077546     -0.088436
     2   Atom       -0.053277      0.024327     -0.023167
     3   Atom       -0.096365      0.038154     -0.012165
     4   Atom        0.008300     -0.002099     -0.000105
     5   Atom        0.367698     -0.064398     -0.093138
     6   Atom       -0.006302      0.006319     -0.005294
     7   Atom       -0.088869      0.028730     -0.008756
     8   Atom       -0.017428      0.007204     -0.002881
     9   Atom       -0.001494      0.000975     -0.000089
    10   Atom       -0.000979     -0.000906      0.000241
    11   Atom        0.000489      0.000905      0.000156
    12   Atom       -0.000971      0.001858     -0.000715
    13   Atom       -0.000511     -0.000234      0.000063
    14   Atom       -0.000277     -0.001211      0.000089
    15   Atom       -0.001486     -0.001228      0.000471
 --------------------------------------------------------


 ---------------------------------------------------------------------------------
              Anisotropic Spin Dipole Couplings in Principal Axis System
 ---------------------------------------------------------------------------------

       Atom             a.u.   MegaHertz   Gauss  10(-4) cm-1        Axes

              Baa    -0.9447    68.361    24.393    22.803  0.7439 -0.6352  0.2078
     1 O(17)  Bbb    -0.9422    68.180    24.328    22.742 -0.1303  0.1671  0.9773
              Bcc     1.8870  -136.541   -48.721   -45.545  0.6555  0.7541 -0.0416
 
              Baa    -0.0708   -37.762   -13.475   -12.596 -0.1319  0.1682  0.9769
     2 H(1)   Bbb    -0.0223   -11.906    -4.248    -3.971  0.6499  0.7588 -0.0429
              Bcc     0.0931    49.668    17.723    16.567  0.7485 -0.6292  0.2094
 
              Baa    -0.1032   -13.843    -4.939    -4.617  0.4308  0.8968 -0.1004
     3 C(13)  Bbb    -0.0553    -7.415    -2.646    -2.474 -0.1286  0.1711  0.9768
              Bcc     0.1584    21.258     7.585     7.091  0.8932 -0.4079  0.1890
 
              Baa    -0.0102    -5.450    -1.945    -1.818  0.8803 -0.4325  0.1947
     4 H(1)   Bbb    -0.0007    -0.367    -0.131    -0.122 -0.1343  0.1664  0.9769
              Bcc     0.0109     5.817     2.076     1.940  0.4549  0.8861 -0.0883
 
              Baa    -0.4337   -58.195   -20.765   -19.412  0.9281 -0.3256  0.1805
     5 C(13)  Bbb    -0.2777   -37.261   -13.296   -12.429 -0.1318  0.1660  0.9773
              Bcc     0.7113    95.456    34.061    31.841  0.3482  0.9308 -0.1111
 
              Baa    -0.0229    -3.078    -1.098    -1.027 -0.1262  0.1659  0.9780
     6 C(13)  Bbb     0.0014     0.185     0.066     0.062  0.3922  0.9139 -0.1044
              Bcc     0.0216     2.893     1.032     0.965  0.9112 -0.3704  0.1804
 
              Baa    -0.0954     6.905     2.464     2.303  0.4751  0.8757 -0.0855
     7 O(17)  Bbb    -0.0307     2.224     0.794     0.742 -0.1286  0.1653  0.9778
              Bcc     0.1262    -9.129    -3.257    -3.045  0.8705 -0.4536  0.1911
 
              Baa    -0.0184     1.334     0.476     0.445  0.4022  0.9149 -0.0349
     8 O(17)  Bbb    -0.0124     0.896     0.320     0.299 -0.1534  0.1049  0.9826
              Bcc     0.0308    -2.230    -0.796    -0.744  0.9026 -0.3898  0.1826
 
              Baa    -0.0039    -0.519    -0.185    -0.173 -0.1132 -0.2082  0.9715
     9 C(13)  Bbb    -0.0037    -0.492    -0.175    -0.164  0.1130  0.9688  0.2208
              Bcc     0.0075     1.011     0.361     0.337  0.9871 -0.1348  0.0862
 
              Baa    -0.0016    -0.210    -0.075    -0.070  0.2239 -0.0245  0.9743
    10 C(13)  Bbb    -0.0012    -0.161    -0.058    -0.054  0.2622  0.9643 -0.0360
              Bcc     0.0028     0.371     0.132     0.124  0.9387 -0.2635 -0.2224
 
              Baa    -0.0016    -0.874    -0.312    -0.291 -0.1908 -0.1323  0.9727
    11 H(1)   Bbb    -0.0013    -0.669    -0.239    -0.223 -0.1479  0.9834  0.1048
              Bcc     0.0029     1.543     0.551     0.515  0.9704  0.1239  0.2072
 
              Baa    -0.0022    -1.148    -0.410    -0.383 -0.2840  0.3610  0.8883
    12 H(1)   Bbb    -0.0013    -0.716    -0.255    -0.239  0.3562  0.8999 -0.2518
              Bcc     0.0035     1.864     0.665     0.622  0.8902 -0.2449  0.3841
 
              Baa    -0.0008    -0.429    -0.153    -0.143  0.0757 -0.1265  0.9891
    13 H(1)   Bbb    -0.0007    -0.394    -0.141    -0.132  0.2421  0.9646  0.1048
              Bcc     0.0015     0.824     0.294     0.275  0.9673 -0.2316 -0.1036
 
              Baa    -0.0012    -0.664    -0.237    -0.222  0.3636  0.2380  0.9006
    14 H(1)   Bbb    -0.0012    -0.627    -0.224    -0.209 -0.0114  0.9679 -0.2512
              Bcc     0.0024     1.292     0.461     0.431  0.9315 -0.0810 -0.3546
 
              Baa    -0.0017    -0.892    -0.318    -0.297  0.3417  0.0722  0.9370
    15 H(1)   Bbb    -0.0014    -0.740    -0.264    -0.247  0.3340  0.9226 -0.1929
              Bcc     0.0031     1.632     0.582     0.544  0.8785 -0.3789 -0.2911
 

 ---------------------------------------------------------------------------------

 Calling FoFJK, ICntrl=    100127 FMM=F ISym2X=0 I1Cent= 0 IOpClX= 1 NMat=1 NMatS=1 NMatT=0.
 Full mass-weighted force constant matrix:
 Low frequencies --- -797.8299 -359.9996 -139.1137  -89.1487  -51.7246   -0.0005
 Low frequencies ---    0.0004    0.0006   37.1836
 ******    4 imaginary frequencies (negative Signs) ****** 
 Diagonal vibrational polarizability:
       33.7972965      13.2969537     111.1907332
 Harmonic frequencies (cm**-1), IR intensities (KM/Mole), Raman scattering
 activities (A**4/AMU), depolarization ratios for plane and unpolarized
 incident light, reduced masses (AMU), force constants (mDyne/A),
 and normal coordinates:
                      1                      2                      3
                      A                      A                      A
 Frequencies --   -797.8251              -355.2668               -49.7953
 Red. masses --     11.2554                 1.0754                 3.9138
 Frc consts  --      4.2211                 0.0800                 0.0057
 IR Inten    --      3.7581               141.2336                 3.0822
  Atom  AN      X      Y      Z        X      Y      Z        X      Y      Z
     1   8    -0.19  -0.41   0.04     0.01  -0.01  -0.06     0.12  -0.09  -0.06
     2   1     0.05  -0.14   0.03    -0.14   0.17   0.97     0.21  -0.02  -0.16
     3   6     0.31   0.72  -0.08     0.00   0.00  -0.01     0.00   0.00  -0.04
     4   1    -0.31  -0.15  -0.02     0.01  -0.01  -0.05    -0.04  -0.07  -0.05
     5   6    -0.07  -0.18   0.02    -0.00   0.00   0.02     0.01   0.11  -0.00
     6   6     0.02   0.01   0.00    -0.00  -0.00   0.01    -0.04   0.05   0.07
     7   8     0.01   0.01   0.00    -0.00  -0.00  -0.00    -0.18   0.07   0.25
     8   8     0.00   0.01  -0.00     0.00  -0.00   0.01     0.04  -0.06  -0.03
     9   6     0.00   0.00  -0.00     0.00  -0.01  -0.00    -0.01  -0.15  -0.03
    10   6    -0.00   0.00  -0.00    -0.00   0.01  -0.02     0.04   0.11  -0.15
    11   1     0.00   0.00  -0.00     0.00  -0.01   0.01    -0.00  -0.25   0.20
    12   1    -0.00   0.00  -0.00     0.00  -0.02  -0.02    -0.10  -0.33  -0.20
    13   1    -0.00   0.00   0.00    -0.00   0.01  -0.02    -0.03  -0.07  -0.15
    14   1     0.00   0.00  -0.00    -0.00   0.03  -0.00     0.21   0.32   0.05
    15   1     0.00   0.00   0.00    -0.00   0.02  -0.03    -0.04   0.27  -0.43
                      4                      5                      6
                      A                      A                      A
 Frequencies --    -45.7469                40.5627               139.0353
 Red. masses --      6.9208                 3.3627                 5.1028
 Frc consts  --      0.0085                 0.0033                 0.0581
 IR Inten    --      1.2007                 1.5165                 8.7189
  Atom  AN      X      Y      Z        X      Y      Z        X      Y      Z
     1   8    -0.24   0.20  -0.21    -0.09   0.07   0.13    -0.04   0.08   0.22
     2   1    -0.41  -0.03  -0.28    -0.13   0.04   0.17    -0.06   0.03   0.12
     3   6     0.04   0.01  -0.02    -0.03   0.03   0.06     0.07  -0.03  -0.25
     4   1     0.17   0.18  -0.04    -0.02   0.07   0.15     0.12  -0.03  -0.43
     5   6    -0.01  -0.23   0.10    -0.01  -0.05  -0.11     0.07  -0.08  -0.25
     6   6     0.03  -0.14   0.13    -0.02  -0.06  -0.11     0.03  -0.05  -0.01
     7   8     0.17  -0.11   0.31    -0.04  -0.05  -0.03     0.03  -0.05  -0.01
     8   8    -0.03  -0.05  -0.04    -0.01  -0.07  -0.15    -0.00  -0.00   0.25
     9   6     0.05   0.10  -0.10    -0.04  -0.04   0.06     0.01  -0.06   0.07
    10   6     0.03   0.13  -0.12     0.24   0.14   0.09    -0.13   0.15  -0.11
    11   1    -0.02   0.17  -0.16    -0.14  -0.04   0.28     0.04  -0.12   0.16
    12   1     0.17   0.10  -0.07    -0.17  -0.14  -0.05     0.07  -0.19  -0.04
    13   1     0.08   0.23  -0.19     0.19   0.09   0.26    -0.12   0.08  -0.29
    14   1    -0.10   0.12  -0.14     0.44   0.26   0.21    -0.20   0.31   0.02
    15   1     0.09   0.06  -0.06     0.30   0.20  -0.18    -0.19   0.23  -0.19
                      7                      8                      9
                      A                      A                      A
 Frequencies --    179.1944               254.1836               263.9324
 Red. masses --      1.2607                 4.0330                 3.4595
 Frc consts  --      0.0239                 0.1535                 0.1420
 IR Inten    --      3.4663                 7.9665                 8.4949
  Atom  AN      X      Y      Z        X      Y      Z        X      Y      Z
     1   8     0.05   0.01   0.01     0.25   0.06  -0.03     0.08   0.05   0.08
     2   1     0.07   0.04   0.01     0.32   0.16   0.05     0.13   0.07  -0.04
     3   6     0.01   0.03  -0.01     0.04   0.14   0.12     0.03   0.02  -0.21
     4   1     0.00   0.02  -0.01     0.02   0.20   0.37     0.09  -0.04  -0.61
     5   6     0.01   0.03  -0.01     0.05  -0.07  -0.14    -0.04   0.04   0.25
     6   6    -0.02  -0.03   0.00    -0.03  -0.15  -0.07    -0.07  -0.06   0.13
     7   8    -0.08  -0.03   0.00    -0.02  -0.12   0.07    -0.07  -0.10  -0.09
     8   8    -0.01  -0.05   0.01    -0.11  -0.05  -0.03    -0.07  -0.06  -0.01
     9   6     0.01   0.01  -0.00    -0.06   0.13   0.01     0.01   0.09  -0.08
    10   6     0.04   0.03  -0.00    -0.14   0.03   0.03     0.09   0.02  -0.00
    11   1    -0.03   0.05  -0.03    -0.12   0.23  -0.14    -0.07   0.19  -0.17
    12   1     0.07   0.02   0.02     0.06   0.22   0.11     0.13   0.15  -0.01
    13   1     0.27   0.55  -0.17    -0.26  -0.25   0.07    -0.03  -0.19   0.21
    14   1    -0.49  -0.07  -0.14     0.09   0.04   0.06     0.41   0.00   0.01
    15   1     0.36  -0.31   0.28    -0.34   0.21  -0.02    -0.01   0.14  -0.13
                     10                     11                     12
                      A                      A                      A
 Frequencies --    321.0219               426.2393               560.3664
 Red. masses --      3.3699                 3.7760                 4.7863
 Frc consts  --      0.2046                 0.4042                 0.8855
 IR Inten    --     20.9170                 3.8767                 7.7154
  Atom  AN      X      Y      Z        X      Y      Z        X      Y      Z
     1   8     0.12   0.05   0.03     0.08   0.02  -0.01    -0.09  -0.06  -0.00
     2   1     0.17   0.09  -0.02     0.16   0.13   0.02    -0.26  -0.27   0.01
     3   6    -0.00   0.05  -0.07    -0.13   0.07   0.01     0.24  -0.07   0.05
     4   1     0.03   0.04  -0.22    -0.15   0.09   0.13     0.23  -0.09   0.08
     5   6    -0.05  -0.06   0.12    -0.12  -0.08  -0.12     0.28   0.25  -0.03
     6   6    -0.02   0.01   0.01    -0.07   0.03   0.03    -0.01  -0.06   0.04
     7   8     0.21   0.01   0.00     0.09   0.03   0.03     0.03  -0.06   0.02
     8   8    -0.05   0.06  -0.13    -0.10   0.07   0.21    -0.15   0.07   0.04
     9   6    -0.18  -0.15   0.05    -0.04  -0.06  -0.16    -0.24   0.02  -0.12
    10   6    -0.08   0.01   0.02     0.19  -0.11  -0.08    -0.00  -0.01  -0.01
    11   1    -0.12  -0.31   0.34    -0.00  -0.08  -0.16    -0.18  -0.07  -0.02
    12   1    -0.47  -0.29  -0.11     0.05  -0.09  -0.17    -0.27  -0.05  -0.19
    13   1     0.03   0.25  -0.05     0.17   0.04   0.32    -0.01   0.16   0.38
    14   1    -0.29   0.08   0.06     0.41  -0.22  -0.15     0.20  -0.12  -0.09
    15   1     0.10  -0.12  -0.00     0.40  -0.24  -0.16     0.23  -0.16  -0.10
                     13                     14                     15
                      A                      A                      A
 Frequencies --    614.1118               749.9793               808.9515
 Red. masses --      7.7142                11.4945                 1.3422
 Frc consts  --      1.7141                 3.8093                 0.5175
 IR Inten    --      9.3644                28.9500                42.1627
  Atom  AN      X      Y      Z        X      Y      Z        X      Y      Z
     1   8    -0.07  -0.09   0.01     0.00  -0.00  -0.02    -0.00   0.00   0.02
     2   1     0.07   0.08  -0.00     0.00   0.01   0.02     0.00   0.02   0.04
     3   6    -0.21   0.10  -0.05    -0.02   0.03   0.12     0.02  -0.03  -0.16
     4   1    -0.32  -0.02  -0.05    -0.01   0.01  -0.01    -0.13   0.17   0.96
     5   6    -0.08   0.49  -0.08     0.05  -0.06  -0.38    -0.01   0.01   0.04
     6   6    -0.11  -0.09  -0.02    -0.11   0.13   0.80    -0.00   0.00   0.04
     7   8     0.33  -0.07   0.06     0.03  -0.05  -0.20     0.00  -0.01  -0.01
     8   8    -0.02  -0.25   0.00     0.03  -0.03  -0.20     0.00   0.00  -0.01
     9   6     0.09  -0.03   0.07     0.03   0.01   0.01     0.01   0.01   0.00
    10   6     0.00   0.02   0.01     0.00   0.01   0.01     0.00   0.00  -0.00
    11   1    -0.07   0.19  -0.18     0.01  -0.02   0.12     0.00  -0.01   0.05
    12   1     0.34   0.10   0.21    -0.09  -0.04  -0.05    -0.02  -0.03  -0.03
    13   1     0.01  -0.08  -0.20     0.00  -0.04  -0.12    -0.00  -0.01  -0.01
    14   1    -0.09   0.12   0.09    -0.09   0.02   0.01    -0.00  -0.02  -0.02
    15   1    -0.11   0.11  -0.02    -0.11   0.07   0.08    -0.02   0.01   0.03
                     16                     17                     18
                      A                      A                      A
 Frequencies --    814.4523               862.2235               896.3439
 Red. masses --      1.2904                 1.1727                 2.9320
 Frc consts  --      0.5043                 0.5137                 1.3879
 IR Inten    --      3.0560               165.4732                16.7997
  Atom  AN      X      Y      Z        X      Y      Z        X      Y      Z
     1   8    -0.01  -0.01  -0.00    -0.06  -0.06   0.00     0.01   0.01   0.00
     2   1     0.08   0.10  -0.01     0.47   0.59  -0.03    -0.14  -0.18   0.01
     3   6    -0.04   0.01   0.00    -0.02  -0.02   0.00    -0.04   0.03  -0.01
     4   1     0.00   0.04  -0.09     0.36   0.49  -0.04    -0.21  -0.18   0.00
     5   6    -0.01   0.04  -0.01     0.02   0.01   0.00    -0.01   0.07  -0.01
     6   6     0.02  -0.05  -0.01     0.03  -0.01   0.01     0.02  -0.11   0.02
     7   8    -0.01  -0.06   0.01    -0.01  -0.02   0.00    -0.04  -0.15   0.02
     8   8     0.00   0.05   0.00     0.01   0.04  -0.01    -0.04   0.25  -0.03
     9   6     0.06   0.07  -0.01    -0.01  -0.01  -0.00     0.08  -0.03   0.09
    10   6     0.03   0.02  -0.02    -0.01  -0.01   0.00     0.07  -0.10  -0.04
    11   1     0.02  -0.11   0.52     0.04  -0.01  -0.09     0.24  -0.08  -0.10
    12   1    -0.17  -0.31  -0.36    -0.02   0.07   0.07    -0.16   0.23   0.27
    13   1    -0.05  -0.18  -0.02     0.01   0.06   0.01     0.17  -0.05  -0.44
    14   1     0.02  -0.31  -0.30    -0.00   0.07   0.07    -0.14   0.27   0.25
    15   1    -0.19   0.02   0.40     0.06  -0.02  -0.11     0.06   0.02  -0.34
                     19                     20                     21
                      A                      A                      A
 Frequencies --    942.8750              1021.5853              1110.1594
 Red. masses --      2.3405                 1.1338                 4.1132
 Frc consts  --      1.2259                 0.6972                 2.9868
 IR Inten    --      2.8362                 6.0211                10.3019
  Atom  AN      X      Y      Z        X      Y      Z        X      Y      Z
     1   8     0.00   0.02  -0.00     0.04  -0.03   0.01    -0.01   0.01  -0.00
     2   1     0.03   0.05  -0.01    -0.36  -0.52   0.04     0.10   0.15  -0.01
     3   6    -0.09   0.03  -0.02    -0.05   0.03  -0.01     0.08  -0.03   0.02
     4   1    -0.34  -0.29   0.01     0.41   0.63  -0.05    -0.00  -0.16   0.03
     5   6    -0.04   0.04  -0.01    -0.03   0.01  -0.01     0.03  -0.01   0.01
     6   6     0.12  -0.06   0.03    -0.01  -0.01  -0.00    -0.15   0.00  -0.03
     7   8    -0.03  -0.09   0.01    -0.00  -0.01   0.00     0.01   0.02   0.00
     8   8     0.15   0.03  -0.00     0.02   0.01  -0.00    -0.16   0.09  -0.04
     9   6    -0.03  -0.01  -0.11     0.02  -0.01  -0.02     0.27  -0.21  -0.17
    10   6    -0.14   0.07   0.08    -0.02   0.02   0.02    -0.05   0.11   0.21
    11   1     0.24  -0.18  -0.17     0.08  -0.05  -0.03     0.26  -0.16  -0.28
    12   1    -0.00  -0.02  -0.11     0.03  -0.02  -0.03     0.37  -0.25  -0.21
    13   1    -0.14   0.33   0.58    -0.02   0.05   0.10    -0.06   0.05   0.14
    14   1     0.15   0.03   0.08     0.02   0.01   0.02    -0.11   0.12   0.23
    15   1     0.20  -0.12  -0.10     0.02  -0.01   0.01    -0.14   0.15   0.33
                     22                     23                     24
                      A                      A                      A
 Frequencies --   1156.6068              1228.6362              1333.9156
 Red. masses --      2.0515                 1.7490                 1.6404
 Frc consts  --      1.6170                 1.5556                 1.7198
 IR Inten    --     22.5132                 2.3985               286.0859
  Atom  AN      X      Y      Z        X      Y      Z        X      Y      Z
     1   8    -0.00   0.00  -0.00    -0.00   0.00  -0.00    -0.00   0.00  -0.00
     2   1     0.02   0.02  -0.00     0.02   0.02  -0.00     0.03   0.04  -0.00
     3   6     0.03  -0.01   0.00     0.02  -0.01   0.00     0.04  -0.01   0.01
     4   1     0.01  -0.03   0.00     0.02  -0.02   0.01     0.03  -0.04   0.01
     5   6     0.01  -0.00   0.00     0.00  -0.01   0.00     0.00  -0.01   0.00
     6   6    -0.05   0.00  -0.00    -0.07   0.01  -0.01    -0.19  -0.01  -0.02
     7   8     0.00   0.00  -0.00     0.01   0.03  -0.00     0.02  -0.01   0.00
     8   8    -0.06   0.02  -0.06    -0.02  -0.07   0.01     0.09  -0.01   0.01
     9   6     0.11  -0.02   0.20     0.10   0.16  -0.03    -0.05   0.03   0.02
    10   6    -0.09   0.02  -0.15    -0.07  -0.12   0.02     0.04   0.06  -0.02
    11   1     0.12   0.03   0.07     0.32  -0.16   0.37     0.65  -0.41  -0.22
    12   1     0.26  -0.07   0.18    -0.29  -0.10  -0.30    -0.32   0.26   0.18
    13   1    -0.13   0.19   0.51     0.09   0.26  -0.00    -0.02  -0.09   0.00
    14   1     0.38  -0.22  -0.31     0.01   0.25   0.34    -0.01  -0.12  -0.18
    15   1     0.29  -0.28  -0.11     0.15  -0.09  -0.44    -0.06   0.06   0.17
                     25                     26                     27
                      A                      A                      A
 Frequencies --   1377.7479              1444.9046              1457.8899
 Red. masses --      2.0143                 1.4153                 1.2668
 Frc consts  --      2.2528                 1.7409                 1.5864
 IR Inten    --    427.6671                63.5548                16.8412
  Atom  AN      X      Y      Z        X      Y      Z        X      Y      Z
     1   8    -0.00   0.00  -0.00     0.00  -0.00   0.00     0.00  -0.00   0.00
     2   1     0.03   0.04  -0.00    -0.01  -0.01   0.00    -0.00  -0.00   0.00
     3   6     0.04  -0.01   0.01    -0.02   0.01  -0.00    -0.01   0.00  -0.00
     4   1     0.03  -0.03   0.01    -0.02   0.01  -0.01    -0.01   0.00  -0.00
     5   6    -0.00  -0.01   0.00     0.00   0.00   0.00     0.00   0.00   0.00
     6   6    -0.20  -0.02  -0.02     0.10  -0.00   0.01     0.03   0.00   0.00
     7   8     0.01  -0.04   0.01    -0.01   0.02  -0.01    -0.00   0.00  -0.00
     8   8     0.14   0.08  -0.01    -0.07  -0.02  -0.02    -0.02  -0.01  -0.01
     9   6    -0.09   0.04   0.02    -0.08   0.05   0.06    -0.03   0.02   0.03
    10   6    -0.00  -0.05   0.02     0.02   0.01   0.06     0.07  -0.06  -0.10
    11   1    -0.27   0.16   0.09     0.51  -0.26  -0.30     0.18  -0.08  -0.12
    12   1     0.75  -0.38  -0.22     0.41  -0.36  -0.24     0.14  -0.15  -0.09
    13   1     0.04   0.01  -0.06     0.04  -0.12  -0.27     0.00   0.13   0.52
    14   1    -0.07   0.04   0.09    -0.01  -0.19  -0.13    -0.30   0.38   0.27
    15   1     0.02   0.00  -0.17     0.09   0.04  -0.19    -0.38   0.12   0.35
                     28                     29                     30
                      A                      A                      A
 Frequencies --   1528.6933              1537.8563              1545.8009
 Red. masses --      1.0421                 1.0695                 1.0754
 Frc consts  --      1.4348                 1.4903                 1.5141
 IR Inten    --     13.9778                 5.2959                24.3523
  Atom  AN      X      Y      Z        X      Y      Z        X      Y      Z
     1   8    -0.00  -0.00  -0.00     0.00  -0.00   0.00     0.00  -0.00   0.00
     2   1     0.00   0.00  -0.00    -0.00  -0.00  -0.00    -0.00  -0.00   0.00
     3   6    -0.00   0.00   0.00    -0.00   0.00  -0.00    -0.00   0.00  -0.00
     4   1    -0.00   0.00   0.00    -0.00   0.00  -0.00    -0.00   0.00  -0.00
     5   6     0.00   0.00  -0.00     0.00   0.00   0.00     0.00   0.00   0.00
     6   6    -0.00   0.00  -0.00     0.02  -0.01   0.00     0.02  -0.01   0.00
     7   8    -0.00  -0.01   0.00    -0.00   0.01  -0.00    -0.00   0.01  -0.00
     8   8     0.00   0.00   0.00    -0.02  -0.00  -0.01    -0.02  -0.00  -0.01
     9   6    -0.02  -0.01   0.01    -0.02  -0.02  -0.05    -0.04   0.01  -0.04
    10   6    -0.03  -0.04   0.00     0.02  -0.02   0.02    -0.03   0.01  -0.03
    11   1     0.01   0.02  -0.12     0.07  -0.26   0.48     0.11  -0.24   0.33
    12   1    -0.02  -0.05  -0.02     0.35   0.31   0.30     0.33   0.18   0.17
    13   1     0.26   0.54  -0.29     0.08   0.24   0.13    -0.06  -0.21  -0.22
    14   1     0.58  -0.05   0.02    -0.15  -0.21  -0.18     0.28   0.30   0.26
    15   1    -0.35   0.14   0.23    -0.24   0.28  -0.26     0.22  -0.32   0.40
                     31                     32                     33
                      A                      A                      A
 Frequencies --   1872.3223              2000.2387              3108.6735
 Red. masses --     11.4987                 7.2009                 1.0351
 Frc consts  --     23.7497                16.9746                 5.8938
 IR Inten    --    175.3058               146.6250                11.8306
  Atom  AN      X      Y      Z        X      Y      Z        X      Y      Z
     1   8     0.00   0.02  -0.00    -0.01  -0.04   0.00    -0.00  -0.00  -0.00
     2   1     0.00  -0.01   0.00    -0.04  -0.06   0.01     0.00   0.00   0.00
     3   6     0.15  -0.05   0.03    -0.37   0.12  -0.07     0.00  -0.00   0.00
     4   1     0.25  -0.06   0.04    -0.61   0.20  -0.12    -0.00   0.00  -0.00
     5   6    -0.20   0.04  -0.03     0.56  -0.15   0.10    -0.00   0.00  -0.00
     6   6     0.05   0.72  -0.12    -0.10   0.19  -0.05     0.00   0.00   0.00
     7   8     0.02  -0.49   0.09     0.00  -0.08   0.01     0.00  -0.00  -0.00
     8   8    -0.06  -0.06   0.00    -0.02  -0.01  -0.00    -0.00  -0.00  -0.00
     9   6    -0.02   0.02  -0.01     0.01   0.00  -0.00     0.00  -0.00  -0.00
    10   6     0.01  -0.00   0.01    -0.00  -0.00   0.00    -0.02   0.02   0.04
    11   1     0.12  -0.12   0.09     0.02  -0.01   0.02     0.00   0.01   0.00
    12   1     0.15   0.04   0.02     0.02   0.01   0.00    -0.00  -0.02   0.02
    13   1    -0.00  -0.05  -0.04    -0.00  -0.01  -0.00     0.56  -0.22   0.12
    14   1    -0.03   0.00   0.00    -0.00  -0.00  -0.00     0.03   0.40  -0.44
    15   1     0.04  -0.00  -0.04     0.01  -0.00  -0.01    -0.31  -0.40  -0.13
                     34                     35                     36
                      A                      A                      A
 Frequencies --   3140.0170              3189.1585              3192.6200
 Red. masses --      1.0602                 1.1003                 1.1026
 Frc consts  --      6.1591                 6.5934                 6.6216
 IR Inten    --     18.3456                13.2063                 4.7162
  Atom  AN      X      Y      Z        X      Y      Z        X      Y      Z
     1   8    -0.00   0.00   0.00    -0.00   0.00   0.00    -0.00  -0.00   0.00
     2   1     0.00   0.00  -0.00     0.00   0.00  -0.00     0.00  -0.00  -0.00
     3   6     0.00  -0.00   0.00     0.00  -0.00   0.00     0.00  -0.00   0.00
     4   1    -0.00   0.00   0.00    -0.00   0.00  -0.00    -0.00   0.00  -0.00
     5   6    -0.00   0.00  -0.00    -0.00   0.00  -0.00    -0.00  -0.00  -0.00
     6   6     0.00   0.00   0.00     0.00   0.00  -0.00    -0.00   0.00  -0.00
     7   8     0.00  -0.00   0.00    -0.00  -0.00  -0.00     0.00  -0.00   0.00
     8   8    -0.00   0.00  -0.00     0.00  -0.00   0.00     0.00  -0.00  -0.00
     9   6    -0.02   0.01  -0.06    -0.02  -0.03  -0.00     0.02   0.05  -0.01
    10   6     0.01  -0.01   0.01    -0.03   0.06  -0.05    -0.07  -0.02  -0.02
    11   1     0.32   0.43   0.15     0.23   0.31   0.12    -0.24  -0.32  -0.12
    12   1    -0.09  -0.54   0.61     0.01   0.08  -0.10    -0.04  -0.24   0.29
    13   1    -0.11   0.04  -0.03     0.52  -0.19   0.10     0.47  -0.19   0.10
    14   1     0.01   0.04  -0.04    -0.05  -0.46   0.52    -0.02  -0.00  -0.00
    15   1    -0.01  -0.02  -0.00    -0.08  -0.08  -0.04     0.36   0.49   0.17
                     37                     38                     39
                      A                      A                      A
 Frequencies --   3213.6931              3408.0435              3812.1367
 Red. masses --      1.1055                 1.1276                 1.0680
 Frc consts  --      6.7271                 7.7167                 9.1443
 IR Inten    --     16.5960                32.7931                28.0543
  Atom  AN      X      Y      Z        X      Y      Z        X      Y      Z
     1   8    -0.00   0.00  -0.00     0.00  -0.00   0.00    -0.05   0.04  -0.01
     2   1     0.00   0.00  -0.00    -0.01   0.00  -0.00     0.76  -0.62   0.21
     3   6     0.00  -0.00   0.00    -0.09   0.05  -0.02    -0.00  -0.00  -0.00
     4   1    -0.00   0.00  -0.00     0.78  -0.59   0.20     0.00  -0.01   0.00
     5   6    -0.00   0.00  -0.00     0.02  -0.00   0.00     0.00   0.00   0.00
     6   6     0.00  -0.00   0.00    -0.00   0.00  -0.00     0.00  -0.00   0.00
     7   8    -0.00   0.00  -0.00    -0.00   0.00  -0.00    -0.00   0.00  -0.00
     8   8     0.00  -0.00   0.00    -0.00  -0.00   0.00    -0.00   0.00  -0.00
     9   6    -0.03  -0.06   0.01    -0.00  -0.00  -0.00     0.00  -0.00   0.00
    10   6    -0.04  -0.05   0.01    -0.00  -0.00   0.00    -0.00   0.00  -0.00
    11   1     0.34   0.46   0.18     0.00   0.00   0.00    -0.00   0.00  -0.00
    12   1     0.04   0.25  -0.30     0.00  -0.00  -0.00    -0.00   0.00  -0.00
    13   1     0.08  -0.05   0.02     0.00  -0.00   0.00    -0.00   0.00   0.00
    14   1     0.02   0.26  -0.30    -0.00   0.00  -0.00     0.00   0.00  -0.00
    15   1     0.32   0.43   0.16    -0.00   0.00   0.00     0.00  -0.00   0.00

 -------------------
 - Thermochemistry -
 -------------------
 Temperature   298.150 Kelvin.  Pressure   1.00000 Atm.
 Atom     1 has atomic number  8 and mass  15.99491
 Atom     2 has atomic number  1 and mass   1.00783
 Atom     3 has atomic number  6 and mass  12.00000
 Atom     4 has atomic number  1 and mass   1.00783
 Atom     5 has atomic number  6 and mass  12.00000
 Atom     6 has atomic number  6 and mass  12.00000
 Atom     7 has atomic number  8 and mass  15.99491
 Atom     8 has atomic number  8 and mass  15.99491
 Atom     9 has atomic number  6 and mass  12.00000
 Atom    10 has atomic number  6 and mass  12.00000
 Atom    11 has atomic number  1 and mass   1.00783
 Atom    12 has atomic number  1 and mass   1.00783
 Atom    13 has atomic number  1 and mass   1.00783
 Atom    14 has atomic number  1 and mass   1.00783
 Atom    15 has atomic number  1 and mass   1.00783
 Molecular mass:   115.03952 amu.
 Principal axes and moments of inertia in atomic units:
                           1         2         3
     Eigenvalues --   320.150591898.226142065.11828
           X            0.99993  -0.00988  -0.00584
           Y            0.00997   0.99982   0.01607
           Z            0.00568  -0.01612   0.99985
 This molecule is an asymmetric top.
 Rotational symmetry number  1.
 Rotational temperatures (Kelvin)      0.27054     0.04563     0.04194
 Rotational constants (GHZ):           5.63716     0.95075     0.87392
    4 imaginary frequencies ignored.
 Zero-point vibrational energy     296399.8 (Joules/Mol)
                                   70.84125 (Kcal/Mol)
 Warning -- explicit consideration of   9 degrees of freedom as
           vibrations may cause significant error
 Vibrational temperatures:     58.36   200.04   257.82   365.71   379.74
          (Kelvin)            461.88   613.26   806.24   883.57  1079.05
                             1163.90  1171.82  1240.55  1289.64  1356.59
                             1469.83  1597.27  1664.10  1767.73  1919.21
                             1982.27  2078.90  2097.58  2199.45  2212.63
                             2224.06  2693.85  2877.90  4472.69  4517.78
                             4588.49  4593.47  4623.79  4903.41  5484.81
 
 Zero-point correction=                           0.112893 (Hartree/Particle)
 Thermal correction to Energy=                    0.120343
 Thermal correction to Enthalpy=                  0.121287
 Thermal correction to Gibbs Free Energy=         0.079292
 Sum of electronic and zero-point Energies=           -419.851315
 Sum of electronic and thermal Energies=              -419.843865
 Sum of electronic and thermal Enthalpies=            -419.842920
 Sum of electronic and thermal Free Energies=         -419.884916
 
                     E (Thermal)             CV                S
                      KCal/Mol        Cal/Mol-Kelvin    Cal/Mol-Kelvin
 Total                   75.517             25.588             88.387
 Electronic               0.000              0.000              1.377
 Translational            0.889              2.981             40.136
 Rotational               0.889              2.981             28.619
 Vibrational             73.739             19.626             18.255
 Vibration     1          0.594              1.981              5.231
 Vibration     2          0.615              1.914              2.817
 Vibration     3          0.629              1.868              2.337
 Vibration     4          0.665              1.756              1.701
 Vibration     5          0.670              1.739              1.636
 Vibration     6          0.706              1.633              1.305
 Vibration     7          0.788              1.413              0.871
 Vibration     8          0.916              1.117              0.523
 Vibration     9          0.974              1.002              0.426
                       Q            Log10(Q)             Ln(Q)
 Total Bot       0.337536D-36        -36.471680        -83.979146
 Total V=0       0.285310D+16         15.455317         35.587183
 Vib (Bot)       0.867754D-50        -50.061603       -115.271102
 Vib (Bot)    1  0.510060D+01          0.707622          1.629359
 Vib (Bot)    2  0.146285D+01          0.165201          0.380389
 Vib (Bot)    3  0.112116D+01          0.049669          0.114367
 Vib (Bot)    4  0.766304D+00         -0.115599         -0.266176
 Vib (Bot)    5  0.734482D+00         -0.134019         -0.308590
 Vib (Bot)    6  0.585216D+00         -0.232684         -0.535774
 Vib (Bot)    7  0.409977D+00         -0.387240         -0.891653
 Vib (Bot)    8  0.277259D+00         -0.557114         -1.282803
 Vib (Bot)    9  0.239612D+00         -0.620492         -1.428736
 Vib (V=0)       0.733489D+02          1.865394          4.295228
 Vib (V=0)    1  0.562505D+01          0.750127          1.727230
 Vib (V=0)    2  0.204594D+01          0.310893          0.715859
 Vib (V=0)    3  0.172760D+01          0.237444          0.546734
 Vib (V=0)    4  0.141500D+01          0.150756          0.347128
 Vib (V=0)    5  0.138852D+01          0.142551          0.328237
 Vib (V=0)    6  0.126973D+01          0.103710          0.238801
 Vib (V=0)    7  0.114659D+01          0.059409          0.136794
 Vib (V=0)    8  0.107173D+01          0.030084          0.069272
 Vib (V=0)    9  0.105445D+01          0.023026          0.053018
 Electronic      0.200000D+01          0.301030          0.693147
 Translational   0.484981D+08          7.685724         17.697035
 Rotational      0.401023D+06          5.603169         12.901774
 ***** Axes restored to original set *****
 -------------------------------------------------------------------
 Center     Atomic                   Forces (Hartrees/Bohr)
 Number     Number              X              Y              Z
 -------------------------------------------------------------------
      1        8          -0.003837788   -0.043135625    0.006561257
      2        1          -0.011240571    0.011476109   -0.003416124
      3        6           0.035109116    0.036977641   -0.001307555
      4        1          -0.001640393   -0.000188502   -0.000185500
      5        6          -0.021883830   -0.004068017   -0.002412908
      6        6           0.032515413   -0.041705789    0.011421630
      7        8          -0.003161313    0.050197197   -0.008701134
      8        8          -0.006990148   -0.013338073    0.001177272
      9        6          -0.016977789    0.001299221   -0.003964413
     10        6          -0.000354537    0.000166776    0.000145693
     11        1          -0.000537725   -0.000496491   -0.000328903
     12        1          -0.000172006    0.001290295   -0.001124152
     13        1          -0.001279706    0.000792064    0.000237010
     14        1          -0.000046284   -0.000676412    0.001016428
     15        1           0.000497560    0.001409605    0.000881400
 -------------------------------------------------------------------
 Cartesian Forces:  Max     0.050197197 RMS     0.015896098

 GradGradGradGradGradGradGradGradGradGradGradGradGradGradGradGradGradGrad
 Berny optimization.
 Search for a local minimum.
 Step number   1 out of a maximum of    2
 All quantities printed in internal units (Hartrees-Bohrs-Radians)
 Second derivative matrix not updated -- analytic derivatives used.
 ITU=  0
     Eigenvalues ---   -0.30268  -0.00695  -0.00350  -0.00023   0.00029
     Eigenvalues ---    0.00163   0.00515   0.01037   0.01313   0.01997
     Eigenvalues ---    0.03299   0.03501   0.04518   0.05803   0.06697
     Eigenvalues ---    0.07755   0.08712   0.09706   0.10620   0.11229
     Eigenvalues ---    0.12064   0.14943   0.17840   0.18960   0.19604
     Eigenvalues ---    0.26722   0.29270   0.43098   0.49578   0.63841
     Eigenvalues ---    0.72949   0.77794   0.80487   0.88285   0.95432
     Eigenvalues ---    0.98183   1.00295   1.80030   2.09305
 Eigenvalue     1 is  -3.03D-01 should be greater than     0.000000 Eigenvector:
                          Y3        Y1        X3        X1        Y5
   1                    0.71811  -0.47290   0.34103  -0.28069  -0.19523
                          X4        Z3        Y2        X5        X2
   1                   -0.09731  -0.07241  -0.05817  -0.05590   0.04430
 Eigenvalue     2 is  -6.95D-03 should be greater than     0.000000 Eigenvector:
                          Z2        Z1        Z7        Y2        Z13
   1                    0.81737  -0.38566   0.17930   0.13543  -0.12795
                          X2        Z15       Z5        Z6        Y14
   1                   -0.12156  -0.12026   0.11249   0.10913   0.09414
 Eigenvalue     3 is  -3.50D-03 should be greater than     0.000000 Eigenvector:
                          Z7        Z2        Z15       Y14       Z8
   1                    0.65702  -0.34246  -0.27896   0.22127  -0.21411
                          Z12       Y12       X14       Y15       Z1
   1                   -0.16299  -0.16293   0.16269   0.16174  -0.12710
 Eigenvalue     4 is  -2.31D-04 should be greater than     0.000000 Eigenvector:
                          X2        X1        Y5        X7        Y1
   1                    0.53038   0.30689   0.30227  -0.26202  -0.24441
                          Y11       Y4        X4        Y6        Y12
   1                   -0.21462  -0.20757  -0.19353   0.18897  -0.18202
 Quadratic step=5.679D+00 exceeds max=3.000D-01 adjusted using Lamda=-7.990D-03.
 Angle between NR and scaled steps=  55.06 degrees.
 Angle between quadratic step and forces=  52.13 degrees.
 Linear search not attempted -- first point.
 B after Tr=     0.000193   -0.000178   -0.000956
         Rot=    1.000000   -0.000603    0.000187    0.000399 Ang=  -0.09 deg.
 Variable       Old X    -DE/DX   Delta X   Delta X   Delta X     New X
                                 (Linear)    (Quad)   (Total)
    X1        6.13399  -0.00384   0.00000  -0.00744  -0.00637   6.12762
    Y1        1.39588  -0.04314   0.00000  -0.16348  -0.16886   1.22702
    Z1        0.23940   0.00656   0.00000   0.02515   0.02797   0.26737
    X2        4.73849  -0.01124   0.00000   0.10643   0.10871   4.84720
    Y2        2.52482   0.01148   0.00000   0.03963   0.03574   2.56056
    Z2       -0.13448  -0.00342   0.00000   0.00619   0.01013  -0.12435
    X3        4.49727   0.03511   0.00000   0.10254   0.10131   4.59857
    Y3       -1.66644   0.03698   0.00000   0.12499   0.12053  -1.54591
    Z3        0.52002  -0.00131   0.00000  -0.00726  -0.00836   0.51166
    X4        6.07819  -0.00164   0.00000   0.02396   0.02150   6.09969
    Y4       -2.86960  -0.00019   0.00000  -0.01924  -0.02541  -2.89501
    Z4        0.92768  -0.00019   0.00000   0.00754   0.00538   0.93305
    X5        2.17939  -0.02188   0.00000   0.01565   0.01467   2.19406
    Y5       -1.41738  -0.00407   0.00000   0.02567   0.02355  -1.39383
    Z5        0.16835  -0.00241   0.00000  -0.00460  -0.00642   0.16193
    X6       -0.15664   0.03252   0.00000   0.03744   0.03773  -0.11891
    Y6       -0.06826  -0.04171   0.00000   0.01475   0.01511  -0.05315
    Z6       -0.36499   0.01142   0.00000  -0.00037  -0.00144  -0.36643
    X7       -0.20709  -0.00316   0.00000  -0.04590  -0.04364  -0.25073
    Y7        2.17434   0.05020   0.00000   0.06466   0.06560   2.23993
    Z7       -0.73683  -0.00870   0.00000  -0.02119  -0.01954  -0.75637
    X8       -2.13902  -0.00699   0.00000  -0.00011  -0.00106  -2.14008
    Y8       -1.60328  -0.01334   0.00000  -0.01235  -0.01035  -1.61362
    Z8       -0.39261   0.00118   0.00000  -0.00135  -0.00505  -0.39766
    X9       -4.56127  -0.01698   0.00000  -0.05661  -0.05644  -4.61771
    Y9       -0.44028   0.00130   0.00000  -0.01496  -0.01039  -0.45067
    Z9       -0.87863  -0.00396   0.00000  -0.00789  -0.01112  -0.88975
   X10       -5.59145  -0.00035   0.00000  -0.02979  -0.02952  -5.62096
   Y10        0.80874   0.00017   0.00000  -0.00547  -0.00296   0.80578
   Z10        1.48378   0.00015   0.00000   0.00353   0.00145   1.48522
   X11       -5.74603  -0.00054   0.00000  -0.03123  -0.03211  -5.77814
   Y11       -2.00368  -0.00050   0.00000  -0.04074  -0.03451  -2.03819
   Z11       -1.49579  -0.00033   0.00000   0.00677   0.00120  -1.49460
   X12       -4.34290  -0.00017   0.00000  -0.05164  -0.04982  -4.39272
   Y12        0.91075   0.00129   0.00000  -0.01815  -0.01189   0.89886
   Z12       -2.41919  -0.00112   0.00000  -0.01426  -0.01578  -2.43497
   X13       -7.48076  -0.00128   0.00000  -0.03516  -0.03416  -7.51492
   Y13        1.54449   0.00079   0.00000   0.00301   0.00746   1.55195
   Z13        1.10387   0.00024   0.00000   0.02673   0.02483   1.12870
   X14       -5.72039  -0.00005   0.00000  -0.01283  -0.01421  -5.73460
   Y14       -0.55713  -0.00068   0.00000  -0.00200  -0.00127  -0.55839
   Z14        3.02247   0.00102   0.00000   0.01231   0.00853   3.03101
   X15       -4.38926   0.00050   0.00000  -0.01790  -0.01658  -4.40584
   Y15        2.37731   0.00141   0.00000  -0.00319  -0.00233   2.37498
   Z15        2.06510   0.00088   0.00000  -0.01205  -0.01179   2.05331
         Item               Value     Threshold  Converged?
 Maximum Force            0.050197     0.000450     NO 
 RMS     Force            0.015896     0.000300     NO 
 Maximum Displacement     0.168863     0.001800     NO 
 RMS     Displacement     0.044634     0.001200     NO 
 Predicted change in Energy=-2.229529D-02
 GradGradGradGradGradGradGradGradGradGradGradGradGradGradGradGradGradGrad


 ----------------------------------------------------------------------

 Electric dipole moment (input orientation):
 (Debye = 10**-18 statcoulomb cm , SI units = C m)
                  (au)            (Debye)         (10**-30 SI)
   Tot        0.154211D+01      0.391965D+01      0.130745D+02
   x         -0.139479D+01     -0.354519D+01     -0.118255D+02
   y         -0.657525D+00     -0.167126D+01     -0.557473D+01
   z          0.182511D-01      0.463897D-01      0.154739D+00

 Dipole polarizability, Alpha (input orientation).
 (esu units = cm**3 , SI units = C**2 m**2 J**-1)
 Alpha(0;0):
               (au)            (10**-24 esu)      (10**-40 SI)
   iso        0.724818D+02      0.107407D+02      0.119506D+02
   aniso      0.507405D+02      0.751896D+01      0.836598D+01
   xx         0.102326D+03      0.151632D+02      0.168713D+02
   yx         0.717524D+01      0.106326D+01      0.118304D+01
   yy         0.685011D+02      0.101508D+02      0.112943D+02
   zx         0.342747D+01      0.507898D+00      0.565113D+00
   zy        -0.269045D+01     -0.398684D+00     -0.443595D+00
   zz         0.466181D+02      0.690809D+01      0.768629D+01

 ----------------------------------------------------------------------

 Dipole orientation:
     8          0.85922566         -1.09072960         -6.14032958
     1         -0.17646916          0.20783070         -5.36392735
     6          1.96674697         -2.85936365         -3.35093797
     1          3.09678420         -4.27507934         -4.26299863
     6          1.10985095         -1.92157593         -1.36485655
     6         -0.33410462         -0.15191775          0.16645706
     8         -1.53481612          1.54842610         -0.74850940
     8         -0.15367470         -0.66735459          2.61363030
     6         -1.50040569          1.00266360          4.30284092
     6         -0.03702227          3.42718598          4.73000850
     1         -1.68963527         -0.09143271          6.03371540
     1         -3.36690297          1.37085254          3.51105083
     1         -1.02288066          4.58883849          6.12061886
     1          1.85056099          3.01194161          5.44721888
     1          0.12115192          4.50358961          2.98074625

 Electric dipole moment (dipole orientation):
 (Debye = 10**-18 statcoulomb cm , SI units = C m)
                  (au)            (Debye)         (10**-30 SI)
   Tot        0.154211D+01      0.391965D+01      0.130745D+02
   x          0.000000D+00      0.000000D+00      0.000000D+00
   y          0.000000D+00      0.000000D+00      0.000000D+00
   z          0.154211D+01      0.391965D+01      0.130745D+02

 Dipole polarizability, Alpha (dipole orientation).
 (esu units = cm**3 , SI units = C**2 m**2 J**-1)
 Alpha(0;0):
               (au)            (10**-24 esu)      (10**-40 SI)
   iso        0.724818D+02      0.107407D+02      0.119506D+02
   aniso      0.507405D+02      0.751896D+01      0.836598D+01
   xx         0.538349D+02      0.797751D+01      0.887617D+01
   yx        -0.111991D+02     -0.165954D+01     -0.184649D+01
   yy         0.619535D+02      0.918057D+01      0.102148D+02
   zx        -0.595199D+01     -0.881995D+00     -0.981351D+00
   zy         0.651792D+01      0.965857D+00      0.107466D+01
   zz         0.101657D+03      0.150640D+02      0.167610D+02

 ----------------------------------------------------------------------
 1\1\GINC-AJ\Freq\UM062X\6-31+G\C5H7O3(2)\AAYUSH\20-Jun-2025\0\\# freq 
 6-31+g m062x\\Title Card Required\\0,2\O,3.245967,0.738667,0.126687\H,
 2.507499,1.336077,-0.071163\C,2.379851,-0.88184,0.275184\H,3.216438,-1
 .518526,0.490905\C,1.153286,-0.750043,0.089086\C,-0.082889,-0.03612,-0
 .193145\O,-0.109587,1.15061,-0.389914\O,-1.13192,-0.848418,-0.207759\C
 ,-2.413719,-0.232984,-0.464949\C,-2.958867,0.427967,0.785182\H,-3.0406
 66,-1.060302,-0.79154\H,-2.298164,0.481949,-1.280182\H,-3.958646,0.817
 31,0.584141\H,-3.027099,-0.294818,1.599423\H,-2.322698,1.258017,1.0928
 02\\Version=ES64L-G16RevA.03\State=2-A\HF=-419.9642078\S2=0.788501\S2-
 1=0.\S2A=0.750633\RMSD=9.567e-09\RMSF=1.590e-02\ZeroPoint=0.1128927\Th
 ermal=0.1203433\Dipole=-1.3947862,-0.6575246,0.0182511\DipoleDeriv=-0.
 2562078,0.1321518,0.021692,-0.1204895,-0.2624607,-0.0588041,0.0603519,
 -0.0291982,-0.5375508,0.0839075,0.0421914,-0.0483672,0.1942598,0.29055
 22,0.0365304,-0.0731908,0.0193383,0.3653885,-0.1821176,-0.4362747,0.05
 03181,-0.1403019,-0.0963468,-0.0064753,-0.0002398,-0.0442795,-0.000340
 3,0.2396885,-0.0009679,0.0020738,0.0023015,0.1902148,0.0052987,0.00369
 6,0.0038616,0.2158144,-0.498004,0.4437567,-0.1061912,0.233846,-0.24227
 86,0.0500178,-0.0921529,0.0842439,-0.1243063,2.538011,0.1607728,0.1442
 438,0.2640192,1.3450807,-0.1786607,0.197993,-0.1254091,0.488029,-0.892
 7287,0.0358545,-0.0425021,0.053006,-0.960993,0.1377128,-0.0513884,0.10
 9902,-0.3977244,-1.8867016,-0.2725884,-0.007082,-0.3413383,-0.6303202,
 -0.0064022,-0.1031652,-0.0336057,-0.3926821,0.9415043,-0.0258707,-0.01
 3321,-0.1871454,0.2742496,0.0157617,0.0781024,0.0639273,0.3340727,-0.1
 142481,-0.0039781,0.0128766,0.0556196,-0.0001416,-0.0482536,0.0167772,
 -0.0966605,-0.0709346,-0.0350464,-0.0346935,-0.021321,-0.0685031,-0.02
 72753,-0.0786472,-0.0244541,-0.0458842,0.0633181,-0.0096245,-0.0276184
 ,0.0681045,0.0652707,0.0341689,0.0772952,0.0028476,0.0387608,-0.031744
 8,-0.1029217,0.071359,-0.0208227,0.0834596,0.0899964,0.0000718,-0.0378
 221,0.0224281,0.0722365,0.1148162,0.0154108,0.0007895,-0.0179416,-0.01
 23324,0.1058683,0.034463,0.0542663,-0.0364185,0.0596729,-0.0995053,-0.
 0404909,-0.0760628,0.0078861,-0.0513137,-0.0118178,-0.0216912,0.052842
 6\Polar=102.3260691,7.1752425,68.5011271,3.4274658,-2.6904505,46.61809
 17\Quadrupole=0.0629324,-0.5650691,0.5021368,-4.7150549,0.805902,-0.14
 91924\PG=C01 [X(C5H7O3)]\NImag=4\\0.34261179,-0.26947458,0.16678195,0.
 08953007,-0.06252025,0.02999928,-0.31519270,0.24880379,-0.08413406,0.3
 0965718,0.21904438,-0.20681698,0.06425049,-0.23012715,0.21955098,-0.07
 928455,0.06827247,-0.01721095,0.08029463,-0.06780497,0.01743766,0.0317
 4438,0.13164431,-0.01404303,0.00240231,0.01958008,-0.00278496,0.951905
 69,0.07916189,0.09320866,-0.00839542,-0.01368544,-0.00576313,-0.000980
 90,-0.50852164,0.06847203,-0.00556800,-0.00145322,-0.02404338,0.002642
 52,0.00350627,-0.00071850,0.19908626,-0.06503872,0.12549363,0.00071082
 ,-0.01524361,0.00214357,-0.00118969,-0.00241166,0.00006070,-0.24391001
 ,0.17843189,-0.05720618,0.25906305,0.00064470,-0.02754362,0.00512367,-
 0.00299326,-0.00332082,0.00033806,0.20118272,-0.13572564,0.04358545,-0
 .16935291,0.16054517,-0.00041051,0.00304202,0.00274127,0.00015699,0.00
 041870,0.00122585,-0.06090671,0.04052728,-0.04851135,0.05976262,-0.045
 82771,0.03411132,-0.06418309,-0.10532746,0.00736276,0.00256087,-0.0053
 6735,0.00127072,-0.72064254,0.26696566,-0.13573299,-0.01540635,-0.0310
 8683,0.00216604,1.06935960,-0.03424271,-0.03252424,0.00218143,-0.00076
 332,-0.00234370,0.00021612,0.18825939,-0.01318003,0.02174637,0.0059178
 6,0.00312117,0.00119247,-0.26781234,0.17137453,-0.00416040,-0.00732261
 ,0.00954533,0.00050890,-0.00040319,-0.00024098,-0.12310812,0.03221372,
 -0.05717654,-0.00378945,-0.00372013,0.00586451,0.17942467,-0.05401600,
 0.09387751,0.00801851,0.01431945,-0.00098926,-0.00004700,-0.00421050,0
 .00056997,-0.02200319,-0.00403390,-0.00285051,0.00071517,0.00226997,-0
 .00117586,-0.20228934,0.08287818,-0.02981597,0.64703336,0.00414470,0.0
 0059997,0.00016038,-0.00690767,-0.00024368,-0.00079064,-0.02439811,-0.
 00037667,-0.00254338,0.00192035,0.00227229,0.00100407,0.09887926,-0.08
 273717,0.01347458,0.00394719,1.02807284,0.00060215,0.00145894,-0.00207
 070,0.00104951,-0.00037796,0.00091412,0.00054842,0.00030281,0.00406419
 ,-0.00114848,0.00103179,0.00662274,-0.03240355,0.01143496,-0.08678814,
 0.06253402,-0.13678335,0.21805528,-0.00266116,-0.00356809,0.00004451,0
 .00126013,0.00204555,0.00007177,0.00567948,0.00131148,0.00060036,-0.00
 051779,-0.00081604,0.00024275,-0.00858819,0.04273548,-0.01147169,-0.08
 804944,0.04404072,-0.01162267,0.08891548,0.00166105,0.00655820,-0.0006
 5785,0.00399381,-0.00143380,0.00051809,-0.01223424,-0.00586144,-0.0006
 7173,0.00070535,0.00099874,-0.00028239,0.04210667,-0.05123972,0.017785
 73,0.02022324,-0.78144671,0.12050775,-0.01504043,0.91385506,-0.0007562
 6,-0.00131278,0.00136554,-0.00026237,0.00021790,-0.00175178,0.00271787
 ,0.00110011,0.00000171,-0.00000828,-0.00048574,-0.00124958,-0.01137262
 ,0.01804367,0.01937009,-0.00720093,0.12512898,-0.08061745,0.01333684,-
 0.14874906,0.03867024,-0.00139657,-0.00143677,0.00004302,0.00085109,0.
 00187502,-0.00020717,-0.00501570,0.00016079,-0.00087088,0.00066755,0.0
 0010907,0.00017278,-0.06165934,-0.01382766,-0.00798141,-0.27844563,-0.
 13642695,-0.00550062,0.00136905,-0.05007903,0.00239443,0.59778937,-0.0
 0098132,-0.00027873,-0.00011692,0.00156970,0.00016929,0.00023530,0.005
 53636,-0.00114332,0.00104606,0.00001478,-0.00037885,-0.00002241,0.0052
 6348,0.00872211,0.00137487,-0.09225162,-0.17751402,0.00757128,-0.06491
 209,-0.07965354,0.00820481,0.08602410,0.36622995,-0.00003215,-0.000186
 02,-0.00015573,-0.00016191,0.00026670,0.00021220,-0.00150765,0.0002496
 5,0.00100970,0.00015417,0.,-0.00044209,-0.01036587,-0.00137015,0.00889
 913,-0.01484213,0.00073930,-0.06123376,0.00604074,0.01072049,0.0289330
 5,0.05384939,-0.03574415,0.08732342,0.00051013,0.00055791,0.00005543,-
 0.00033387,-0.00066966,0.00000472,0.00042255,-0.00014285,0.00007152,-0
 .00023362,0.00005295,-0.00005792,0.00294467,-0.00219058,0.00084909,-0.
 06984837,-0.00468418,-0.01107269,0.00431072,0.01534963,-0.00164306,-0.
 17089538,0.03109112,-0.02305016,0.51704239,-0.00005314,-0.00005018,0.0
 0000291,0.00013083,0.00023904,-0.00005075,-0.00122530,0.00049091,-0.00
 020087,0.00004461,0.00004609,-0.00004533,-0.00489076,-0.00178439,0.000
 27097,-0.02095743,0.01949661,-0.00640282,-0.00306578,-0.00626528,-0.00
 021030,0.06576328,-0.10872498,0.02035211,0.09846331,0.60342458,0.00011
 200,0.00007891,-0.00018280,-0.00009505,-0.00009995,0.00017069,0.000076
 31,-0.00003718,-0.00017663,0.00000076,-0.00004092,-0.00037864,-0.00031
 243,0.00081394,0.00725456,-0.00945273,-0.00780434,0.00109581,-0.000457
 60,0.00347192,-0.00579287,-0.02739083,0.01705820,-0.07047836,0.0107316
 1,-0.02367102,0.56564004,-0.00009874,-0.00015842,-0.00000002,0.0000380
 2,0.00015478,-0.00001596,-0.00018245,0.00010620,-0.00001178,0.00004064
 ,-0.00000299,0.00011794,-0.00055282,-0.00036280,-0.00164629,0.00363296
 ,0.00707194,0.00190116,-0.00020148,-0.00247620,0.00109222,-0.03391007,
 0.02311262,0.02936320,-0.08916550,0.00726794,0.02691959,0.58674783,0.0
 0007419,0.00003642,-0.00003852,-0.00005721,-0.00004548,0.00006521,0.00
 006265,0.00001198,0.00000595,-0.00000907,0.00000294,-0.00004451,0.0004
 5344,0.00003307,0.00078519,-0.00208221,0.00023884,0.00022840,0.0014411
 3,0.00030375,-0.00162238,0.01708071,-0.00806027,-0.01176402,0.01020313
 ,-0.10862920,-0.04445657,0.01865240,0.58409686,-0.00004728,-0.00007609
 ,0.00000796,0.00001130,0.00005125,-0.00002771,-0.00014563,0.00009753,-
 0.00000365,0.00002106,-0.00000322,0.00005125,0.00008484,-0.00024960,-0
 .00068340,0.00187275,0.00495647,0.00037579,0.00093208,-0.00222117,-0.0
 0030151,-0.00613625,0.00108504,0.00989403,0.03878220,-0.04887603,-0.18
 586741,0.03256342,-0.03464726,0.53742657,-0.00007442,-0.00008647,0.000
 00361,0.00002524,0.00009120,-0.00000956,-0.00035611,0.00015077,-0.0000
 5098,0.00002685,-0.00001031,-0.00001993,-0.00129194,-0.00040987,0.0001
 7244,-0.00181604,0.00508220,-0.00308321,0.00069465,-0.00088094,0.00035
 970,-0.03719035,-0.02157095,-0.00991000,-0.13357606,-0.11936272,-0.044
 72243,0.00993275,0.01108808,0.00543261,0.16342591,-0.00002638,-0.00001
 492,0.00001779,0.00002284,0.00000368,-0.00001932,0.00015404,-0.0001387
 8,0.00003578,-0.00000738,-0.00001115,0.00002641,0.00045920,0.00053238,
 -0.00042796,0.00350313,-0.00315528,0.00159798,-0.00149795,0.00153294,-
 0.00063593,0.01960387,0.01168122,0.00690496,-0.13347147,-0.22162752,-0
 .06288986,-0.00728800,-0.00985364,-0.00343620,0.12882473,0.23407985,0.
 00000808,0.00000397,0.00000057,-0.00000980,-0.00000670,-0.00000282,-0.
 00008097,0.00001439,-0.00001341,-0.00000055,-0.00000793,-0.00001426,-0
 .00037398,-0.00000263,0.00019253,0.00053744,0.00304725,-0.00061419,0.0
 0137472,-0.00081494,0.00075172,-0.00841074,-0.00499158,-0.00101345,-0.
 04538698,-0.05906616,-0.07707326,-0.01546792,-0.02480737,-0.00986245,0
 .05075083,0.06859178,0.08075056,-0.00001412,-0.00004338,0.00000243,-0.
 00002074,0.00002181,-0.00000395,-0.00005950,0.00008659,-0.00008294,0.0
 0005363,0.00000124,-0.00006249,-0.00023351,-0.00018418,0.00114342,0.00
 342313,0.00718990,-0.00208502,-0.00079536,-0.00335907,0.00009863,-0.01
 513049,0.02843352,-0.03011656,-0.05534577,-0.03081198,0.03105334,0.000
 34007,-0.00875863,0.01016449,-0.00000035,-0.01204104,0.01508143,0.0677
 3196,0.00008162,0.00007933,-0.00002712,-0.00002622,-0.00004242,0.00003
 537,-0.00001700,-0.00002174,-0.00004277,-0.00001586,0.00000978,-0.0000
 0071,0.00037354,-0.00014650,0.00037596,-0.00387616,-0.00133526,-0.0000
 8672,-0.00109951,0.00071458,-0.00115194,0.00979978,-0.01204492,0.01112
 882,-0.02157688,-0.17000808,0.13470078,0.00174391,0.01152641,-0.015186
 31,-0.00330023,-0.01430441,0.01904180,0.01736480,0.18565162,0.00002351
 ,0.00002364,0.00000257,-0.00002090,-0.00001161,-0.00000760,-0.00000415
 ,-0.00000884,0.00004836,0.00000131,0.00001456,-0.00000498,0.00003905,-
 0.00033867,-0.00017163,0.00125653,0.00423558,0.00037206,0.00178982,-0.
 00206909,0.00061417,-0.00501988,0.00483516,-0.00302860,0.02201227,0.13
 226331,-0.20372805,0.00531604,0.01787861,-0.02151556,-0.00077115,-0.00
 790611,0.00897306,-0.02610075,-0.14668952,0.21999963,-0.00005181,-0.00
 006499,0.00002030,0.00003208,0.00006496,-0.00002385,-0.00002379,0.0000
 1665,-0.00000585,0.00002221,-0.00001486,0.00001185,-0.00024270,0.00007
 527,-0.00028714,0.00192056,0.00057392,-0.00022803,-0.00039770,-0.00025
 749,0.00051727,-0.00065569,0.00045325,0.00287348,-0.01143379,0.0030568
 0,-0.00551715,-0.27962889,0.09021440,-0.04663391,0.00039252,0.00021500
 ,0.00006863,0.00004427,-0.00036209,0.00037465,0.30470941,0.00002602,0.
 00003066,0.00000460,-0.00000392,-0.00001933,-0.00000769,0.00001444,-0.
 00001002,0.00001464,-0.00001121,0.00000241,-0.00000654,0.00015761,0.00
 002780,0.00003412,-0.00116029,-0.00218948,-0.00026221,-0.00029761,0.00
 096243,0.00034838,0.00343492,-0.00049093,-0.00328520,0.01328864,-0.005
 46845,0.00512663,0.08914765,-0.08226209,0.01719718,-0.00049183,-0.0001
 9299,0.00039024,-0.00015175,0.00043321,0.00015613,-0.10050958,0.086922
 96,0.00001843,0.00003758,0.00001192,-0.00000216,-0.00002292,-0.0000101
 6,0.00009261,-0.00005421,0.00000670,0.00000013,-0.00000253,-0.00003469
 ,0.00016732,0.00016181,0.00044565,-0.00102733,-0.00245480,-0.00055275,
 -0.00012439,0.00105554,-0.00015374,0.00602198,-0.00324415,-0.00478729,
 0.02640078,-0.00954988,0.00659433,-0.04898874,0.01867161,-0.05920234,-
 0.00077026,0.00004551,0.00116186,-0.00036130,0.00116086,0.00060918,0.0
 5115534,-0.01837274,0.06184771,0.00002255,0.00001706,-0.00002561,-0.00
 000830,-0.00003177,0.00002407,0.00001899,0.00000905,0.00000150,-0.0000
 2108,0.00000463,0.00001088,0.00003748,0.00002339,-0.00002182,-0.001111
 44,-0.00147504,0.00043939,-0.00029442,0.00086833,0.00006833,0.00191853
 ,-0.00084831,-0.00105331,-0.00212389,-0.00742112,0.01229577,-0.0504670
 7,-0.01230790,0.01049012,0.00013289,0.00007294,-0.00090473,-0.00021893
 ,0.00125232,0.00203069,0.00263300,0.02134657,-0.02428056,0.05016702,-0
 .00002633,-0.00003651,-0.00002473,0.00001374,0.00001428,0.00001767,-0.
 00000723,0.00002247,-0.00000172,0.00000218,-0.00000304,0.00001601,-0.0
 0011448,0.00008765,-0.00016892,0.00054492,-0.00011192,0.00035547,-0.00
 047516,0.00020031,0.00026451,-0.00245129,0.00080932,0.00069495,0.00324
 893,0.01078847,-0.01641781,-0.01234710,-0.17535577,0.13884943,-0.00041
 471,0.00100033,0.00066265,0.00177694,-0.00108405,-0.00300432,-0.002246
 40,-0.00798805,0.00818165,0.01190735,0.18747323,0.00000663,0.00000880,
 0.00001478,-0.00000420,-0.00000785,-0.00001453,0.00003194,-0.00001136,
 0.00000426,0.00000210,0.00000758,-0.00000352,0.00009921,-0.00003758,-0
 .00006100,0.00014584,0.00047525,-0.00014162,-0.00004244,-0.00034208,0.
 00014502,-0.00157778,0.00027039,0.00307011,0.00215786,0.02088555,-0.02
 590643,0.01229052,0.13530203,-0.19965221,-0.00041780,0.00004815,0.0009
 5754,0.00182357,-0.00361219,-0.00317010,0.00113963,0.00338773,-0.00399
 020,-0.01497587,-0.14897170,0.22097088,0.00005441,0.00006125,-0.000013
 72,-0.00003462,-0.00005969,0.00003343,0.00001989,-0.00001713,-0.000022
 04,-0.00002138,0.00001192,-0.00000844,0.00018720,-0.00009612,0.0001837
 8,-0.00113322,0.00104177,0.00006963,-0.00072396,-0.00058068,0.00065823
 ,0.00170361,-0.00093464,-0.00124125,0.00772578,0.01306144,0.00675885,-
 0.14652525,-0.12605513,-0.04739180,-0.00032555,0.00147648,0.00281455,0
 .00022572,-0.00034202,-0.00092703,-0.01731968,-0.02478963,-0.00830184,
 -0.00068533,0.00058865,-0.00067921,0.15685238,-0.00003409,-0.00003002,
 0.00003954,0.00002949,0.00005205,-0.00004402,-0.00003047,0.00001472,0.
 00001190,0.00001467,-0.00001545,0.00000265,-0.00005963,0.00005704,-0.0
 0025634,0.00088603,-0.00157036,-0.00057633,-0.00080171,0.00077449,0.00
 085978,0.00037017,0.00067768,0.00129254,-0.00952000,-0.01192762,-0.005
 83276,-0.12462193,-0.21204383,-0.05754102,0.00129105,0.00046829,-0.002
 05477,0.00047524,0.00057243,0.00062117,0.00878514,0.01024185,0.0043866
 7,-0.01341749,-0.01581672,-0.00740270,0.13663353,0.22854544,-0.0000417
 1,-0.00005536,-0.00002566,0.00002658,0.00002383,0.00002450,0.00002783,
 0.00002114,0.00001491,0.00000653,-0.00001292,0.00002216,-0.00005318,0.
 00022385,-0.00032764,0.00043818,-0.00284535,0.00051863,-0.00071477,0.0
 0174878,0.00001540,0.00061397,0.00243810,0.00179763,-0.01985468,-0.025
 70168,-0.01117099,-0.04343337,-0.05555638,-0.07063933,0.00303613,-0.00
 195297,-0.00419400,-0.00055429,0.00035370,0.00100748,-0.00346524,-0.00
 472528,-0.00194618,0.01590115,0.01954685,0.00777704,0.04806687,0.06649
 369,0.07712605\\0.00383779,0.04313562,-0.00656126,0.01124057,-0.011476
 11,0.00341612,-0.03510912,-0.03697764,0.00130755,0.00164039,0.00018850
 ,0.00018550,0.02188383,0.00406802,0.00241291,-0.03251541,0.04170579,-0
 .01142163,0.00316131,-0.05019720,0.00870113,0.00699015,0.01333807,-0.0
 0117727,0.01697779,-0.00129922,0.00396441,0.00035454,-0.00016678,-0.00
 014569,0.00053772,0.00049649,0.00032890,0.00017201,-0.00129029,0.00112
 415,0.00127971,-0.00079206,-0.00023701,0.00004628,0.00067641,-0.001016
 43,-0.00049756,-0.00140960,-0.00088140\\\@


 THE WHOLE OF SCIENCE IS NOTHING MORE THAN A REFINEMENT OF EVERYDAY THINKING.
                                                              -- A. EINSTEIN
 Job cpu time:       0 days  0 hours 18 minutes 26.9 seconds.
 Elapsed time:       0 days  0 hours  0 minutes 46.2 seconds.
 File lengths (MBytes):  RWF=     59 Int=      0 D2E=      0 Chk=      8 Scr=      1
 Normal termination of Gaussian 16 at Fri Jun 20 13:06:00 2025.
