 Entering Gaussian System, Link 0=g16
 Initial command:
 /opt/g16/l1.exe "/home/aayush/scratches/g16/Gau-42868.inp" -scrdir="/home/aayush/scratches/g16/"
 Entering Link 1 = /opt/g16/l1.exe PID=     42871.
  
 Copyright (c) 1988,1990,1992,1993,1995,1998,2003,2009,2016,
            Gaussian, Inc.  All Rights Reserved.
  
 This is part of the Gaussian(R) 16 program.  It is based on
 the Gaussian(R) 09 system (copyright 2009, Gaussian, Inc.),
 the Gaussian(R) 03 system (copyright 2003, Gaussian, Inc.),
 the Gaussian(R) 98 system (copyright 1998, Gaussian, Inc.),
 the Gaussian(R) 94 system (copyright 1995, Gaussian, Inc.),
 the Gaussian 92(TM) system (copyright 1992, Gaussian, Inc.),
 the Gaussian 90(TM) system (copyright 1990, Gaussian, Inc.),
 the Gaussian 88(TM) system (copyright 1988, Gaussian, Inc.),
 the Gaussian 86(TM) system (copyright 1986, Carnegie Mellon
 University), and the Gaussian 82(TM) system (copyright 1983,
 Carnegie Mellon University). Gaussian is a federally registered
 trademark of Gaussian, Inc.
  
 This software contains proprietary and confidential information,
 including trade secrets, belonging to Gaussian, Inc.
  
 This software is provided under written license and may be
 used, copied, transmitted, or stored only in accord with that
 written license.
  
 The following legend is applicable only to US Government
 contracts under FAR:
  
                    RESTRICTED RIGHTS LEGEND
  
 Use, reproduction and disclosure by the US Government is
 subject to restrictions as set forth in subparagraphs (a)
 and (c) of the Commercial Computer Software - Restricted
 Rights clause in FAR 52.227-19.
  
 Gaussian, Inc.
 340 Quinnipiac St., Bldg. 40, Wallingford CT 06492
  
  
 ---------------------------------------------------------------
 Warning -- This program may not be used in any manner that
 competes with the business of Gaussian, Inc. or will provide
 assistance to any competitor of Gaussian, Inc.  The licensee
 of this program is prohibited from giving any competitor of
 Gaussian, Inc. access to this program.  By using this program,
 the user acknowledges that Gaussian, Inc. is engaged in the
 business of creating and licensing software in the field of
 computational chemistry and represents and warrants to the
 licensee that it is not a competitor of Gaussian, Inc. and that
 it will not use this program in any manner prohibited above.
 ---------------------------------------------------------------
  

 Cite this work as:
 Gaussian 16, Revision A.03,
 M. J. Frisch, G. W. Trucks, H. B. Schlegel, G. E. Scuseria, 
 M. A. Robb, J. R. Cheeseman, G. Scalmani, V. Barone, 
 G. A. Petersson, H. Nakatsuji, X. Li, M. Caricato, A. V. Marenich, 
 J. Bloino, B. G. Janesko, R. Gomperts, B. Mennucci, H. P. Hratchian, 
 J. V. Ortiz, A. F. Izmaylov, J. L. Sonnenberg, D. Williams-Young, 
 F. Ding, F. Lipparini, F. Egidi, J. Goings, B. Peng, A. Petrone, 
 T. Henderson, D. Ranasinghe, V. G. Zakrzewski, J. Gao, N. Rega, 
 G. Zheng, W. Liang, M. Hada, M. Ehara, K. Toyota, R. Fukuda, 
 J. Hasegawa, M. Ishida, T. Nakajima, Y. Honda, O. Kitao, H. Nakai, 
 T. Vreven, K. Throssell, J. A. Montgomery, Jr., J. E. Peralta, 
 F. Ogliaro, M. J. Bearpark, J. J. Heyd, E. N. Brothers, K. N. Kudin, 
 V. N. Staroverov, T. A. Keith, R. Kobayashi, J. Normand, 
 K. Raghavachari, A. P. Rendell, J. C. Burant, S. S. Iyengar, 
 J. Tomasi, M. Cossi, J. M. Millam, M. Klene, C. Adamo, R. Cammi, 
 J. W. Ochterski, R. L. Martin, K. Morokuma, O. Farkas, 
 J. B. Foresman, and D. J. Fox, Gaussian, Inc., Wallingford CT, 2016.
 
 ******************************************
 Gaussian 16:  ES64L-G16RevA.03 25-Dec-2016
                20-Jun-2025 
 ******************************************
 %nprocshared=24
 Will use up to   24 processors via shared memory.
 %mem=12GB
 %chk=ethyl_propiolate_ts1.chk
 -------------------
 # freq 6-31+g m062x
 -------------------
 1/10=4,30=1,38=1/1,3;
 2/12=2,17=6,18=5,40=1/2;
 3/5=1,6=6,7=10,11=2,25=1,30=1,71=2,74=-55,140=1/1,2,3;
 4//1;
 5/5=2,38=5,98=1/2;
 8/6=4,10=90,11=11/1;
 11/6=1,8=1,9=11,15=111,16=1/1,2,10;
 10/6=1/2;
 6/7=2,8=2,9=2,10=2,28=1/1;
 7/8=1,10=1,25=1/1,2,3,16;
 1/10=4,30=1/3;
 99//99;
 -------------------
 Title Card Required
 -------------------
 Symbolic Z-matrix:
 Charge =  0 Multiplicity = 2
 O                     3.30906   0.87289   0.11325 
 H                     2.51778   1.406    -0.0816 
 C                     2.28972  -1.0873    0.29649 
 H                     3.25246  -1.49814   0.49235 
 C                     1.15866  -0.73453   0.08743 
 C                    -0.08332  -0.03535  -0.19332 
 O                    -0.11215   1.15201  -0.3905 
 O                    -1.13185  -0.84783  -0.20783 
 C                    -2.41317  -0.2329   -0.46491 
 C                    -2.95894   0.4279    0.78519 
 H                    -3.04019  -1.06023  -0.79153 
 H                    -2.29819   0.48246  -1.27988 
 H                    -3.9588    0.81719   0.58426 
 H                    -3.02687  -0.295     1.59936 
 H                    -2.32261   1.25781   1.09281 
 

 GradGradGradGradGradGradGradGradGradGradGradGradGradGradGradGradGradGrad
 Berny optimization.
 Initialization pass.
 Trust Radius=3.00D-01 FncErr=1.00D-07 GrdErr=1.00D-07 EigMax=2.50D+02 EigMin=1.00D-04
 Number of steps in this run=      2 maximum allowed number of steps=      2.
 GradGradGradGradGradGradGradGradGradGradGradGradGradGradGradGradGradGrad

                          Input orientation:                          
 ---------------------------------------------------------------------
 Center     Atomic      Atomic             Coordinates (Angstroms)
 Number     Number       Type             X           Y           Z
 ---------------------------------------------------------------------
      1          8           0        3.309055    0.872891    0.113249
      2          1           0        2.517780    1.406001   -0.081597
      3          6           0        2.289723   -1.087302    0.296490
      4          1           0        3.252460   -1.498135    0.492349
      5          6           0        1.158662   -0.734528    0.087434
      6          6           0       -0.083315   -0.035350   -0.193323
      7          8           0       -0.112154    1.152012   -0.390504
      8          8           0       -1.131853   -0.847825   -0.207833
      9          6           0       -2.413171   -0.232897   -0.464909
     10          6           0       -2.958937    0.427898    0.785187
     11          1           0       -3.040190   -1.060226   -0.791531
     12          1           0       -2.298193    0.482457   -1.279878
     13          1           0       -3.958795    0.817189    0.584259
     14          1           0       -3.026867   -0.295004    1.599359
     15          1           0       -2.322609    1.257810    1.092812
 ---------------------------------------------------------------------
                    Distance matrix (angstroms):
                    1          2          3          4          5
     1  O    0.000000
     2  H    0.973800   0.000000
     3  C    2.216974   2.532098   0.000000
     4  H    2.401809   3.050111   1.064898   0.000000
     5  C    2.684893   2.541188   1.203101   2.265180   0.000000
     6  C    3.525204   2.975848   2.641558   3.706384   1.452646
     7  O    3.469344   2.660167   3.354922   4.373024   2.324313
     8  O    4.773429   4.291327   3.466825   4.487244   2.312245
     9  C    5.856697   5.210297   4.840139   5.883583   3.648932
    10  C    6.319592   5.630491   5.484805   6.509747   4.335057
    11  H    6.698394   6.121872   5.439898   6.437201   4.302211
    12  H    5.790896   5.048010   5.098829   6.154127   3.911578
    13  H    7.283309   6.537284   6.538645   7.574389   5.370570
    14  H    6.611839   6.038389   5.530943   6.488678   4.471885
    15  H    5.729166   4.983027   5.235197   6.247974   4.135147
                    6          7          8          9         10
     6  C    0.000000
     7  O    1.203969   0.000000
     8  O    1.326559   2.252222   0.000000
     9  C    2.353936   2.686669   1.444299   0.000000
    10  C    3.072667   3.163979   2.439630   1.515668   0.000000
    11  H    3.186116   3.691641   2.006880   1.088259   2.169598
    12  H    2.520796   2.453173   2.068642   1.090470   2.168883
    13  H    4.043612   3.982325   3.375097   2.142986   1.091621
    14  H    3.456245   3.814310   2.676309   2.154456   1.090907
    15  H    2.888052   2.664119   2.746503   2.157986   1.090092
                   11         12         13         14         15
    11  H    0.000000
    12  H    1.780144   0.000000
    13  H    2.502263   2.518859   0.000000
    14  H    2.510398   3.070084   1.770845   0.000000
    15  H    3.072289   2.496282   1.769146   1.778708   0.000000
 Stoichiometry    C5H7O3(2)
 Framework group  C1[X(C5H7O3)]
 Deg. of freedom    39
 Full point group                 C1      NOp   1
 Largest Abelian subgroup         C1      NOp   1
 Largest concise Abelian subgroup C1      NOp   1
                         Standard orientation:                         
 ---------------------------------------------------------------------
 Center     Atomic      Atomic             Coordinates (Angstroms)
 Number     Number       Type             X           Y           Z
 ---------------------------------------------------------------------
      1          8           0        3.384835    0.848148    0.109402
      2          1           0        2.595943    1.386525   -0.080566
      3          6           0        2.356957   -1.109271    0.273563
      4          1           0        3.317838   -1.526131    0.465766
      5          6           0        1.227506   -0.749611    0.067557
      6          6           0       -0.011335   -0.042399   -0.206863
      7          8           0       -0.034962    1.146910   -0.392674
      8          8           0       -1.063378   -0.850143   -0.229464
      9          6           0       -2.341933   -0.227233   -0.481022
     10          6           0       -2.885254    0.423925    0.775181
     11          1           0       -2.972419   -1.048670   -0.815737
     12          1           0       -2.223579    0.495385   -1.289070
     13          1           0       -3.883348    0.819453    0.577692
     14          1           0       -2.956592   -0.306437    1.582374
     15          1           0       -2.245441    1.248087    1.090928
 ---------------------------------------------------------------------
 Rotational constants (GHZ):           5.1630301           0.9469617           0.8587628
 Standard basis: 6-31+G (6D, 7F)
 There are   118 symmetry adapted cartesian basis functions of A   symmetry.
 There are   118 symmetry adapted basis functions of A   symmetry.
   118 basis functions,   236 primitive gaussians,   118 cartesian basis functions
    31 alpha electrons       30 beta electrons
       nuclear repulsion energy       347.9500080112 Hartrees.
 NAtoms=   15 NActive=   15 NUniq=   15 SFac= 1.00D+00 NAtFMM=   60 NAOKFM=F Big=F
 Integral buffers will be    131072 words long.
 Raffenetti 2 integral format.
 Two-electron integral symmetry is turned on.
 One-electron integrals computed using PRISM.
 NBasis=   118 RedAO= T EigKep=  2.33D-06  NBF=   118
 NBsUse=   118 1.00D-06 EigRej= -1.00D+00 NBFU=   118
 ExpMin= 4.38D-02 ExpMax= 5.48D+03 ExpMxC= 8.25D+02 IAcc=3 IRadAn=         5 AccDes= 0.00D+00
 Harris functional with IExCor= 1009 and IRadAn=       5 diagonalized for initial guess.
 HarFok:  IExCor= 1009 AccDes= 0.00D+00 IRadAn=         5 IDoV= 1 UseB2=F ITyADJ=14
 ICtDFT=  3500011 ScaDFX=  1.000000  1.000000  1.000000  1.000000
 FoFCou: FMM=F IPFlag=           0 FMFlag=      100000 FMFlg1=           0
         NFxFlg=           0 DoJE=T BraDBF=F KetDBF=T FulRan=T
         wScrn=  0.000000 ICntrl=       500 IOpCl=  0 I1Cent=   200000004 NGrid=           0
         NMat0=    1 NMatS0=      1 NMatT0=    0 NMatD0=    1 NMtDS0=    0 NMtDT0=    0
 Petite list used in FoFCou.
 Initial guess <Sx>= 0.0000 <Sy>= 0.0000 <Sz>= 0.5000 <S**2>= 0.7500 S= 0.5000
 Requested convergence on RMS density matrix=1.00D-08 within 128 cycles.
 Requested convergence on MAX density matrix=1.00D-06.
 Requested convergence on             energy=1.00D-06.
 No special actions if energy rises.
 Restarting incremental Fock formation.
 SCF Done:  E(UM062X) =  -419.962688159     A.U. after   23 cycles
            NFock= 23  Conv=0.39D-08     -V/T= 2.0049
 <Sx>= 0.0000 <Sy>= 0.0000 <Sz>= 0.5000 <S**2>= 0.7583 S= 0.5042
 <L.S>=  0.00000000000    
 Annihilation of the first spin contaminant:
 S**2 before annihilation     0.7583,   after     0.7500
 DoSCS=F DFT=T ScalE2(SS,OS)=  1.000000  1.000000
 Range of M.O.s used for correlation:     1   118
 NBasis=   118 NAE=    31 NBE=    30 NFC=     0 NFV=     0
 NROrb=    118 NOA=    31 NOB=    30 NVA=    87 NVB=    88

 **** Warning!!: The largest alpha MO coefficient is  0.17986096D+03


 **** Warning!!: The largest beta MO coefficient is  0.18472725D+03

 Symmetrizing basis deriv contribution to polar:
 IMax=3 JMax=2 DiffMx= 0.00D+00
 G2DrvN: will do    16 centers at a time, making    1 passes.
 Calling FoFCou, ICntrl=  3107 FMM=F I1Cent=   0 AccDes= 0.00D+00.
 End of G2Drv F.D. properties file   721 does not exist.
 End of G2Drv F.D. properties file   722 does not exist.
 End of G2Drv F.D. properties file   788 does not exist.
          IDoAtm=111111111111111
          Differentiating once with respect to electric field.
                with respect to dipole field.
          Differentiating once with respect to nuclear coordinates.
 Keep R1 and R2 ints in memory in canonical form, NReq=71861349.
          There are    48 degrees of freedom in the 1st order CPHF.  IDoFFX=6 NUNeed=     3.
     45 vectors produced by pass  0 Test12= 1.11D-14 2.08D-09 XBig12= 1.00D+02 3.51D+00.
 AX will form    45 AO Fock derivatives at one time.
     45 vectors produced by pass  1 Test12= 1.11D-14 2.08D-09 XBig12= 2.31D+01 1.02D+00.
     45 vectors produced by pass  2 Test12= 1.11D-14 2.08D-09 XBig12= 6.58D-01 1.08D-01.
     45 vectors produced by pass  3 Test12= 1.11D-14 2.08D-09 XBig12= 3.77D-03 7.12D-03.
     45 vectors produced by pass  4 Test12= 1.11D-14 2.08D-09 XBig12= 3.37D-05 7.90D-04.
     45 vectors produced by pass  5 Test12= 1.11D-14 2.08D-09 XBig12= 2.45D-07 5.06D-05.
     33 vectors produced by pass  6 Test12= 1.11D-14 2.08D-09 XBig12= 1.12D-09 3.95D-06.
     10 vectors produced by pass  7 Test12= 1.11D-14 2.08D-09 XBig12= 7.13D-12 2.79D-07.
      3 vectors produced by pass  8 Test12= 1.11D-14 2.08D-09 XBig12= 6.75D-14 3.00D-08.
      2 vectors produced by pass  9 Test12= 1.11D-14 2.08D-09 XBig12= 6.84D-16 2.88D-09.
 InvSVY:  IOpt=1 It=  1 EMax= 3.55D-15
 Solved reduced A of dimension   318 with    48 vectors.
 Isotropic polarizability for W=    0.000000       68.49 Bohr**3.
 End of Minotr F.D. properties file   721 does not exist.
 End of Minotr F.D. properties file   722 does not exist.
 End of Minotr F.D. properties file   788 does not exist.

 **********************************************************************

            Population analysis using the SCF density.

 **********************************************************************

 Orbital symmetries:
 Alpha Orbitals:
       Occupied  (A) (A) (A) (A) (A) (A) (A) (A) (A) (A) (A) (A)
                 (A) (A) (A) (A) (A) (A) (A) (A) (A) (A) (A) (A)
                 (A) (A) (A) (A) (A) (A) (A)
       Virtual   (A) (A) (A) (A) (A) (A) (A) (A) (A) (A) (A) (A)
                 (A) (A) (A) (A) (A) (A) (A) (A) (A) (A) (A) (A)
                 (A) (A) (A) (A) (A) (A) (A) (A) (A) (A) (A) (A)
                 (A) (A) (A) (A) (A) (A) (A) (A) (A) (A) (A) (A)
                 (A) (A) (A) (A) (A) (A) (A) (A) (A) (A) (A) (A)
                 (A) (A) (A) (A) (A) (A) (A) (A) (A) (A) (A) (A)
                 (A) (A) (A) (A) (A) (A) (A) (A) (A) (A) (A) (A)
                 (A) (A) (A)
 Beta  Orbitals:
       Occupied  (A) (A) (A) (A) (A) (A) (A) (A) (A) (A) (A) (A)
                 (A) (A) (A) (A) (A) (A) (A) (A) (A) (A) (A) (A)
                 (A) (A) (A) (A) (A) (A)
       Virtual   (A) (A) (A) (A) (A) (A) (A) (A) (A) (A) (A) (A)
                 (A) (A) (A) (A) (A) (A) (A) (A) (A) (A) (A) (A)
                 (A) (A) (A) (A) (A) (A) (A) (A) (A) (A) (A) (A)
                 (A) (A) (A) (A) (A) (A) (A) (A) (A) (A) (A) (A)
                 (A) (A) (A) (A) (A) (A) (A) (A) (A) (A) (A) (A)
                 (A) (A) (A) (A) (A) (A) (A) (A) (A) (A) (A) (A)
                 (A) (A) (A) (A) (A) (A) (A) (A) (A) (A) (A) (A)
                 (A) (A) (A) (A)
 The electronic state is 2-A.
 Alpha  occ. eigenvalues --  -19.71815 -19.68846 -19.67556 -10.74103 -10.62436
 Alpha  occ. eigenvalues --  -10.60072 -10.59270 -10.55332  -1.29194  -1.19823
 Alpha  occ. eigenvalues --   -1.13173  -0.92153  -0.88780  -0.79488  -0.72193
 Alpha  occ. eigenvalues --   -0.65695  -0.62236  -0.59638  -0.57978  -0.54928
 Alpha  occ. eigenvalues --   -0.53587  -0.50493  -0.49370  -0.47825  -0.46159
 Alpha  occ. eigenvalues --   -0.42956  -0.41962  -0.40294  -0.39357  -0.37794
 Alpha  occ. eigenvalues --   -0.35375
 Alpha virt. eigenvalues --   -0.02499   0.01625   0.02885   0.03134   0.03699
 Alpha virt. eigenvalues --    0.04427   0.05365   0.06341   0.06954   0.07891
 Alpha virt. eigenvalues --    0.08433   0.08615   0.09045   0.10971   0.11798
 Alpha virt. eigenvalues --    0.12211   0.14230   0.14739   0.15660   0.16463
 Alpha virt. eigenvalues --    0.17242   0.18295   0.19768   0.20501   0.21204
 Alpha virt. eigenvalues --    0.22159   0.22847   0.24032   0.24389   0.26156
 Alpha virt. eigenvalues --    0.27339   0.27848   0.28691   0.29816   0.29936
 Alpha virt. eigenvalues --    0.31536   0.32302   0.32772   0.34814   0.35951
 Alpha virt. eigenvalues --    0.36944   0.37702   0.39562   0.41946   0.45283
 Alpha virt. eigenvalues --    0.47166   0.56385   0.60737   0.68285   0.69459
 Alpha virt. eigenvalues --    0.70327   0.72631   0.75210   0.75988   0.76754
 Alpha virt. eigenvalues --    0.79028   0.82123   0.84488   0.85415   0.89350
 Alpha virt. eigenvalues --    0.94535   0.97196   1.01043   1.06918   1.08920
 Alpha virt. eigenvalues --    1.10472   1.14543   1.16880   1.18741   1.19982
 Alpha virt. eigenvalues --    1.21681   1.22728   1.23390   1.25708   1.29304
 Alpha virt. eigenvalues --    1.35280   1.38171   1.40065   1.42754   1.45814
 Alpha virt. eigenvalues --    1.48340   1.57071   1.68850   1.72336   1.78709
 Alpha virt. eigenvalues --    1.99458   2.10828
  Beta  occ. eigenvalues --  -19.71807 -19.67537 -19.67236 -10.74116 -10.62434
  Beta  occ. eigenvalues --  -10.60091 -10.59132 -10.55332  -1.29165  -1.19776
  Beta  occ. eigenvalues --   -1.06078  -0.91843  -0.88535  -0.79418  -0.72070
  Beta  occ. eigenvalues --   -0.65662  -0.61970  -0.59577  -0.57905  -0.54875
  Beta  occ. eigenvalues --   -0.50474  -0.50431  -0.47797  -0.46200  -0.42925
  Beta  occ. eigenvalues --   -0.40797  -0.39630  -0.39300  -0.37763  -0.36415
  Beta virt. eigenvalues --   -0.08304  -0.02483   0.01643   0.02995   0.03171
  Beta virt. eigenvalues --    0.03864   0.04548   0.05648   0.06447   0.07199
  Beta virt. eigenvalues --    0.07944   0.08550   0.08647   0.09192   0.10913
  Beta virt. eigenvalues --    0.12150   0.12325   0.14245   0.15029   0.15627
  Beta virt. eigenvalues --    0.16479   0.17478   0.18258   0.19840   0.20594
  Beta virt. eigenvalues --    0.21248   0.22283   0.23291   0.24125   0.24665
  Beta virt. eigenvalues --    0.26242   0.27294   0.27841   0.28715   0.29774
  Beta virt. eigenvalues --    0.29969   0.31663   0.32310   0.32815   0.34894
  Beta virt. eigenvalues --    0.35999   0.37028   0.38079   0.39584   0.41916
  Beta virt. eigenvalues --    0.45299   0.47320   0.56465   0.60795   0.68294
  Beta virt. eigenvalues --    0.69441   0.70367   0.72696   0.75248   0.75972
  Beta virt. eigenvalues --    0.76825   0.79245   0.82583   0.84579   0.85539
  Beta virt. eigenvalues --    0.89655   0.94734   0.97445   1.01406   1.07250
  Beta virt. eigenvalues --    1.08982   1.10500   1.14712   1.17791   1.18899
  Beta virt. eigenvalues --    1.20492   1.22552   1.23940   1.25713   1.27488
  Beta virt. eigenvalues --    1.30855   1.35408   1.38386   1.40915   1.42806
  Beta virt. eigenvalues --    1.45896   1.48430   1.57385   1.70716   1.72721
  Beta virt. eigenvalues --    1.79593   1.99455   2.10817
          Condensed to atoms (all electrons):
               1          2          3          4          5          6
     1  O    8.352230   0.149245  -0.029007  -0.009603   0.130648  -0.147593
     2  H    0.149245   0.415125   0.047140   0.000585  -0.067743   0.032155
     3  C   -0.029007   0.047140  17.114304   0.361293  -4.715972  -7.079985
     4  H   -0.009603   0.000585   0.361293   0.335964  -0.046167   0.013551
     5  C    0.130648  -0.067743  -4.715972  -0.046167  17.651058  -5.415693
     6  C   -0.147593   0.032155  -7.079985   0.013551  -5.415693  18.385082
     7  O    0.014761   0.002317   0.670680  -0.000783   0.330584  -0.989844
     8  O   -0.001947   0.001887   0.002872   0.000227  -1.133952   0.551657
     9  C   -0.000897   0.002109  -0.042991   0.000317  -0.624344   0.412248
    10  C   -0.000330   0.000689  -0.009877  -0.000068  -0.127403  -0.037818
    11  H   -0.000001   0.000000  -0.003350   0.000000  -0.012685   0.029655
    12  H    0.000012  -0.000001   0.013776  -0.000000   0.044144  -0.063833
    13  H   -0.000000  -0.000000  -0.000557   0.000000   0.000580   0.008593
    14  H    0.000001  -0.000000   0.002945  -0.000000   0.012023  -0.008348
    15  H   -0.000002   0.000001   0.000457   0.000000  -0.011093   0.004869
               7          8          9         10         11         12
     1  O    0.014761  -0.001947  -0.000897  -0.000330  -0.000001   0.000012
     2  H    0.002317   0.001887   0.002109   0.000689   0.000000  -0.000001
     3  C    0.670680   0.002872  -0.042991  -0.009877  -0.003350   0.013776
     4  H   -0.000783   0.000227   0.000317  -0.000068   0.000000  -0.000000
     5  C    0.330584  -1.133952  -0.624344  -0.127403  -0.012685   0.044144
     6  C   -0.989844   0.551657   0.412248  -0.037818   0.029655  -0.063833
     7  O    8.686430  -0.262909  -0.027676  -0.031370  -0.000618   0.003325
     8  O   -0.262909   9.110609   0.018209   0.029961  -0.071272  -0.030840
     9  C   -0.027676   0.018209   5.886887  -0.070640   0.429281   0.413170
    10  C   -0.031370   0.029961  -0.070640   5.736153  -0.057352  -0.069763
    11  H   -0.000618  -0.071272   0.429281  -0.057352   0.496426  -0.031844
    12  H    0.003325  -0.030840   0.413170  -0.069763  -0.031844   0.487625
    13  H   -0.000355   0.007031  -0.071968   0.399607  -0.000827  -0.000796
    14  H   -0.000258  -0.001693  -0.054099   0.392446  -0.004493   0.003760
    15  H    0.002261  -0.008845  -0.045943   0.405478   0.003559  -0.004646
              13         14         15
     1  O   -0.000000   0.000001  -0.000002
     2  H   -0.000000  -0.000000   0.000001
     3  C   -0.000557   0.002945   0.000457
     4  H    0.000000  -0.000000   0.000000
     5  C    0.000580   0.012023  -0.011093
     6  C    0.008593  -0.008348   0.004869
     7  O   -0.000355  -0.000258   0.002261
     8  O    0.007031  -0.001693  -0.008845
     9  C   -0.071968  -0.054099  -0.045943
    10  C    0.399607   0.392446   0.405478
    11  H   -0.000827  -0.004493   0.003559
    12  H   -0.000796   0.003760  -0.004646
    13  H    0.495897  -0.025075  -0.022867
    14  H   -0.025075   0.487510  -0.026912
    15  H   -0.022867  -0.026912   0.468385
          Atomic-Atomic Spin Densities.
               1          2          3          4          5          6
     1  O    0.995410   0.002104  -0.137466  -0.001824   0.108019  -0.052844
     2  H    0.002104  -0.035242  -0.005788  -0.000047  -0.006793   0.014060
     3  C   -0.137466  -0.005788   0.665394   0.023614  -0.558177  -0.093447
     4  H   -0.001824  -0.000047   0.023614   0.005821  -0.021077   0.001453
     5  C    0.108019  -0.006793  -0.558177  -0.021077   0.842517  -0.142313
     6  C   -0.052844   0.014060  -0.093447   0.001453  -0.142313   0.278970
     7  O    0.006432  -0.000875  -0.026771  -0.000066   0.031034  -0.026349
     8  O   -0.000217  -0.000041   0.023095   0.000005  -0.014838  -0.005016
     9  C   -0.000566   0.000087  -0.002352   0.000031  -0.015157   0.012668
    10  C   -0.000031  -0.000057   0.005148  -0.000001  -0.003604  -0.001450
    11  H   -0.000000   0.000000   0.000075   0.000000  -0.000237  -0.000150
    12  H   -0.000002   0.000000   0.000461   0.000000  -0.000076  -0.000560
    13  H    0.000000  -0.000000  -0.000053  -0.000000  -0.000031   0.000243
    14  H   -0.000000   0.000000   0.000103   0.000000  -0.000084  -0.000078
    15  H   -0.000000   0.000000  -0.000023   0.000000   0.000027  -0.000079
               7          8          9         10         11         12
     1  O    0.006432  -0.000217  -0.000566  -0.000031  -0.000000  -0.000002
     2  H   -0.000875  -0.000041   0.000087  -0.000057   0.000000   0.000000
     3  C   -0.026771   0.023095  -0.002352   0.005148   0.000075   0.000461
     4  H   -0.000066   0.000005   0.000031  -0.000001   0.000000   0.000000
     5  C    0.031034  -0.014838  -0.015157  -0.003604  -0.000237  -0.000076
     6  C   -0.026349  -0.005016   0.012668  -0.001450  -0.000150  -0.000560
     7  O    0.023787  -0.001309  -0.000995  -0.000227  -0.000002  -0.000048
     8  O   -0.001309  -0.000769   0.001956  -0.000587  -0.000037   0.000334
     9  C   -0.000995   0.001956   0.000870   0.003496   0.000210  -0.000110
    10  C   -0.000227  -0.000587   0.003496  -0.002602   0.000065   0.000057
    11  H   -0.000002  -0.000037   0.000210   0.000065   0.000075   0.000012
    12  H   -0.000048   0.000334  -0.000110   0.000057   0.000012  -0.000085
    13  H   -0.000014  -0.000051  -0.000182   0.000059   0.000001  -0.000005
    14  H   -0.000003   0.000049  -0.000002   0.000016   0.000001  -0.000000
    15  H    0.000013   0.000028  -0.000072   0.000116   0.000001   0.000003
              13         14         15
     1  O    0.000000  -0.000000  -0.000000
     2  H   -0.000000   0.000000   0.000000
     3  C   -0.000053   0.000103  -0.000023
     4  H   -0.000000   0.000000   0.000000
     5  C   -0.000031  -0.000084   0.000027
     6  C    0.000243  -0.000078  -0.000079
     7  O   -0.000014  -0.000003   0.000013
     8  O   -0.000051   0.000049   0.000028
     9  C   -0.000182  -0.000002  -0.000072
    10  C    0.000059   0.000016   0.000116
    11  H    0.000001   0.000001   0.000001
    12  H   -0.000005  -0.000000   0.000003
    13  H    0.000093  -0.000011  -0.000005
    14  H   -0.000011   0.000015   0.000001
    15  H   -0.000005   0.000001  -0.000004
 Mulliken charges and spin densities:
               1          2
     1  O   -0.457516   0.919015
     2  H    0.416493  -0.032593
     3  C   -0.331729  -0.106189
     4  H    0.344684   0.007909
     5  C   -0.013984   0.219211
     6  C    0.305302  -0.014891
     7  O   -0.396543   0.004607
     8  O   -0.210993   0.002604
     9  C   -0.223662  -0.000119
    10  C   -0.559712   0.000399
    11  H    0.223520   0.000015
    12  H    0.235911  -0.000021
    13  H    0.210737   0.000043
    14  H    0.222195   0.000006
    15  H    0.235298   0.000004
 Sum of Mulliken charges =  -0.00000   1.00000
 Mulliken charges and spin densities with hydrogens summed into heavy atoms:
               1          2
     1  O   -0.041024   0.886422
     3  C    0.012955  -0.098280
     5  C   -0.013984   0.219211
     6  C    0.305302  -0.014891
     7  O   -0.396543   0.004607
     8  O   -0.210993   0.002604
     9  C    0.235769  -0.000125
    10  C    0.108519   0.000453
 APT charges:
               1
     1  O   -0.257247
     2  H    0.299929
     3  C   -0.243574
     4  H    0.267497
     5  C   -0.331763
     6  C    1.473387
     7  O   -0.768368
     8  O   -0.965797
     9  C    0.510598
    10  C   -0.060073
    11  H   -0.000927
    12  H   -0.003018
    13  H    0.018694
    14  H    0.021333
    15  H    0.039330
 Sum of APT charges =   0.00000
 APT charges with hydrogens summed into heavy atoms:
               1
     1  O    0.042682
     3  C    0.023922
     5  C   -0.331763
     6  C    1.473387
     7  O   -0.768368
     8  O   -0.965797
     9  C    0.506653
    10  C    0.019284
 Electronic spatial extent (au):  <R**2>=           1329.1096
 Charge=             -0.0000 electrons
 Dipole moment (field-independent basis, Debye):
    X=             -2.8695    Y=             -0.9826    Z=              0.0101  Tot=              3.0331
 Quadrupole moment (field-independent basis, Debye-Ang):
   XX=            -45.1886   YY=            -49.3542   ZZ=            -47.9574
   XY=             -4.4281   XZ=              1.0592   YZ=             -0.1131
 Traceless Quadrupole moment (field-independent basis, Debye-Ang):
   XX=              2.3115   YY=             -1.8541   ZZ=             -0.4574
   XY=             -4.4281   XZ=              1.0592   YZ=             -0.1131
 Octapole moment (field-independent basis, Debye-Ang**2):
  XXX=            -44.9131  YYY=              7.3750  ZZZ=             -3.5693  XYY=             12.9454
  XXY=            -17.6395  XXZ=             -1.6042  XZZ=             -4.0981  YZZ=              1.2225
  YYZ=              1.3380  XYZ=             -4.6361
 Hexadecapole moment (field-independent basis, Debye-Ang**3):
 XXXX=          -1421.9614 YYYY=           -237.2435 ZZZZ=           -114.9704 XXXY=            -69.1050
 XXXZ=             19.1268 YYYX=             19.1266 YYYZ=             -0.4657 ZZZX=              2.2369
 ZZZY=             -1.9243 XXYY=           -227.7596 XXZZ=           -254.8841 YYZZ=            -59.6807
 XXYZ=            -13.7174 YYXZ=              3.3308 ZZXY=              3.8287
 N-N= 3.479500080112D+02 E-N=-1.678356048464D+03  KE= 4.179032710407D+02
  Exact polarizability:  94.937   0.005  64.192   3.744  -2.698  46.343
 Approx polarizability:  97.296  -3.671  77.619   6.975  -5.533  48.669
                          Isotropic Fermi Contact Couplings
        Atom                 a.u.       MegaHertz       Gauss      10(-4) cm-1
     1  O(17)              0.13100     -79.41283     -28.33647     -26.48927
     2  H(1)              -0.01563     -69.88352     -24.93618     -23.31063
     3  C(13)              0.01106      12.42890       4.43494       4.14583
     4  H(1)               0.00493      22.04176       7.86505       7.35234
     5  C(13)              0.01912      21.49503       7.66996       7.16997
     6  C(13)             -0.00667      -7.49754      -2.67531      -2.50091
     7  O(17)              0.00223      -1.35453      -0.48333      -0.45182
     8  O(17)              0.00701      -4.25242      -1.51737      -1.41846
     9  C(13)              0.00081       0.91149       0.32524       0.30404
    10  C(13)             -0.00001      -0.01600      -0.00571      -0.00534
    11  H(1)               0.00001       0.04720       0.01684       0.01575
    12  H(1)              -0.00000      -0.02208      -0.00788      -0.00736
    13  H(1)               0.00002       0.08389       0.02993       0.02798
    14  H(1)               0.00001       0.02530       0.00903       0.00844
    15  H(1)              -0.00000      -0.01779      -0.00635      -0.00593
 --------------------------------------------------------
       Center         ----  Spin Dipole Couplings  ----
                      3XX-RR        3YY-RR        3ZZ-RR
 --------------------------------------------------------
     1   Atom        0.050524      1.572723     -1.623247
     2   Atom        0.086280      0.019837     -0.106117
     3   Atom        0.021556      0.004765     -0.026321
     4   Atom       -0.011206      0.019262     -0.008056
     5   Atom       -0.032988      0.114717     -0.081730
     6   Atom        0.008595     -0.001425     -0.007169
     7   Atom        0.013340     -0.008418     -0.004923
     8   Atom        0.008468     -0.004625     -0.003843
     9   Atom        0.003071     -0.001469     -0.001603
    10   Atom        0.001396     -0.000656     -0.000740
    11   Atom        0.001252     -0.000549     -0.000703
    12   Atom        0.001582     -0.000821     -0.000761
    13   Atom        0.000897     -0.000432     -0.000465
    14   Atom        0.001130     -0.000628     -0.000502
    15   Atom        0.001580     -0.000747     -0.000833
 --------------------------------------------------------
                        XY            XZ            YZ
 --------------------------------------------------------
     1   Atom        2.326568     -0.135933     -0.186661
     2   Atom       -0.097388      0.042542     -0.034449
     3   Atom       -0.011418      0.008474     -0.006483
     4   Atom       -0.001865     -0.000048     -0.004549
     5   Atom        0.133292     -0.013936     -0.012336
     6   Atom        0.000553      0.002036     -0.000869
     7   Atom       -0.020800      0.005815     -0.002395
     8   Atom       -0.002469      0.002023     -0.000341
     9   Atom       -0.000282      0.000516     -0.000032
    10   Atom       -0.000157     -0.000352      0.000056
    11   Atom        0.000424      0.000370      0.000094
    12   Atom       -0.000157      0.000819     -0.000182
    13   Atom       -0.000119     -0.000113      0.000019
    14   Atom        0.000135     -0.000533     -0.000022
    15   Atom       -0.000473     -0.000574      0.000143
 --------------------------------------------------------


 ---------------------------------------------------------------------------------
              Anisotropic Spin Dipole Couplings in Principal Axis System
 ---------------------------------------------------------------------------------

       Atom             a.u.   MegaHertz   Gauss  10(-4) cm-1        Axes

              Baa    -1.6364   118.407    42.251    39.496  0.7970 -0.5655  0.2123
     1 O(17)  Bbb    -1.6340   118.238    42.190    39.440 -0.1450  0.1620  0.9761
              Bcc     3.2704  -236.645   -84.441   -78.936  0.5863  0.8087 -0.0471
 
              Baa    -0.1172   -62.536   -22.314   -20.860 -0.1317  0.1526  0.9795
     2 H(1)   Bbb    -0.0497   -26.512    -9.460    -8.843  0.5911  0.8053 -0.0459
              Bcc     0.1669    89.048    31.774    29.703  0.7957 -0.5729  0.1963
 
              Baa    -0.0284    -3.816    -1.361    -1.273 -0.1329  0.1457  0.9804
     3 C(13)  Bbb    -0.0009    -0.118    -0.042    -0.039  0.4724  0.8789 -0.0666
              Bcc     0.0293     3.934     1.404     1.312  0.8713 -0.4543  0.1856
 
              Baa    -0.0114    -6.061    -2.163    -2.022  0.9894  0.0784  0.1224
     4 H(1)   Bbb    -0.0087    -4.667    -1.665    -1.557 -0.1331  0.1502  0.9797
              Bcc     0.0201    10.728     3.828     3.579 -0.0584  0.9855 -0.1591
 
              Baa    -0.1126   -15.113    -5.393    -5.041  0.8516 -0.4890  0.1889
     5 C(13)  Bbb    -0.0818   -10.971    -3.915    -3.660 -0.1310  0.1504  0.9799
              Bcc     0.1944    26.084     9.308     8.701  0.5076  0.8592 -0.0640
 
              Baa    -0.0076    -1.016    -0.362    -0.339 -0.1286  0.1503  0.9802
     6 C(13)  Bbb    -0.0013    -0.175    -0.062    -0.058 -0.0234  0.9877 -0.1545
              Bcc     0.0089     1.191     0.425     0.397  0.9914  0.0428  0.1235
 
              Baa    -0.0211     1.525     0.544     0.509  0.5240  0.8494 -0.0627
     7 O(17)  Bbb    -0.0061     0.439     0.157     0.146 -0.1300  0.1526  0.9797
              Bcc     0.0271    -1.964    -0.701    -0.655  0.8417 -0.5052  0.1904
 
              Baa    -0.0051     0.367     0.131     0.123  0.1835  0.9826 -0.0291
     8 O(17)  Bbb    -0.0042     0.301     0.108     0.100 -0.1470  0.0567  0.9875
              Bcc     0.0092    -0.669    -0.239    -0.223  0.9720 -0.1769  0.1549
 
              Baa    -0.0017    -0.223    -0.079    -0.074 -0.1078  0.0097  0.9941
     9 C(13)  Bbb    -0.0015    -0.199    -0.071    -0.067  0.0620  0.9981 -0.0030
              Bcc     0.0031     0.422     0.151     0.141  0.9922 -0.0613  0.1082
 
              Baa    -0.0008    -0.108    -0.038    -0.036  0.1387 -0.2192  0.9658
    10 C(13)  Bbb    -0.0007    -0.089    -0.032    -0.030  0.1093  0.9726  0.2050
              Bcc     0.0015     0.197     0.070     0.066  0.9843 -0.0771 -0.1589
 
              Baa    -0.0008    -0.412    -0.147    -0.137 -0.1534 -0.1233  0.9804
    11 H(1)   Bbb    -0.0006    -0.343    -0.123    -0.115 -0.2335  0.9686  0.0853
              Bcc     0.0014     0.755     0.270     0.252  0.9602  0.2158  0.1774
 
              Baa    -0.0011    -0.578    -0.206    -0.193 -0.2370  0.4543  0.8587
    12 H(1)   Bbb    -0.0008    -0.412    -0.147    -0.138  0.2032  0.8875 -0.4135
              Bcc     0.0019     0.990     0.353     0.330  0.9500 -0.0764  0.3027
 
              Baa    -0.0005    -0.254    -0.091    -0.085  0.0570 -0.2563  0.9649
    13 H(1)   Bbb    -0.0004    -0.235    -0.084    -0.078  0.1070  0.9625  0.2493
              Bcc     0.0009     0.489     0.175     0.163  0.9926 -0.0890 -0.0823
 
              Baa    -0.0007    -0.357    -0.128    -0.119  0.2829 -0.4660  0.8383
    14 H(1)   Bbb    -0.0006    -0.335    -0.120    -0.112  0.0734  0.8820  0.4655
              Bcc     0.0013     0.693     0.247     0.231  0.9563  0.0701 -0.2837
 
              Baa    -0.0010    -0.519    -0.185    -0.173  0.1672 -0.2531  0.9529
    15 H(1)   Bbb    -0.0008    -0.444    -0.159    -0.148  0.2360  0.9487  0.2106
              Bcc     0.0018     0.963     0.344     0.321  0.9573 -0.1897 -0.2184
 

 ---------------------------------------------------------------------------------

 Calling FoFJK, ICntrl=    100127 FMM=F ISym2X=0 I1Cent= 0 IOpClX= 1 NMat=1 NMatS=1 NMatT=0.
 Full mass-weighted force constant matrix:
 Low frequencies --- -398.6944 -137.4159 -120.5483  -86.7768  -75.8501  -43.7347
 Low frequencies ---    0.0003    0.0004    0.0006
 ******    4 imaginary frequencies (negative Signs) ****** 
 Diagonal vibrational polarizability:
       60.8663565      39.2661267     276.1649630
 Harmonic frequencies (cm**-1), IR intensities (KM/Mole), Raman scattering
 activities (A**4/AMU), depolarization ratios for plane and unpolarized
 incident light, reduced masses (AMU), force constants (mDyne/A),
 and normal coordinates:
                      1                      2                      3
                      A                      A                      A
 Frequencies --   -396.3847              -122.0998               -89.2580
 Red. masses --      1.0895                 5.3050                 6.4465
 Frc consts  --      0.1009                 0.0466                 0.0303
 IR Inten    --    159.2696                 8.5618                 0.3174
  Atom  AN      X      Y      Z        X      Y      Z        X      Y      Z
     1   8     0.01  -0.01  -0.07     0.27  -0.24   0.11    -0.10   0.10   0.32
     2   1    -0.12   0.16   0.98     0.63   0.26   0.08    -0.18   0.03   0.44
     3   6     0.00   0.00   0.01    -0.03   0.10  -0.05     0.06  -0.07  -0.30
     4   1     0.00   0.00   0.00    -0.10  -0.05  -0.05     0.09  -0.07  -0.48
     5   6    -0.00   0.00   0.01    -0.00   0.20  -0.04     0.03  -0.05  -0.10
     6   6     0.00  -0.00   0.00    -0.05   0.12  -0.03     0.02  -0.04  -0.05
     7   8    -0.00  -0.00   0.00    -0.20   0.10  -0.10     0.06  -0.07  -0.29
     8   8     0.00  -0.00   0.00     0.03  -0.00   0.04    -0.01   0.00   0.20
     9   6     0.00  -0.00  -0.01    -0.04  -0.14   0.04    -0.00  -0.02   0.10
    10   6    -0.00   0.01  -0.01    -0.04  -0.06   0.00    -0.02   0.11   0.02
    11   1     0.00  -0.01   0.00     0.02  -0.22   0.15    -0.00  -0.05   0.17
    12   1     0.00  -0.01  -0.01    -0.14  -0.21  -0.03     0.02  -0.10   0.03
    13   1    -0.00   0.00  -0.02    -0.08  -0.17   0.01    -0.01   0.12  -0.03
    14   1    -0.00   0.01  -0.01     0.06   0.02   0.08    -0.05   0.19   0.09
    15   1    -0.00   0.01  -0.02    -0.10   0.03  -0.11    -0.00   0.12  -0.04
                      4                      5                      6
                      A                      A                      A
 Frequencies --    -30.0076                40.4195               142.4864
 Red. masses --      3.3631                 3.2007                 3.1040
 Frc consts  --      0.0018                 0.0031                 0.0371
 IR Inten    --      7.0074                 3.2686                 7.0574
  Atom  AN      X      Y      Z        X      Y      Z        X      Y      Z
     1   8    -0.00   0.02  -0.01    -0.05   0.03   0.10     0.13  -0.00   0.03
     2   1     0.00  -0.00  -0.09    -0.05   0.03   0.12     0.21   0.12   0.01
     3   6     0.05  -0.00  -0.16    -0.04   0.04   0.11     0.10   0.27  -0.03
     4   1     0.07  -0.01  -0.28    -0.06   0.07   0.27     0.14   0.35  -0.03
     5   6     0.02  -0.01  -0.01    -0.02  -0.01  -0.08    -0.03  -0.09  -0.00
     6   6    -0.02  -0.03   0.10    -0.03  -0.04  -0.12    -0.06  -0.13   0.00
     7   8    -0.08  -0.01   0.24    -0.07  -0.02  -0.02    -0.01  -0.12   0.02
     8   8     0.01  -0.07   0.04    -0.00  -0.06  -0.18    -0.10  -0.07  -0.02
     9   6     0.01  -0.11  -0.03    -0.04  -0.04   0.05    -0.04   0.08  -0.02
    10   6     0.03   0.19  -0.17     0.25   0.10   0.10    -0.01   0.05   0.01
    11   1    -0.01  -0.18   0.18    -0.14  -0.06   0.27    -0.12   0.18  -0.10
    12   1    -0.02  -0.30  -0.20    -0.20  -0.13  -0.05     0.07   0.13   0.05
    13   1    -0.01   0.06  -0.24     0.18   0.04   0.29     0.16   0.44  -0.08
    14   1     0.11   0.40   0.03     0.47   0.21   0.21    -0.38  -0.05  -0.12
    15   1    -0.02   0.32  -0.43     0.29   0.17  -0.17     0.22  -0.21   0.24
                      7                      8                      9
                      A                      A                      A
 Frequencies --    175.4956               191.8343               242.0558
 Red. masses --     11.8386                 1.4078                 4.0843
 Frc consts  --      0.2148                 0.0305                 0.1410
 IR Inten    --      0.9024                 3.4415                 1.4734
  Atom  AN      X      Y      Z        X      Y      Z        X      Y      Z
     1   8     0.54   0.48   0.00    -0.05  -0.00  -0.01     0.01   0.01  -0.01
     2   1    -0.00  -0.29   0.07    -0.04   0.01  -0.01     0.02   0.01  -0.03
     3   6    -0.22  -0.42   0.05    -0.03  -0.07  -0.00    -0.02  -0.01  -0.14
     4   1    -0.13  -0.22   0.07    -0.05  -0.11  -0.02     0.05  -0.07  -0.60
     5   6    -0.06  -0.05  -0.03     0.02   0.07   0.01    -0.09   0.06   0.38
     6   6    -0.07  -0.05  -0.02     0.00   0.03   0.01    -0.06   0.01   0.17
     7   8    -0.07  -0.05   0.00    -0.08   0.03  -0.01    -0.04  -0.03  -0.10
     8   8    -0.08  -0.03  -0.02     0.04  -0.03   0.01    -0.03  -0.02  -0.09
     9   6    -0.08   0.00   0.01     0.04  -0.03  -0.00     0.01   0.05  -0.10
    10   6    -0.05   0.02   0.01     0.07   0.01  -0.01     0.16  -0.04   0.01
    11   1    -0.11   0.02   0.02     0.03  -0.03   0.01    -0.04   0.11  -0.14
    12   1    -0.08  -0.00   0.00     0.05  -0.04  -0.01     0.04   0.10  -0.05
    13   1    -0.01   0.11  -0.01     0.30   0.52  -0.17     0.08  -0.14   0.26
    14   1    -0.13   0.02   0.00    -0.45  -0.08  -0.13     0.42  -0.10  -0.01
    15   1     0.01  -0.03   0.03     0.39  -0.34   0.25     0.15   0.00  -0.08
                     10                     11                     12
                      A                      A                      A
 Frequencies --    310.9711               419.6293               465.0670
 Red. masses --      2.9423                 3.9499                 1.1105
 Frc consts  --      0.1676                 0.4098                 0.1415
 IR Inten    --     25.6236                 3.3483               196.3978
  Atom  AN      X      Y      Z        X      Y      Z        X      Y      Z
     1   8     0.03  -0.00   0.00     0.02   0.01  -0.00    -0.04   0.03  -0.01
     2   1    -0.03  -0.09   0.00    -0.01  -0.03   0.01     0.53   0.84  -0.07
     3   6    -0.01   0.05  -0.03    -0.12   0.07   0.00    -0.03  -0.06   0.00
     4   1     0.01   0.05  -0.14    -0.13   0.13   0.16    -0.01  -0.02  -0.00
     5   6    -0.07  -0.05   0.09    -0.14  -0.08  -0.14    -0.01  -0.02   0.00
     6   6     0.00   0.06   0.01    -0.06   0.04   0.02     0.01  -0.01   0.00
     7   8     0.22   0.06   0.01     0.08   0.05   0.03     0.03  -0.01   0.01
     8   8    -0.01   0.09  -0.10    -0.07   0.07   0.24    -0.01  -0.00  -0.00
     9   6    -0.15  -0.18   0.05    -0.00  -0.05  -0.15    -0.00  -0.00   0.00
    10   6    -0.04  -0.02   0.01     0.20  -0.11  -0.09    -0.00   0.00  -0.00
    11   1    -0.06  -0.36   0.34     0.04  -0.07  -0.18    -0.01   0.00   0.00
    12   1    -0.45  -0.33  -0.14     0.12  -0.08  -0.16    -0.00  -0.00  -0.00
    13   1     0.09   0.27  -0.07     0.18   0.01   0.30     0.00   0.01  -0.00
    14   1    -0.30   0.05   0.04     0.42  -0.22  -0.16    -0.00   0.01   0.00
    15   1     0.17  -0.18   0.01     0.40  -0.23  -0.17     0.00   0.00  -0.00
                     13                     14                     15
                      A                      A                      A
 Frequencies --    565.8463               639.0064               770.9577
 Red. masses --      4.4886                 7.3486                 4.4601
 Frc consts  --      0.8468                 1.7679                 1.5619
 IR Inten    --      1.6817                20.4960                60.8197
  Atom  AN      X      Y      Z        X      Y      Z        X      Y      Z
     1   8    -0.02  -0.01  -0.00    -0.01  -0.01   0.00     0.00   0.00  -0.00
     2   1     0.02   0.05  -0.00    -0.06  -0.08   0.01    -0.00   0.01   0.03
     3   6     0.22  -0.12   0.05    -0.18   0.05  -0.03     0.00  -0.00  -0.06
     4   1     0.19  -0.18   0.10    -0.36  -0.35  -0.01    -0.14   0.07   0.80
     5   6     0.29   0.14  -0.01     0.03   0.52  -0.07     0.02  -0.02  -0.19
     6   6     0.01  -0.05   0.03    -0.11  -0.10  -0.01    -0.06   0.06   0.48
     7   8    -0.03  -0.05   0.01     0.32  -0.09   0.06     0.02  -0.03  -0.12
     8   8    -0.15   0.11   0.05    -0.08  -0.24   0.01     0.01  -0.02  -0.11
     9   6    -0.26   0.03  -0.14    -0.02  -0.02   0.02     0.02   0.01   0.00
    10   6    -0.00  -0.02  -0.01    -0.01   0.02   0.01     0.00   0.01   0.00
    11   1    -0.18  -0.10   0.00    -0.16   0.19  -0.21     0.00  -0.02   0.10
    12   1    -0.33  -0.06  -0.23     0.25   0.10   0.16    -0.06  -0.04  -0.05
    13   1    -0.01   0.17   0.43    -0.01  -0.00  -0.03    -0.00  -0.03  -0.07
    14   1     0.22  -0.14  -0.10    -0.01   0.09   0.07    -0.05  -0.00  -0.01
    15   1     0.26  -0.18  -0.11    -0.02   0.05  -0.06    -0.07   0.04   0.06
                     16                     17                     18
                      A                      A                      A
 Frequencies --    785.0326               816.7810               844.9690
 Red. masses --      1.1446                 1.2540                 1.5901
 Frc consts  --      0.4156                 0.4929                 0.6689
 IR Inten    --     69.4244                 4.8126                19.8530
  Atom  AN      X      Y      Z        X      Y      Z        X      Y      Z
     1   8    -0.01  -0.03   0.00    -0.00  -0.00   0.00    -0.00  -0.00   0.00
     2   1    -0.01  -0.03   0.00    -0.00  -0.01  -0.00    -0.00  -0.00   0.01
     3   6    -0.04  -0.08   0.01    -0.04   0.01   0.00     0.02  -0.03  -0.17
     4   1     0.40   0.90  -0.08    -0.01   0.04  -0.08    -0.12   0.16   0.95
     5   6     0.01   0.05  -0.01    -0.01   0.05  -0.01    -0.02   0.02   0.12
     6   6    -0.01   0.00   0.01     0.01  -0.05  -0.01     0.01  -0.02  -0.09
     7   8     0.01   0.01  -0.00    -0.00  -0.06   0.01    -0.00   0.00   0.02
     8   8    -0.00  -0.01  -0.00     0.00   0.04   0.00    -0.00   0.00   0.02
     9   6    -0.00  -0.00   0.00     0.06   0.07  -0.01     0.00   0.00  -0.00
    10   6    -0.00  -0.00   0.00     0.03   0.02  -0.02     0.00   0.00   0.00
    11   1    -0.00   0.01  -0.03    -0.00  -0.11   0.52    -0.00  -0.00   0.02
    12   1     0.02   0.02   0.02    -0.16  -0.31  -0.37    -0.00  -0.02  -0.02
    13   1     0.00   0.01  -0.01    -0.05  -0.18  -0.02    -0.01  -0.01   0.01
    14   1    -0.00   0.02   0.02     0.02  -0.31  -0.31     0.01  -0.02  -0.02
    15   1     0.01   0.00  -0.02    -0.19   0.02   0.41    -0.00  -0.01   0.03
                     19                     20                     21
                      A                      A                      A
 Frequencies --    900.2500               948.3707              1112.0068
 Red. masses --      3.3707                 2.6478                 4.2156
 Frc consts  --      1.6095                 1.4031                 3.0713
 IR Inten    --     15.4791                 5.3888                 9.3056
  Atom  AN      X      Y      Z        X      Y      Z        X      Y      Z
     1   8    -0.00  -0.00   0.00     0.00  -0.00   0.00    -0.00  -0.00   0.00
     2   1    -0.01  -0.01   0.00    -0.01  -0.02   0.00     0.01   0.01  -0.00
     3   6    -0.06   0.02  -0.01    -0.11   0.04  -0.02     0.07  -0.03   0.01
     4   1    -0.08  -0.00  -0.00    -0.11   0.06  -0.03     0.07  -0.05   0.02
     5   6    -0.01   0.09  -0.01    -0.06   0.04  -0.02     0.04   0.00   0.00
     6   6     0.03  -0.13   0.02     0.13  -0.06   0.03    -0.16   0.00  -0.03
     7   8    -0.04  -0.18   0.02    -0.03  -0.11   0.01     0.02   0.02   0.00
     8   8    -0.05   0.27  -0.03     0.17   0.04  -0.00    -0.17   0.09  -0.03
     9   6     0.08  -0.03   0.10    -0.02  -0.01  -0.12     0.27  -0.21  -0.18
    10   6     0.08  -0.11  -0.05    -0.16   0.08   0.09    -0.04   0.10   0.22
    11   1     0.25  -0.09  -0.09     0.28  -0.21  -0.19     0.26  -0.16  -0.29
    12   1    -0.19   0.23   0.29     0.00  -0.03  -0.13     0.38  -0.26  -0.23
    13   1     0.18  -0.05  -0.47    -0.15   0.35   0.65    -0.06   0.03   0.11
    14   1    -0.15   0.28   0.27     0.17   0.04   0.09    -0.13   0.13   0.25
    15   1     0.06   0.03  -0.36     0.22  -0.13  -0.10    -0.16   0.16   0.34
                     22                     23                     24
                      A                      A                      A
 Frequencies --   1157.6115              1228.8863              1337.1674
 Red. masses --      2.0702                 1.7574                 1.5042
 Frc consts  --      1.6345                 1.5637                 1.5846
 IR Inten    --     21.4204                 2.6736               228.5921
  Atom  AN      X      Y      Z        X      Y      Z        X      Y      Z
     1   8    -0.00  -0.00  -0.00    -0.00  -0.00  -0.00    -0.00  -0.00   0.00
     2   1    -0.00  -0.00   0.00     0.00   0.00  -0.00     0.01   0.02  -0.00
     3   6     0.02  -0.01   0.00     0.02  -0.01   0.00     0.03  -0.01   0.01
     4   1     0.02  -0.02   0.00     0.02  -0.01   0.00     0.04  -0.02   0.01
     5   6     0.01   0.00   0.00     0.01  -0.01   0.00     0.01  -0.01   0.00
     6   6    -0.05   0.00  -0.00    -0.07   0.01  -0.01    -0.17  -0.01  -0.02
     7   8     0.01   0.01  -0.00     0.01   0.03  -0.00     0.02  -0.00   0.00
     8   8    -0.07   0.03  -0.06    -0.03  -0.07   0.01     0.07  -0.01   0.01
     9   6     0.11  -0.03   0.19     0.10   0.16  -0.02    -0.05   0.02   0.02
    10   6    -0.09   0.03  -0.15    -0.07  -0.11   0.02     0.04   0.06  -0.02
    11   1     0.12   0.03   0.06     0.31  -0.16   0.37     0.66  -0.41  -0.23
    12   1     0.27  -0.08   0.18    -0.29  -0.10  -0.31    -0.34   0.26   0.19
    13   1    -0.13   0.18   0.52     0.09   0.26   0.00    -0.02  -0.09   0.00
    14   1     0.38  -0.22  -0.31     0.02   0.25   0.34    -0.01  -0.12  -0.18
    15   1     0.28  -0.28  -0.10     0.15  -0.09  -0.45    -0.05   0.05   0.17
                     25                     26                     27
                      A                      A                      A
 Frequencies --   1381.3729              1446.4730              1457.5235
 Red. masses --      2.1572                 1.4448                 1.2832
 Frc consts  --      2.4252                 1.7810                 1.6061
 IR Inten    --    445.8294                80.7395                17.1023
  Atom  AN      X      Y      Z        X      Y      Z        X      Y      Z
     1   8    -0.00  -0.00  -0.00     0.00   0.00  -0.00     0.00   0.00   0.00
     2   1     0.02   0.02  -0.00    -0.01  -0.01   0.00    -0.00  -0.00  -0.00
     3   6     0.04  -0.02   0.01    -0.02   0.01  -0.00    -0.01   0.00  -0.00
     4   1     0.04  -0.02   0.01    -0.02   0.01  -0.01    -0.01   0.00  -0.00
     5   6     0.01  -0.00   0.00    -0.00   0.00   0.00    -0.00   0.00   0.00
     6   6    -0.22  -0.02  -0.02     0.11  -0.00   0.01     0.04   0.00   0.00
     7   8     0.01  -0.04   0.01    -0.01   0.02  -0.01    -0.00   0.01  -0.00
     8   8     0.15   0.08  -0.01    -0.08  -0.02  -0.02    -0.03  -0.01  -0.01
     9   6    -0.09   0.05   0.03    -0.07   0.05   0.06    -0.04   0.03   0.04
    10   6     0.00  -0.05   0.02     0.01   0.02   0.07     0.07  -0.06  -0.10
    11   1    -0.19   0.11   0.07     0.49  -0.25  -0.30     0.21  -0.09  -0.14
    12   1     0.77  -0.39  -0.23     0.38  -0.35  -0.24     0.16  -0.17  -0.11
    13   1     0.04   0.00  -0.07     0.04  -0.12  -0.31     0.01   0.12   0.51
    14   1    -0.08   0.03   0.08     0.00  -0.21  -0.16    -0.29   0.37   0.27
    15   1     0.01   0.01  -0.17     0.12   0.03  -0.22    -0.37   0.12   0.34
                     28                     29                     30
                      A                      A                      A
 Frequencies --   1528.4792              1537.6201              1545.6337
 Red. masses --      1.0423                 1.0735                 1.0741
 Frc consts  --      1.4347                 1.4953                 1.5118
 IR Inten    --     14.0960                 6.4846                24.9589
  Atom  AN      X      Y      Z        X      Y      Z        X      Y      Z
     1   8    -0.00   0.00  -0.00     0.00  -0.00   0.00     0.00  -0.00   0.00
     2   1     0.00   0.00  -0.00    -0.00  -0.00  -0.00    -0.00  -0.00   0.00
     3   6     0.00  -0.00   0.00    -0.00   0.00  -0.00    -0.00   0.00  -0.00
     4   1     0.00   0.00   0.00    -0.00   0.00  -0.00    -0.00   0.00  -0.00
     5   6    -0.00   0.00  -0.00     0.00   0.00   0.00     0.00  -0.00   0.00
     6   6    -0.00   0.00  -0.00     0.02  -0.01   0.00     0.02  -0.01   0.00
     7   8    -0.00  -0.01   0.00    -0.00   0.01  -0.00    -0.00   0.01  -0.00
     8   8     0.00   0.00   0.00    -0.02  -0.00  -0.01    -0.01  -0.00  -0.01
     9   6    -0.02  -0.01   0.01    -0.02  -0.02  -0.05    -0.04   0.01  -0.04
    10   6    -0.03  -0.04  -0.00     0.02  -0.02   0.02    -0.03   0.01  -0.03
    11   1     0.01   0.02  -0.12     0.07  -0.28   0.49     0.11  -0.23   0.30
    12   1    -0.02  -0.05  -0.03     0.37   0.31   0.32     0.32   0.16   0.15
    13   1     0.26   0.54  -0.29     0.08   0.23   0.12    -0.06  -0.21  -0.23
    14   1     0.58  -0.05   0.03    -0.13  -0.19  -0.17     0.29   0.30   0.27
    15   1    -0.34   0.14   0.23    -0.23   0.27  -0.23     0.23  -0.35   0.41
                     31                     32                     33
                      A                      A                      A
 Frequencies --   1883.4242              2294.0697              3108.2433
 Red. masses --     12.1410                 5.7181                 1.0351
 Frc consts  --     25.3746                17.7302                 5.8922
 IR Inten    --    255.7455                87.8196                12.2312
  Atom  AN      X      Y      Z        X      Y      Z        X      Y      Z
     1   8    -0.00   0.00  -0.00    -0.00  -0.00   0.00    -0.00  -0.00  -0.00
     2   1    -0.00  -0.02   0.00    -0.00  -0.00  -0.00     0.00   0.00   0.00
     3   6     0.06  -0.02   0.01    -0.35   0.12  -0.07     0.00  -0.00   0.00
     4   1     0.10  -0.01   0.02    -0.70   0.26  -0.13    -0.00   0.00  -0.00
     5   6    -0.05  -0.00  -0.01     0.49  -0.18   0.09    -0.00   0.00  -0.00
     6   6     0.02   0.78  -0.12    -0.07   0.06  -0.02     0.00   0.00   0.00
     7   8     0.02  -0.51   0.08    -0.00  -0.01   0.00     0.00  -0.00  -0.00
     8   8    -0.06  -0.06  -0.00    -0.01  -0.00  -0.00    -0.00  -0.00  -0.00
     9   6    -0.01   0.02  -0.01     0.00   0.00  -0.00     0.00   0.00  -0.00
    10   6     0.01  -0.00   0.01    -0.00   0.00   0.00    -0.02   0.02   0.04
    11   1     0.13  -0.13   0.09     0.01   0.00   0.00     0.00   0.01   0.00
    12   1     0.15   0.05   0.02     0.00   0.00   0.00    -0.00  -0.02   0.02
    13   1    -0.01  -0.05  -0.04     0.00  -0.00   0.00     0.56  -0.22   0.12
    14   1    -0.04   0.00   0.00    -0.00  -0.00  -0.00     0.03   0.40  -0.43
    15   1     0.04  -0.00  -0.04     0.00  -0.00  -0.00    -0.31  -0.39  -0.14
                     34                     35                     36
                      A                      A                      A
 Frequencies --   3139.6005              3188.4895              3192.0412
 Red. masses --      1.0601                 1.1002                 1.1027
 Frc consts  --      6.1567                 6.5904                 6.6196
 IR Inten    --     18.7473                13.7429                 4.7734
  Atom  AN      X      Y      Z        X      Y      Z        X      Y      Z
     1   8    -0.00   0.00   0.00    -0.00   0.00   0.00     0.00  -0.00   0.00
     2   1     0.00   0.00  -0.00     0.00   0.00  -0.00     0.00   0.00  -0.00
     3   6     0.00  -0.00   0.00     0.00  -0.00   0.00     0.00   0.00   0.00
     4   1     0.00   0.00   0.00    -0.00   0.00  -0.00    -0.00  -0.00  -0.00
     5   6    -0.00   0.00  -0.00    -0.00   0.00  -0.00    -0.00  -0.00  -0.00
     6   6     0.00   0.00   0.00     0.00   0.00  -0.00    -0.00   0.00  -0.00
     7   8     0.00  -0.00   0.00    -0.00  -0.00  -0.00     0.00  -0.00   0.00
     8   8    -0.00   0.00  -0.00     0.00  -0.00   0.00     0.00  -0.00  -0.00
     9   6    -0.02   0.01  -0.06    -0.02  -0.03  -0.00     0.02   0.05  -0.01
    10   6     0.01  -0.01   0.01    -0.03   0.06  -0.05    -0.07  -0.02  -0.02
    11   1     0.33   0.43   0.16     0.23   0.30   0.12    -0.25  -0.32  -0.13
    12   1    -0.10  -0.55   0.59     0.01   0.08  -0.10    -0.04  -0.26   0.29
    13   1    -0.11   0.04  -0.03     0.53  -0.20   0.10     0.46  -0.19   0.09
    14   1     0.01   0.05  -0.04    -0.05  -0.47   0.51    -0.02  -0.00  -0.01
    15   1    -0.01  -0.02  -0.00    -0.07  -0.06  -0.04     0.37   0.48   0.18
                     37                     38                     39
                      A                      A                      A
 Frequencies --   3213.1536              3530.1941              3771.1284
 Red. masses --      1.1055                 1.1722                 1.0677
 Frc consts  --      6.7246                 8.6067                 8.9460
 IR Inten    --     16.7960                70.1411                 8.7768
  Atom  AN      X      Y      Z        X      Y      Z        X      Y      Z
     1   8     0.00  -0.00  -0.00     0.00  -0.00   0.00    -0.05   0.04  -0.01
     2   1    -0.00   0.00  -0.00    -0.00   0.00  -0.00     0.81  -0.55   0.19
     3   6     0.00  -0.00   0.00    -0.11   0.04  -0.02    -0.00  -0.00  -0.00
     4   1    -0.00   0.00  -0.00     0.89  -0.39   0.18     0.00  -0.00   0.00
     5   6    -0.00   0.00  -0.00     0.03  -0.01   0.01     0.00  -0.00   0.00
     6   6     0.00  -0.00   0.00    -0.00   0.00  -0.00     0.00  -0.00   0.00
     7   8    -0.00   0.00   0.00     0.00   0.00  -0.00     0.00   0.00  -0.00
     8   8     0.00  -0.00   0.00    -0.00  -0.00  -0.00     0.00   0.00  -0.00
     9   6    -0.03  -0.06   0.01    -0.00   0.00  -0.00    -0.00  -0.00   0.00
    10   6    -0.04  -0.05   0.01     0.00   0.00   0.00    -0.00  -0.00   0.00
    11   1     0.34   0.44   0.18     0.00   0.00   0.00    -0.00   0.00  -0.00
    12   1     0.04   0.26  -0.30     0.00  -0.00  -0.00    -0.00   0.00  -0.00
    13   1     0.08  -0.05   0.02     0.00  -0.00  -0.00     0.00  -0.00   0.00
    14   1     0.02   0.27  -0.30    -0.00   0.00  -0.00     0.00   0.00  -0.00
    15   1     0.33   0.43   0.17    -0.00   0.00   0.00     0.00   0.00   0.00

 -------------------
 - Thermochemistry -
 -------------------
 Temperature   298.150 Kelvin.  Pressure   1.00000 Atm.
 Atom     1 has atomic number  8 and mass  15.99491
 Atom     2 has atomic number  1 and mass   1.00783
 Atom     3 has atomic number  6 and mass  12.00000
 Atom     4 has atomic number  1 and mass   1.00783
 Atom     5 has atomic number  6 and mass  12.00000
 Atom     6 has atomic number  6 and mass  12.00000
 Atom     7 has atomic number  8 and mass  15.99491
 Atom     8 has atomic number  8 and mass  15.99491
 Atom     9 has atomic number  6 and mass  12.00000
 Atom    10 has atomic number  6 and mass  12.00000
 Atom    11 has atomic number  1 and mass   1.00783
 Atom    12 has atomic number  1 and mass   1.00783
 Atom    13 has atomic number  1 and mass   1.00783
 Atom    14 has atomic number  1 and mass   1.00783
 Atom    15 has atomic number  1 and mass   1.00783
 Molecular mass:   115.03952 amu.
 Principal axes and moments of inertia in atomic units:
                           1         2         3
     Eigenvalues --   349.550781905.822802101.55968
           X            0.99993  -0.01035  -0.00590
           Y            0.01043   0.99984   0.01419
           Z            0.00575  -0.01425   0.99988
 This molecule is an asymmetric top.
 Rotational symmetry number  1.
 Rotational temperatures (Kelvin)      0.24779     0.04545     0.04121
 Rotational constants (GHZ):           5.16303     0.94696     0.85876
    4 imaginary frequencies ignored.
 Zero-point vibrational energy     294953.0 (Joules/Mol)
                                   70.49546 (Kcal/Mol)
 Warning -- explicit consideration of   9 degrees of freedom as
           vibrations may cause significant error
 Vibrational temperatures:     58.15   205.01   252.50   276.01   348.26
          (Kelvin)            447.42   603.75   669.13   814.13   919.39
                             1109.24  1129.49  1175.17  1215.72  1295.26
                             1364.49  1599.93  1665.54  1768.09  1923.89
                             1987.49  2081.15  2097.05  2199.14  2212.29
                             2223.82  2709.83  3300.65  4472.07  4517.18
                             4587.53  4592.64  4623.01  5079.16  5425.81
 
 Zero-point correction=                           0.112342 (Hartree/Particle)
 Thermal correction to Energy=                    0.120136
 Thermal correction to Enthalpy=                  0.121081
 Thermal correction to Gibbs Free Energy=         0.078391
 Sum of electronic and zero-point Energies=           -419.850346
 Sum of electronic and thermal Energies=              -419.842552
 Sum of electronic and thermal Enthalpies=            -419.841608
 Sum of electronic and thermal Free Energies=         -419.884298
 
                     E (Thermal)             CV                S
                      KCal/Mol        Cal/Mol-Kelvin    Cal/Mol-Kelvin
 Total                   75.387             26.663             89.849
 Electronic               0.000              0.000              1.377
 Translational            0.889              2.981             40.136
 Rotational               0.889              2.981             28.728
 Vibrational             73.609             20.702             19.608
 Vibration     1          0.594              1.981              5.238
 Vibration     2          0.616              1.911              2.770
 Vibration     3          0.627              1.873              2.376
 Vibration     4          0.634              1.851              2.210
 Vibration     5          0.658              1.776              1.788
 Vibration     6          0.700              1.653              1.357
 Vibration     7          0.782              1.428              0.893
 Vibration     8          0.823              1.328              0.751
 Vibration     9          0.922              1.105              0.512
                       Q            Log10(Q)             Ln(Q)
 Total Bot       0.876798D-36        -36.057100        -83.024542
 Total V=0       0.413460D+16         15.616433         35.958166
 Vib (Bot)       0.213419D-49        -49.670768       -114.371170
 Vib (Bot)    1  0.511873D+01          0.709162          1.632906
 Vib (Bot)    2  0.142609D+01          0.154146          0.354935
 Vib (Bot)    3  0.114623D+01          0.059273          0.136482
 Vib (Bot)    4  0.104260D+01          0.018117          0.041715
 Vib (Bot)    5  0.809302D+00         -0.091889         -0.211583
 Vib (Bot)    6  0.607728D+00         -0.216290         -0.498027
 Vib (Bot)    7  0.418557D+00         -0.378245         -0.870942
 Vib (Bot)    8  0.364191D+00         -0.438671         -1.010077
 Vib (Bot)    9  0.273106D+00         -0.563669         -1.297895
 Vib (V=0)       0.100639D+03          2.002766          4.611539
 Vib (V=0)    1  0.564309D+01          0.751517          1.730432
 Vib (V=0)    2  0.201120D+01          0.303455          0.698731
 Vib (V=0)    3  0.175054D+01          0.243172          0.559925
 Vib (V=0)    4  0.165629D+01          0.219137          0.504581
 Vib (V=0)    5  0.145130D+01          0.161757          0.372459
 Vib (V=0)    6  0.128698D+01          0.109571          0.252297
 Vib (V=0)    7  0.115207D+01          0.061477          0.141557
 Vib (V=0)    8  0.111857D+01          0.048665          0.112056
 Vib (V=0)    9  0.106973D+01          0.029272          0.067402
 Electronic      0.200000D+01          0.301030          0.693147
 Translational   0.484981D+08          7.685724         17.697035
 Rotational      0.423558D+06          5.626913         12.956446
 ***** Axes restored to original set *****
 -------------------------------------------------------------------
 Center     Atomic                   Forces (Hartrees/Bohr)
 Number     Number              X              Y              Z
 -------------------------------------------------------------------
      1        8           0.017545012    0.000472146    0.002318653
      2        1          -0.013047571    0.010052092   -0.003442149
      3        6           0.015457912   -0.018952424    0.005224311
      4        1           0.001097715    0.000214869    0.000109747
      5        6          -0.023405115    0.010592067   -0.005055540
      6        6           0.032084822   -0.042144043    0.011499108
      7        8          -0.003939331    0.049201526   -0.008667787
      8        8          -0.007127030   -0.013257064    0.001111915
      9        6          -0.016894454    0.001409982   -0.003923344
     10        6          -0.000336619    0.000184339    0.000158562
     11        1          -0.000525390   -0.000560615   -0.000343229
     12        1          -0.000092784    0.001293800   -0.001107877
     13        1          -0.001287276    0.000781263    0.000220911
     14        1          -0.000040929   -0.000691312    0.001024961
     15        1           0.000511038    0.001403375    0.000871756
 -------------------------------------------------------------------
 Cartesian Forces:  Max     0.049201526 RMS     0.013249103

 GradGradGradGradGradGradGradGradGradGradGradGradGradGradGradGradGradGrad
 Berny optimization.
 Search for a local minimum.
 Step number   1 out of a maximum of    2
 All quantities printed in internal units (Hartrees-Bohrs-Radians)
 Second derivative matrix not updated -- analytic derivatives used.
 ITU=  0
     Eigenvalues ---   -0.01237  -0.00389  -0.00311  -0.00081   0.00019
     Eigenvalues ---    0.00151   0.00509   0.01009   0.01217   0.01696
     Eigenvalues ---    0.01923   0.03298   0.03496   0.04832   0.06463
     Eigenvalues ---    0.07418   0.07723   0.08759   0.10433   0.10620
     Eigenvalues ---    0.12058   0.14927   0.18024   0.19194   0.21001
     Eigenvalues ---    0.29056   0.29683   0.43786   0.49851   0.64605
     Eigenvalues ---    0.74376   0.77937   0.80434   0.88265   0.95373
     Eigenvalues ---    0.96904   0.99554   1.80905   2.80124
 Eigenvalue     1 is  -1.24D-02 should be greater than     0.000000 Eigenvector:
                          Z2        Z1        Z7        Z3        Z4
   1                    0.67728  -0.56350   0.28960   0.13408   0.12745
                          Y2        Z5        Z6        Y1        Z8
   1                    0.12029   0.11377   0.10088  -0.09887  -0.08529
 Eigenvalue     2 is  -3.89D-03 should be greater than     0.000000 Eigenvector:
                          Z7        X2        Z2        X1        Y1
   1                    0.49212  -0.43106  -0.39503  -0.23073   0.21697
                          Y5        Z8        Z1        Y2        Y6
   1                   -0.19032  -0.17836  -0.16703  -0.16255  -0.11891
 Eigenvalue     3 is  -3.11D-03 should be greater than     0.000000 Eigenvector:
                          X2        Z7        Z2        X7        X1
   1                    0.49573   0.38736  -0.35800  -0.25507   0.23615
                          Y1        Z8        Y5        Z15       Y11
   1                   -0.22861  -0.17522   0.16400  -0.16219  -0.14557
 Eigenvalue     4 is  -8.13D-04 should be greater than     0.000000 Eigenvector:
                          Z4        Y14       Z15       Z2        Y12
   1                    0.36914  -0.34830   0.31138  -0.30725   0.28096
                          Z3        Y15       Z1        Z11       Y11
   1                    0.25928  -0.25095  -0.25021  -0.24659   0.17360
 Quadratic step=1.555D+00 exceeds max=3.000D-01 adjusted using Lamda=-3.765D-02.
 Angle between NR and scaled steps=  40.51 degrees.
 Angle between quadratic step and forces=  67.42 degrees.
 Linear search not attempted -- first point.
 B after Tr=     0.004878    0.003295   -0.000204
         Rot=    1.000000    0.000073    0.000056   -0.000352 Ang=   0.04 deg.
 Variable       Old X    -DE/DX   Delta X   Delta X   Delta X     New X
                                 (Linear)    (Quad)   (Total)
    X1        6.25321   0.01755   0.00000   0.09481   0.09839   6.35160
    Y1        1.64952   0.00047   0.00000   0.16251   0.17030   1.81983
    Z1        0.21401   0.00232   0.00000  -0.01530  -0.01506   0.19895
    X2        4.75791  -0.01305   0.00000  -0.03697  -0.03396   4.72395
    Y2        2.65696   0.01005   0.00000   0.02574   0.03233   2.68928
    Z2       -0.15420  -0.00344   0.00000  -0.00996  -0.01003  -0.16422
    X3        4.32695   0.01546   0.00000  -0.04831  -0.04192   4.28503
    Y3       -2.05470  -0.01895   0.00000  -0.19627  -0.18988  -2.24458
    Z3        0.56028   0.00522   0.00000   0.02526   0.02586   0.58615
    X4        6.14626   0.00110   0.00000   0.01510   0.02189   6.16815
    Y4       -2.83106   0.00021   0.00000  -0.05345  -0.04568  -2.87675
    Z4        0.93040   0.00011   0.00000   0.01012   0.01103   0.94143
    X5        2.18955  -0.02341   0.00000   0.01175   0.01759   2.20714
    Y5       -1.38806   0.01059   0.00000   0.00278   0.00765  -1.38041
    Z5        0.16523  -0.00506   0.00000   0.00003   0.00027   0.16550
    X6       -0.15744   0.03208   0.00000   0.03920   0.04418  -0.11326
    Y6       -0.06680  -0.04214   0.00000  -0.01619  -0.01303  -0.07983
    Z6       -0.36533   0.01150   0.00000   0.00770   0.00749  -0.35784
    X7       -0.21194  -0.00394   0.00000  -0.00217   0.00124  -0.21070
    Y7        2.17699   0.04920   0.00000   0.03447   0.03750   2.21449
    Z7       -0.73795  -0.00867   0.00000  -0.00627  -0.00682  -0.74477
    X8       -2.13889  -0.00713   0.00000  -0.00684  -0.00078  -2.13968
    Y8       -1.60216  -0.01326   0.00000  -0.01631  -0.01458  -1.61674
    Z8       -0.39275   0.00111   0.00000  -0.00076  -0.00097  -0.39372
    X9       -4.56023  -0.01689   0.00000  -0.04346  -0.03817  -4.59841
    Y9       -0.44011   0.00141   0.00000   0.00426   0.00418  -0.43593
    Z9       -0.87855  -0.00392   0.00000  -0.01083  -0.01149  -0.89004
   X10       -5.59158  -0.00034   0.00000  -0.01771  -0.01357  -5.60515
   Y10        0.80861   0.00018   0.00000   0.00381   0.00338   0.81199
   Z10        1.48379   0.00016   0.00000   0.00249   0.00154   1.48533
   X11       -5.74513  -0.00053   0.00000  -0.02465  -0.01819  -5.76331
   Y11       -2.00354  -0.00056   0.00000  -0.00976  -0.01074  -2.01428
   Z11       -1.49578  -0.00034   0.00000  -0.00797  -0.00852  -1.50430
   X12       -4.34296  -0.00009   0.00000  -0.01883  -0.01433  -4.35728
   Y12        0.91171   0.00129   0.00000   0.00678   0.00666   0.91837
   Z12       -2.41862  -0.00111   0.00000  -0.00847  -0.00930  -2.42792
   X13       -7.48104  -0.00129   0.00000  -0.02022  -0.01656  -7.49760
   Y13        1.54426   0.00078   0.00000   0.01212   0.01031   1.55457
   Z13        1.10409   0.00022   0.00000   0.01685   0.01558   1.11967
   X14       -5.71995  -0.00004   0.00000  -0.00746  -0.00253  -5.72248
   Y14       -0.55748  -0.00069   0.00000  -0.00049  -0.00078  -0.55826
   Z14        3.02235   0.00102   0.00000   0.00348   0.00272   3.02507
   X15       -4.38909   0.00051   0.00000  -0.00625  -0.00327  -4.39237
   Y15        2.37692   0.00140   0.00000   0.00188   0.00239   2.37931
   Z15        2.06512   0.00087   0.00000  -0.00127  -0.00232   2.06280
         Item               Value     Threshold  Converged?
 Maximum Force            0.049202     0.000450     NO 
 RMS     Force            0.013249     0.000300     NO 
 Maximum Displacement     0.189882     0.001800     NO 
 RMS     Displacement     0.044699     0.001200     NO 
 Predicted change in Energy=-6.850447D-03
 GradGradGradGradGradGradGradGradGradGradGradGradGradGradGradGradGradGrad


 ----------------------------------------------------------------------

 Electric dipole moment (input orientation):
 (Debye = 10**-18 statcoulomb cm , SI units = C m)
                  (au)            (Debye)         (10**-30 SI)
   Tot        0.119331D+01      0.303310D+01      0.101173D+02
   x         -0.112726D+01     -0.286521D+01     -0.955730D+01
   y         -0.391435D+00     -0.994929D+00     -0.331872D+01
   z          0.805555D-02      0.204752D-01      0.682978D-01

 Dipole polarizability, Alpha (input orientation).
 (esu units = cm**3 , SI units = C**2 m**2 J**-1)
 Alpha(0;0):
               (au)            (10**-24 esu)      (10**-40 SI)
   iso        0.684906D+02      0.101493D+02      0.112926D+02
   aniso      0.433186D+02      0.641916D+01      0.714228D+01
   xx         0.949384D+02      0.140684D+02      0.156532D+02
   yx         0.173524D+00      0.257136D-01      0.286103D-01
   yy         0.641401D+02      0.950458D+01      0.105753D+02
   zx         0.373961D+01      0.554153D+00      0.616578D+00
   zy        -0.285210D+01     -0.422637D+00     -0.470247D+00
   zz         0.463933D+02      0.687478D+01      0.764922D+01

 ----------------------------------------------------------------------

 Dipole orientation:
     8          0.40500125         -0.38123528         -6.44670246
     1         -0.42280579          0.85797777         -5.36712745
     6          1.65334809         -2.98309756         -3.40966031
     1          2.44866030         -4.11503723         -4.87109923
     6          0.83210314         -1.85942467         -1.61192172
     6         -0.34243414         -0.13103922          0.16817377
     8         -1.39123010          1.76748475         -0.51887576
     8         -0.12092124         -0.90142681          2.54338855
     6         -1.21262986          0.72232652          4.44623899
     6          0.51741100          2.92992655          5.02683474
     1         -1.44912377         -0.51177149          6.07421733
     1         -3.05883453          1.35761608          3.78716338
     1         -0.28239127          4.04395730          6.56782781
     1          2.37668557          2.25403900          5.60659261
     1          0.72048949          4.15119384          3.38039522

 Electric dipole moment (dipole orientation):
 (Debye = 10**-18 statcoulomb cm , SI units = C m)
                  (au)            (Debye)         (10**-30 SI)
   Tot        0.119331D+01      0.303310D+01      0.101173D+02
   x          0.000000D+00      0.000000D+00      0.000000D+00
   y          0.000000D+00      0.000000D+00      0.000000D+00
   z          0.119331D+01      0.303310D+01      0.101173D+02

 Dipole polarizability, Alpha (dipole orientation).
 (esu units = cm**3 , SI units = C**2 m**2 J**-1)
 Alpha(0;0):
               (au)            (10**-24 esu)      (10**-40 SI)
   iso        0.684906D+02      0.101493D+02      0.112926D+02
   aniso      0.433186D+02      0.641916D+01      0.714228D+01
   xx         0.511505D+02      0.757972D+01      0.843358D+01
   yx        -0.960842D+01     -0.142382D+01     -0.158422D+01
   yy         0.626266D+02      0.928030D+01      0.103257D+02
   zx        -0.581953D+01     -0.862365D+00     -0.959510D+00
   zy         0.790959D+01      0.117208D+01      0.130412D+01
   zz         0.916948D+02      0.135878D+02      0.151184D+02

 ----------------------------------------------------------------------
 1\1\GINC-AJ\Freq\UM062X\6-31+G\C5H7O3(2)\AAYUSH\20-Jun-2025\0\\# freq 
 6-31+g m062x\\Title Card Required\\0,2\O,3.309055,0.872891,0.113249\H,
 2.51778,1.406001,-0.081597\C,2.289723,-1.087302,0.29649\H,3.25246,-1.4
 98135,0.492349\C,1.158662,-0.734528,0.087434\C,-0.083315,-0.03535,-0.1
 93323\O,-0.112154,1.152012,-0.390504\O,-1.131853,-0.847825,-0.207833\C
 ,-2.413171,-0.232897,-0.464909\C,-2.958937,0.427898,0.785187\H,-3.0401
 9,-1.060226,-0.791531\H,-2.298193,0.482457,-1.279878\H,-3.958795,0.817
 189,0.584259\H,-3.026867,-0.295004,1.599359\H,-2.322609,1.25781,1.0928
 12\\Version=ES64L-G16RevA.03\State=2-A\HF=-419.9626882\S2=0.758336\S2-
 1=0.\S2A=0.750041\RMSD=3.883e-09\RMSF=1.325e-02\ZeroPoint=0.1123417\Th
 ermal=0.1201364\Dipole=-1.1272592,-0.3914351,0.0080556\DipoleDeriv=-0.
 1559533,0.0824528,0.0288273,-0.0726186,-0.1642398,-0.0584035,0.0549006
 ,-0.0383777,-0.4515487,0.192766,0.1120485,-0.0484978,0.2269651,0.32409
 58,0.0387762,-0.0663315,0.026335,0.3829249,-0.3865651,-0.2784736,0.016
 8816,-0.1079208,-0.2371167,0.0041262,-0.0176757,-0.0165516,-0.1070411,
 0.2970926,-0.0162179,0.0090147,0.0131143,0.2692871,-0.0031941,0.007367
 6,-0.0084466,0.2361104,-0.5259854,0.3010913,-0.0884795,0.1508085,-0.34
 5209,0.0584144,-0.0872531,0.0821539,-0.1240942,2.4707022,0.0848476,0.1
 507017,0.3133929,1.4742381,-0.1965223,0.1870404,-0.1596451,0.4752216,-
 0.8756384,0.0525819,-0.043039,-0.0457835,-1.0317563,0.1380651,-0.03333
 11,0.1237741,-0.3977092,-1.8493964,-0.2287274,-0.0102827,-0.3310206,-0
 .6543291,-0.001717,-0.099241,-0.0237375,-0.3936664,0.9174201,-0.039142
 6,-0.0133805,-0.1872723,0.2789994,0.0153895,0.0745679,0.0612768,0.3353
 744,-0.1079253,0.0001372,0.0130856,0.0543973,-0.0013169,-0.048862,0.01
 89405,-0.0953694,-0.0709767,-0.0363316,-0.0328144,-0.0218969,-0.069604
 9,-0.0284595,-0.0788134,-0.0251883,-0.0460044,0.0620101,-0.0075108,-0.
 0248645,0.0672502,0.0645971,0.0316468,0.0784686,0.0012776,0.0400719,-0
 .0331904,-0.10401,0.0737714,-0.0209865,0.0833485,0.0883556,0.000022,-0
 .0385534,0.0216161,0.0717367,0.1131777,0.0142405,0.0012338,-0.0175716,
 -0.0118767,0.1063516,0.0349331,0.054539,-0.0373031,0.0581578,-0.100931
 ,-0.040432,-0.0748314,0.0076811,-0.0521013,-0.0114537,-0.0216347,0.052
 1519\Polar=94.938421,0.1735241,64.1401125,3.7396067,-2.8520952,46.3933
 107\Quadrupole=1.7474785,-1.4084031,-0.3390754,-3.2709354,0.8185962,-0
 .0694464\PG=C01 [X(C5H7O3)]\NImag=4\\0.34836192,-0.22147221,0.16420426
 ,0.08458862,-0.05848814,0.01233681,-0.33993748,0.23136013,-0.08470329,
 0.33872711,0.22319212,-0.15080535,0.05611767,-0.22339145,0.15813878,-0
 .08335190,0.05722712,-0.01455886,0.08312605,-0.05725409,0.01506868,0.0
 0695708,0.01379272,-0.00137521,-0.00195232,0.00160540,-0.00055181,1.36
 680787,0.00230825,-0.00290512,0.00084702,-0.00336603,-0.00312609,0.000
 09475,-0.50072343,0.22599340,0.00046088,0.00236857,0.00008844,0.000271
 28,0.00077191,0.00015015,0.25528013,-0.09231469,0.11948883,-0.00100878
 ,-0.00423004,0.00053320,0.00022709,0.00034334,-0.00007422,-0.35729567,
 0.14237135,-0.06622582,0.35043593,-0.00039779,-0.00774597,0.00124133,-
 0.00063328,-0.00062782,0.00007201,0.15001381,-0.08480477,0.02801198,-0
 .14023091,0.08075158,-0.00008196,0.00074287,0.00005966,0.00008094,0.00
 020337,0.00033062,-0.06743920,0.02695494,-0.04929235,0.06704563,-0.028
 59635,0.03366360,-0.01356014,-0.02070071,0.00125679,0.00055432,-0.0005
 6627,0.00024717,-1.01365424,0.35359995,-0.18715125,0.00771559,-0.01124
 990,0.00120779,1.31508244,-0.00359377,-0.00332171,0.00039123,-0.003274
 87,-0.00217466,-0.00018075,0.34495976,-0.14324556,0.06184775,0.0001454
 5,0.00864489,0.00062847,-0.44580329,0.29160395,-0.00149955,-0.00189801
 ,0.00217341,0.00069887,0.00016926,-0.00048344,-0.18589069,0.06307799,-
 0.08193724,-0.00063080,-0.00090879,0.01246171,0.23798692,-0.09367975,0
 .13023807,0.00058146,0.00281620,-0.00025992,-0.00074646,-0.00486605,0.
 00055584,0.00491124,0.00536797,-0.00198460,-0.00118540,0.00268267,-0.0
 0120405,-0.23095198,0.08221978,-0.03156056,0.66361301,0.00199505,0.000
 04475,0.00016745,-0.00596216,0.00005506,-0.00068874,-0.01188178,0.0067
 4459,-0.00057927,0.00173553,0.00388055,0.00033033,0.08822767,-0.107199
 43,0.01364026,0.00226063,1.04213776,-0.00020960,0.00022953,-0.00073566
 ,0.00077953,-0.00046550,0.00106702,0.00092037,0.00177372,0.01289114,-0
 .00101891,0.00039727,0.00416587,-0.03264329,0.01312092,-0.10145455,0.0
 6353498,-0.13767917,0.22809644,-0.00092874,-0.00106920,-0.00006463,0.0
 0208794,0.00210578,0.00019275,-0.00167804,-0.00168273,0.00029941,0.000
 23273,-0.00091020,0.00029653,-0.00361488,0.04893172,-0.01230240,-0.091
 91566,0.04061396,-0.01099038,0.09216982,-0.00133831,0.00079221,-0.0001
 9483,0.00348766,-0.00174925,0.00047622,-0.00128522,0.00152084,-0.00055
 756,-0.00005107,0.00072227,-0.00028065,0.03387878,-0.05324701,0.017424
 60,0.02601349,-0.77803971,0.12025767,-0.01823624,0.91229247,0.00001714
 ,-0.00014041,0.00078847,-0.00005070,0.00024229,-0.00187186,0.00010895,
 -0.00074214,-0.00124862,0.00015730,-0.00035493,-0.00075446,-0.00970569
 ,0.01969918,0.02204147,-0.00821952,0.12367232,-0.08339848,0.01401418,-
 0.14864967,0.04043991,-0.00056114,-0.00057356,-0.00000348,0.00145438,0
 .00195787,-0.00013259,-0.00498273,0.00174364,-0.00099406,0.00110124,0.
 00075830,0.00011355,-0.06215536,-0.01984156,-0.00724160,-0.27867641,-0
 .13244520,-0.00610798,0.00098044,-0.05151782,0.00256136,0.59817925,-0.
 00070179,-0.00024860,-0.00007086,0.00164408,0.00008410,0.00025483,0.00
 431631,-0.00078916,0.00071185,-0.00012752,-0.00089673,0.00005490,0.006
 38601,0.01051339,0.00139788,-0.09317883,-0.17897674,0.00761903,-0.0638
 4078,-0.08058322,0.00848043,0.08584353,0.36749206,0.00003880,-0.000050
 81,-0.00006226,-0.00009309,0.00028728,0.00018378,-0.00125223,0.0003167
 9,0.00039203,0.00020745,0.00018766,-0.00037607,-0.01071154,-0.00237848
 ,0.00971830,-0.01462594,0.00147283,-0.06127603,0.00578113,0.01065314,0
 .02879724,0.05388179,-0.03589646,0.08737125,0.00011311,0.00014944,0.00
 004441,-0.00051590,-0.00063726,-0.00002333,0.00161603,-0.00027150,0.00
 027135,-0.00035984,-0.00002512,-0.00006843,0.00282457,-0.00192444,0.00
 081524,-0.07067468,-0.00464786,-0.01118220,0.00443196,0.01584662,-0.00
 173113,-0.17211316,0.03125080,-0.02323208,0.51835483,-0.00000532,-0.00
 001731,0.00001103,0.00017531,0.00024492,-0.00004545,-0.00104498,0.0009
 1370,-0.00027398,0.00007028,0.00009337,-0.00003377,-0.00513827,-0.0026
 2649,0.00041332,-0.02100588,0.01982816,-0.00647733,-0.00314972,-0.0062
 0884,-0.00028168,0.06629168,-0.10923507,0.02039212,0.09780011,0.603563
 26,0.00004706,0.00002367,-0.00010395,-0.00012327,-0.00010624,0.0001517
 1,0.00031282,-0.00013933,-0.00070689,-0.00002117,-0.00003691,-0.000259
 42,-0.00044557,0.00099427,0.00808418,-0.00951260,-0.00785937,0.0004732
 3,-0.00043352,0.00353728,-0.00585086,-0.02753266,0.01700455,-0.0706820
 5,0.01094242,-0.02379273,0.56569363,-0.00001864,-0.00005045,-0.0000065
 6,0.00007887,0.00015997,-0.00000802,-0.00032920,0.00012631,-0.00005924
 ,0.00007761,0.00002236,0.00012740,-0.00058383,-0.00061327,-0.00154349,
 0.00367730,0.00730403,0.00174520,-0.00019938,-0.00254259,0.00114498,-0
 .03385368,0.02301146,0.02939000,-0.08920732,0.00734779,0.02694096,0.58
 652577,0.00003248,0.00001011,-0.00002926,-0.00006976,-0.00004433,0.000
 06356,0.00016781,-0.00001061,-0.00005871,-0.00002387,-0.00000950,-0.00
 002726,0.00037272,0.00010639,0.00089774,-0.00203489,0.00022008,0.00013
 219,0.00144480,0.00033168,-0.00163170,0.01706626,-0.00809720,-0.011764
 31,0.01024234,-0.10848196,-0.04436859,0.01862033,0.58386255,-0.0000144
 8,-0.00002077,0.00001116,0.00002848,0.00005130,-0.00002676,-0.00021834
 ,0.00013739,0.00008592,0.00002989,-0.00000934,0.00002560,0.00009266,-0
 .00035434,-0.00085668,0.00188029,0.00499574,0.00053814,0.00091723,-0.0
 0224410,-0.00034094,-0.00608794,0.00106327,0.00990155,0.03880031,-0.04
 882316,-0.18572172,0.03257922,-0.03467724,0.53718776,-0.00002156,-0.00
 002272,0.00000455,0.00005307,0.00009917,-0.00000685,-0.00044859,0.0002
 5373,-0.00007220,0.00005562,0.00001996,-0.00002469,-0.00130439,-0.0007
 0545,0.00020539,-0.00179706,0.00515668,-0.00308639,0.00066842,-0.00087
 145,0.00034967,-0.03721494,-0.02158519,-0.00991353,-0.13339778,-0.1192
 6142,-0.04464456,0.00991989,0.01108189,0.00540879,0.16330585,-0.000017
 09,-0.00000851,0.00001504,0.00002444,-0.00000028,-0.00001846,0.0000638
 0,-0.00027745,0.00006926,0.00000490,0.00000476,0.00001807,0.00055859,0
 .00076977,-0.00048050,0.00345304,-0.00330132,0.00162566,-0.00153073,0.
 00148598,-0.00062329,0.01953709,0.01177989,0.00689244,-0.13328602,-0.2
 2144235,-0.06282402,-0.00729098,-0.00986774,-0.00344720,0.12872992,0.2
 3392261,0.00000108,-0.00000004,0.00000091,-0.00001122,-0.00000414,-0.0
 0000517,-0.00005880,0.00001843,-0.00002674,0.00000178,0.00000800,-0.00
 000901,-0.00036088,-0.00007469,0.00022855,0.00054681,0.00309077,-0.000
 65803,0.00136082,-0.00082266,0.00076388,-0.00842299,-0.00495211,-0.000
 99353,-0.04533656,-0.05900983,-0.07703634,-0.01545946,-0.02483058,-0.0
 0987559,0.05071558,0.06854279,0.08070327,0.00000878,-0.00000599,0.0000
 0411,-0.00001193,0.00002647,-0.00000767,0.00002980,0.00024814,-0.00007
 958,0.00003281,-0.00004255,-0.00005784,-0.00036810,-0.00051389,0.00110
 351,0.00350809,0.00750458,-0.00201703,-0.00081506,-0.00341702,0.000083
 53,-0.01508603,0.02831686,-0.03006935,-0.05527666,-0.03068744,0.031009
 54,0.00033544,-0.00875339,0.01017349,-0.00002238,-0.01201882,0.0150461
 2,0.06762354,0.00001637,0.00001454,-0.00002367,-0.00004441,-0.00004185
 ,0.00003213,0.00015249,0.00001262,-0.00006151,-0.00003060,-0.00000381,
 -0.00000337,0.00033496,-0.00010762,0.00044114,-0.00390158,-0.00142659,
 -0.00015265,-0.00112058,0.00075383,-0.00116297,0.00981072,-0.01206735,
 0.01119547,-0.02147925,-0.17000870,0.13467072,0.00174468,0.01150169,-0
 .01517270,-0.00328488,-0.01432320,0.01903526,0.01725983,0.18576545,0.0
 0001084,0.00000438,0.00000637,-0.00002704,-0.00000521,-0.00000862,0.00
 008498,0.00005766,0.00009565,-0.00000457,0.00000381,-0.00000852,-0.000
 04964,-0.00049515,-0.00025312,0.00132825,0.00440276,0.00044716,0.00178
 664,-0.00208319,0.00060125,-0.00507466,0.00483138,-0.00305202,0.021989
 89,0.13223613,-0.20358917,0.00533527,0.01788781,-0.02158282,-0.0007683
 3,-0.00791589,0.00898982,-0.02609207,-0.14669668,0.21991916,-0.0000198
 0,-0.00002018,0.00001467,0.00005303,0.00006793,-0.00002146,-0.00013154
 ,-0.00001077,0.00001058,0.00003803,-0.00000545,0.00000649,-0.00017930,
 0.00007005,-0.00032273,0.00189347,0.00059766,-0.00020443,-0.00039753,-
 0.00030445,0.00053435,-0.00067295,0.00045963,0.00289574,-0.01143012,0.
 00304046,-0.00557265,-0.27943907,0.09011305,-0.04656063,0.00039600,0.0
 0021727,0.00007137,0.00004023,-0.00036568,0.00037699,0.30456225,0.0000
 0591,0.00000835,0.00000620,-0.00001308,-0.00002118,-0.00000883,0.00004
 758,-0.00000448,0.00003980,-0.00001703,-0.00000279,-0.00001178,0.00016
 824,0.00006217,-0.00000681,-0.00118285,-0.00223127,-0.00023182,-0.0002
 9535,0.00098035,0.00034979,0.00344070,-0.00047704,-0.00329390,0.013283
 68,-0.00545678,0.00514749,0.08904038,-0.08225654,0.01716571,-0.0004937
 5,-0.00019629,0.00039327,-0.00015197,0.00043433,0.00015235,-0.10041494
 ,0.08689171,-0.00000008,0.00000732,0.00001156,-0.00001034,-0.00002310,
 -0.00001170,0.00011933,-0.00007299,-0.00000764,-0.00000810,-0.00000689
 ,-0.00002636,0.00017842,0.00025846,0.00046790,-0.00104459,-0.00252893,
 -0.00056224,-0.00011771,0.00107296,-0.00015420,0.00598322,-0.00321146,
 -0.00479681,0.02642238,-0.00954849,0.00662578,-0.04891010,0.01863617,-
 0.05918902,-0.00077721,0.00004773,0.00115936,-0.00036529,0.00116362,0.
 00061045,0.05110934,-0.01835240,0.06182124,0.00001138,0.00000409,-0.00
 002175,-0.00001872,-0.00003315,0.00002339,0.00003010,0.00000999,0.0000
 0688,-0.00002637,0.00000101,0.00000703,0.00005679,0.00005686,-0.000051
 80,-0.00111766,-0.00151828,0.00047220,-0.00029158,0.00088984,0.0000656
 4,0.00191068,-0.00084153,-0.00105228,-0.00209140,-0.00744464,0.0122825
 5,-0.05045430,-0.01222157,0.01041490,0.00013386,0.00007286,-0.00090478
 ,-0.00022336,0.00124982,0.00203034,0.00261818,0.02136254,-0.02427489,0
 .05013217,-0.00000298,-0.00000879,-0.00002204,0.00002060,0.00001447,0.
 00001896,-0.00007658,-0.00000539,0.00000344,0.00001154,0.00000084,0.00
 001417,-0.00007250,0.00010785,-0.00020350,0.00052917,-0.00013258,0.000
 38952,-0.00047165,0.00019178,0.00026875,-0.00244717,0.00081398,0.00069
 614,0.00323216,0.01077770,-0.01639099,-0.01226705,-0.17530372,0.138829
 54,-0.00041812,0.00099787,0.00066400,0.00177066,-0.00107721,-0.0030029
 2,-0.00223634,-0.00798743,0.00816798,0.01183847,0.18743389,0.00000620,
 0.00000396,0.00001163,-0.00000688,-0.00000803,-0.00001515,0.00005337,-
 0.00001225,0.00002413,-0.00000174,0.00000389,-0.00000379,0.00007636,-0
 .00003944,-0.00008944,0.00015008,0.00049974,-0.00012528,-0.00003811,-0
 .00033933,0.00014970,-0.00158174,0.00026098,0.00307287,0.00215499,0.02
 089853,-0.02591461,0.01222829,0.13530046,-0.19957324,-0.00042593,0.000
 05045,0.00096273,0.00182536,-0.00361793,-0.00318087,0.00113293,0.00338
 152,-0.00399404,-0.01490117,-0.14897730,0.22090688,0.00002254,0.000022
 48,-0.00001149,-0.00005300,-0.00006387,0.00003264,0.00012022,0.0000251
 3,-0.00003376,-0.00004059,-0.00000291,-0.00000919,0.00013852,-0.000113
 08,0.00023368,-0.00111924,0.00105951,0.00000793,-0.00073042,-0.0005522
 2,0.00066994,0.00169040,-0.00095303,-0.00124486,0.00772636,0.01301206,
 0.00675065,-0.14652945,-0.12603820,-0.04744387,-0.00032600,0.00148172,
 0.00281113,0.00022484,-0.00034190,-0.00092689,-0.01733087,-0.02478006,
 -0.00830437,-0.00066977,0.00058979,-0.00067201,0.15687647,-0.00002090,
 -0.00001286,0.00003182,0.00004282,0.00005347,-0.00004326,-0.00010771,-
 0.00001651,0.00002116,0.00002866,-0.00000688,0.00000607,0.00000401,0.0
 0011409,-0.00028484,0.00082714,-0.00160333,-0.00053904,-0.00078908,0.0
 0075662,0.00087403,0.00037552,0.00068768,0.00129008,-0.00953370,-0.011
 94359,-0.00585981,-0.12461296,-0.21196091,-0.05749410,0.00130164,0.000
 45624,-0.00205847,0.00046453,0.00057385,0.00062276,0.00879175,0.010256
 91,0.00439004,-0.01342631,-0.01582326,-0.00740525,0.13665459,0.2284684
 7,-0.00001305,-0.00000922,-0.00002768,0.00004070,0.00002322,0.00002961
 ,-0.00009366,0.00000272,0.00000318,0.00001008,-0.00001273,0.00002292,0
 .00002176,0.00026231,-0.00033913,0.00041552,-0.00293671,0.00053127,-0.
 00070194,0.00175013,0.00003751,0.00063977,0.00245179,0.00180176,-0.019
 86724,-0.02566473,-0.01116350,-0.04350445,-0.05553029,-0.07058336,0.00
 303571,-0.00195207,-0.00420410,-0.00055683,0.00035314,0.00100530,-0.00
 347057,-0.00473059,-0.00195429,0.01590375,0.01954424,0.00776847,0.0481
 4045,0.06644880,0.07707204\\-0.01754501,-0.00047215,-0.00231865,0.0130
 4757,-0.01005209,0.00344215,-0.01545791,0.01895242,-0.00522431,-0.0010
 9772,-0.00021487,-0.00010975,0.02340512,-0.01059207,0.00505554,-0.0320
 8482,0.04214404,-0.01149911,0.00393933,-0.04920153,0.00866779,0.007127
 03,0.01325706,-0.00111192,0.01689445,-0.00140998,0.00392334,0.00033662
 ,-0.00018434,-0.00015856,0.00052539,0.00056061,0.00034323,0.00009278,-
 0.00129380,0.00110788,0.00128728,-0.00078126,-0.00022091,0.00004093,0.
 00069131,-0.00102496,-0.00051104,-0.00140337,-0.00087176\\\@


 THE ONLY DIFFERENCE BETWEEN ECCENTRICS AND JOGGERS
 IS THAT JOGGERS WEAR SWEATBANDS WHEN THEY RUN IN THE RAIN.
 Job cpu time:       0 days  0 hours 18 minutes 44.4 seconds.
 Elapsed time:       0 days  0 hours  0 minutes 46.9 seconds.
 File lengths (MBytes):  RWF=     59 Int=      0 D2E=      0 Chk=      8 Scr=      1
 Normal termination of Gaussian 16 at Fri Jun 20 13:16:10 2025.
