 Entering Gaussian System, Link 0=g16
 Initial command:
 /opt/g16/l1.exe "/home/aayush/Research/Transition_states/Abstraction/ts9_irc_points/Gau-29440.inp" -scrdir="/home/aayush/Research/Transition_states/Abstraction/ts9_irc_points/"
 Entering Link 1 = /opt/g16/l1.exe PID=     29443.
  
 Copyright (c) 1988,1990,1992,1993,1995,1998,2003,2009,2016,
            Gaussian, Inc.  All Rights Reserved.
  
 This is part of the Gaussian(R) 16 program.  It is based on
 the Gaussian(R) 09 system (copyright 2009, Gaussian, Inc.),
 the Gaussian(R) 03 system (copyright 2003, Gaussian, Inc.),
 the Gaussian(R) 98 system (copyright 1998, Gaussian, Inc.),
 the Gaussian(R) 94 system (copyright 1995, Gaussian, Inc.),
 the Gaussian 92(TM) system (copyright 1992, Gaussian, Inc.),
 the Gaussian 90(TM) system (copyright 1990, Gaussian, Inc.),
 the Gaussian 88(TM) system (copyright 1988, Gaussian, Inc.),
 the Gaussian 86(TM) system (copyright 1986, Carnegie Mellon
 University), and the Gaussian 82(TM) system (copyright 1983,
 Carnegie Mellon University). Gaussian is a federally registered
 trademark of Gaussian, Inc.
  
 This software contains proprietary and confidential information,
 including trade secrets, belonging to Gaussian, Inc.
  
 This software is provided under written license and may be
 used, copied, transmitted, or stored only in accord with that
 written license.
  
 The following legend is applicable only to US Government
 contracts under FAR:
  
                    RESTRICTED RIGHTS LEGEND
  
 Use, reproduction and disclosure by the US Government is
 subject to restrictions as set forth in subparagraphs (a)
 and (c) of the Commercial Computer Software - Restricted
 Rights clause in FAR 52.227-19.
  
 Gaussian, Inc.
 340 Quinnipiac St., Bldg. 40, Wallingford CT 06492
  
  
 ---------------------------------------------------------------
 Warning -- This program may not be used in any manner that
 competes with the business of Gaussian, Inc. or will provide
 assistance to any competitor of Gaussian, Inc.  The licensee
 of this program is prohibited from giving any competitor of
 Gaussian, Inc. access to this program.  By using this program,
 the user acknowledges that Gaussian, Inc. is engaged in the
 business of creating and licensing software in the field of
 computational chemistry and represents and warrants to the
 licensee that it is not a competitor of Gaussian, Inc. and that
 it will not use this program in any manner prohibited above.
 ---------------------------------------------------------------
  

 Cite this work as:
 Gaussian 16, Revision A.03,
 M. J. Frisch, G. W. Trucks, H. B. Schlegel, G. E. Scuseria, 
 M. A. Robb, J. R. Cheeseman, G. Scalmani, V. Barone, 
 G. A. Petersson, H. Nakatsuji, X. Li, M. Caricato, A. V. Marenich, 
 J. Bloino, B. G. Janesko, R. Gomperts, B. Mennucci, H. P. Hratchian, 
 J. V. Ortiz, A. F. Izmaylov, J. L. Sonnenberg, D. Williams-Young, 
 F. Ding, F. Lipparini, F. Egidi, J. Goings, B. Peng, A. Petrone, 
 T. Henderson, D. Ranasinghe, V. G. Zakrzewski, J. Gao, N. Rega, 
 G. Zheng, W. Liang, M. Hada, M. Ehara, K. Toyota, R. Fukuda, 
 J. Hasegawa, M. Ishida, T. Nakajima, Y. Honda, O. Kitao, H. Nakai, 
 T. Vreven, K. Throssell, J. A. Montgomery, Jr., J. E. Peralta, 
 F. Ogliaro, M. J. Bearpark, J. J. Heyd, E. N. Brothers, K. N. Kudin, 
 V. N. Staroverov, T. A. Keith, R. Kobayashi, J. Normand, 
 K. Raghavachari, A. P. Rendell, J. C. Burant, S. S. Iyengar, 
 J. Tomasi, M. Cossi, J. M. Millam, M. Klene, C. Adamo, R. Cammi, 
 J. W. Ochterski, R. L. Martin, K. Morokuma, O. Farkas, 
 J. B. Foresman, and D. J. Fox, Gaussian, Inc., Wallingford CT, 2016.
 
 ******************************************
 Gaussian 16:  ES64L-G16RevA.03 25-Dec-2016
                29-Mar-2025 
 ******************************************
 %chk=ethyl_propiolate.chk
 %nprocshared=24
 Will use up to   24 processors via shared memory.
 %mem=12GB
 --------------------------
 # freq 6-311++g(d,p) m062x
 --------------------------
 1/10=4,30=1,38=1/1,3;
 2/12=2,17=6,18=5,40=1/2;
 3/5=4,6=6,7=1111,11=2,25=1,30=1,71=2,74=-55,140=1/1,2,3;
 4//1;
 5/5=2,38=5,98=1/2;
 8/6=4,10=90,11=11/1;
 11/6=1,8=1,9=11,15=111,16=1/1,2,10;
 10/6=1/2;
 6/7=2,8=2,9=2,10=2,28=1/1;
 7/8=1,10=1,25=1/1,2,3,16;
 1/10=4,30=1/3;
 99//99;
 -------------------
 Title Card Required
 -------------------
 Symbolic Z-matrix:
 Charge =  0 Multiplicity = 2
 C                     2.46865   1.29472  -0.6724 
 H                     3.09741   2.09286  -0.9931 
 C                     1.76766   0.3915   -0.31149 
 C                     0.9874   -0.75531   0.14959 
 O                     1.49075  -1.78394   0.47472 
 O                    -0.35131  -0.58936   0.19405 
 C                    -0.95344   0.63418  -0.18279 
 C                    -1.1077    1.58776   0.9668 
 H                    -0.51825   1.04186  -1.09544 
 H                    -2.21959   0.17902  -0.55446 
 H                    -1.62289   1.10178   1.7963 
 H                    -0.11907   1.91608   1.30859 
 H                    -1.67749   2.46516   0.65932 
 O                    -3.1446   -0.46392  -0.67724 
 H                    -2.77328  -1.3088   -0.38802 
 

 GradGradGradGradGradGradGradGradGradGradGradGradGradGradGradGradGradGrad
 Berny optimization.
 Initialization pass.
 Trust Radius=3.00D-01 FncErr=1.00D-07 GrdErr=1.00D-07 EigMax=2.50D+02 EigMin=1.00D-04
 Number of steps in this run=      2 maximum allowed number of steps=      2.
 GradGradGradGradGradGradGradGradGradGradGradGradGradGradGradGradGradGrad

                          Input orientation:                          
 ---------------------------------------------------------------------
 Center     Atomic      Atomic             Coordinates (Angstroms)
 Number     Number       Type             X           Y           Z
 ---------------------------------------------------------------------
      1          6           0        2.468645    1.294718   -0.672404
      2          1           0        3.097412    2.092862   -0.993102
      3          6           0        1.767657    0.391498   -0.311491
      4          6           0        0.987401   -0.755305    0.149585
      5          8           0        1.490747   -1.783940    0.474724
      6          8           0       -0.351313   -0.589364    0.194047
      7          6           0       -0.953440    0.634183   -0.182789
      8          6           0       -1.107699    1.587759    0.966803
      9          1           0       -0.518246    1.041859   -1.095440
     10          1           0       -2.219590    0.179021   -0.554459
     11          1           0       -1.622886    1.101782    1.796303
     12          1           0       -0.119069    1.916076    1.308591
     13          1           0       -1.677493    2.465158    0.659323
     14          8           0       -3.144605   -0.463920   -0.677242
     15          1           0       -2.773281   -1.308804   -0.388015
 ---------------------------------------------------------------------
                    Distance matrix (angstroms):
                    1          2          3          4          5
     1  C    0.000000
     2  H    1.065471   0.000000
     3  C    1.198937   2.264394   0.000000
     4  C    2.659388   3.724236   1.461693   0.000000
     5  O    3.427874   4.445838   2.329666   1.190446   0.000000
     6  O    3.500381   4.527401   2.389078   1.349692   2.213363
     7  C    3.519474   4.381068   2.734928   2.409982   3.500527
     8  C    3.945011   4.666831   3.366415   3.247651   4.285139
     9  H    3.027278   3.766705   2.502578   2.654592   3.806128
    10  H    4.820606   5.667954   4.000290   3.413713   4.321925
    11  H    4.782506   5.571735   4.055007   3.601951   4.446198
    12  H    3.317633   3.959141   2.916974   3.115100   4.120311
    13  H    4.509311   5.066442   4.136617   4.211042   5.303457
    14  O    5.882296   6.752753   4.999583   4.223982   4.955398
    15  H    5.859777   6.811938   4.849433   3.839024   4.376301
                    6          7          8          9         10
     6  O    0.000000
     7  C    1.414790   0.000000
     8  C    2.430871   1.501554   0.000000
     9  H    2.086033   1.090195   2.213212   0.000000
    10  H    2.154330   1.395868   2.352676   1.982857   0.000000
    11  H    2.654072   2.140937   1.090716   3.096126   2.594923
    12  H    2.751977   2.136268   1.096358   2.589008   3.301591
    13  H    3.362341   2.141466   1.090430   2.539454   2.644534
    14  O    2.928713   2.500304   3.325847   3.056145   1.133182
    15  H    2.592744   2.670044   3.605520   3.333354   1.596214
                   11         12         13         14         15
    11  H    0.000000
    12  H    1.778315   0.000000
    13  H    1.776091   1.775310   0.000000
    14  O    3.299315   4.331487   3.538124   0.000000
    15  H    3.450446   4.508122   4.066996   0.967142   0.000000
 Stoichiometry    C5H7O3(2)
 Framework group  C1[X(C5H7O3)]
 Deg. of freedom    39
 Full point group                 C1      NOp   1
 Largest Abelian subgroup         C1      NOp   1
 Largest concise Abelian subgroup C1      NOp   1
                         Standard orientation:                         
 ---------------------------------------------------------------------
 Center     Atomic      Atomic             Coordinates (Angstroms)
 Number     Number       Type             X           Y           Z
 ---------------------------------------------------------------------
      1          6           0        2.515270    1.235696   -0.678517
      2          1           0        3.143478    2.034321   -0.999114
      3          6           0        1.814915    0.331939   -0.317720
      4          6           0        1.035463   -0.815478    0.143186
      5          8           0        1.539512   -1.843893    0.467933
      6          8           0       -0.303345   -0.650381    0.187962
      7          6           0       -0.906306    0.572899   -0.188407
      8          6           0       -1.060928    1.526053    0.961486
      9          1           0       -0.471547    0.981104   -1.101030
     10          1           0       -2.172248    0.117057   -0.559954
     11          1           0       -1.575648    1.039522    1.790950
     12          1           0       -0.072433    1.854887    1.303170
     13          1           0       -1.631327    2.403186    0.654368
     14          8           0       -3.096888   -0.526423   -0.682735
     15          1           0       -2.724982   -1.371158   -0.393822
 ---------------------------------------------------------------------
 Rotational constants (GHZ):           2.8063684           1.2330527           0.9831202
 Standard basis: 6-311++G(d,p) (5D, 7F)
 There are   233 symmetry adapted cartesian basis functions of A   symmetry.
 There are   225 symmetry adapted basis functions of A   symmetry.
   225 basis functions,   351 primitive gaussians,   233 cartesian basis functions
    31 alpha electrons       30 beta electrons
       nuclear repulsion energy       350.8226785663 Hartrees.
 NAtoms=   15 NActive=   15 NUniq=   15 SFac= 1.00D+00 NAtFMM=   60 NAOKFM=F Big=F
 Integral buffers will be    131072 words long.
 Raffenetti 2 integral format.
 Two-electron integral symmetry is turned on.
 One-electron integrals computed using PRISM.
 NBasis=   225 RedAO= T EigKep=  1.52D-06  NBF=   225
 NBsUse=   225 1.00D-06 EigRej= -1.00D+00 NBFU=   225
 ExpMin= 3.60D-02 ExpMax= 8.59D+03 ExpMxC= 1.30D+03 IAcc=3 IRadAn=         5 AccDes= 0.00D+00
 Harris functional with IExCor= 1009 and IRadAn=       5 diagonalized for initial guess.
 HarFok:  IExCor= 1009 AccDes= 0.00D+00 IRadAn=         5 IDoV= 1 UseB2=F ITyADJ=14
 ICtDFT=  3500011 ScaDFX=  1.000000  1.000000  1.000000  1.000000
 FoFCou: FMM=F IPFlag=           0 FMFlag=      100000 FMFlg1=           0
         NFxFlg=           0 DoJE=T BraDBF=F KetDBF=T FulRan=T
         wScrn=  0.000000 ICntrl=       500 IOpCl=  0 I1Cent=   200000004 NGrid=           0
         NMat0=    1 NMatS0=      1 NMatT0=    0 NMatD0=    1 NMtDS0=    0 NMtDT0=    0
 Petite list used in FoFCou.
 Initial guess <Sx>= 0.0000 <Sy>= 0.0000 <Sz>= 0.5000 <S**2>= 0.7500 S= 0.5000
 Requested convergence on RMS density matrix=1.00D-08 within 128 cycles.
 Requested convergence on MAX density matrix=1.00D-06.
 Requested convergence on             energy=1.00D-06.
 No special actions if energy rises.
 SCF Done:  E(UM062X) =  -420.201237505     A.U. after   19 cycles
            NFock= 19  Conv=0.54D-08     -V/T= 2.0034
 <Sx>= 0.0000 <Sy>= 0.0000 <Sz>= 0.5000 <S**2>= 0.7587 S= 0.5044
 <L.S>=  0.00000000000    
 Annihilation of the first spin contaminant:
 S**2 before annihilation     0.7587,   after     0.7500
 DoSCS=F DFT=T ScalE2(SS,OS)=  1.000000  1.000000
 Range of M.O.s used for correlation:     1   225
 NBasis=   225 NAE=    31 NBE=    30 NFC=     0 NFV=     0
 NROrb=    225 NOA=    31 NOB=    30 NVA=   194 NVB=   195

 **** Warning!!: The largest alpha MO coefficient is  0.28413908D+03


 **** Warning!!: The largest beta MO coefficient is  0.20829611D+03

 Symmetrizing basis deriv contribution to polar:
 IMax=3 JMax=2 DiffMx= 0.00D+00
 G2DrvN: will do    16 centers at a time, making    1 passes.
 Calling FoFCou, ICntrl=  3107 FMM=F I1Cent=   0 AccDes= 0.00D+00.
 End of G2Drv F.D. properties file   721 does not exist.
 End of G2Drv F.D. properties file   722 does not exist.
 End of G2Drv F.D. properties file   788 does not exist.
          IDoAtm=111111111111111
          Differentiating once with respect to electric field.
                with respect to dipole field.
          Differentiating once with respect to nuclear coordinates.
 Keep R1 and R2 ints in memory in canonical form, NReq=671901977.
          There are    48 degrees of freedom in the 1st order CPHF.  IDoFFX=6 NUNeed=     3.
     45 vectors produced by pass  0 Test12= 2.47D-14 2.08D-09 XBig12= 9.11D+01 3.46D+00.
 AX will form    45 AO Fock derivatives at one time.
     45 vectors produced by pass  1 Test12= 2.47D-14 2.08D-09 XBig12= 1.78D+01 5.12D-01.
     45 vectors produced by pass  2 Test12= 2.47D-14 2.08D-09 XBig12= 5.83D-01 1.00D-01.
     45 vectors produced by pass  3 Test12= 2.47D-14 2.08D-09 XBig12= 7.36D-03 1.23D-02.
     45 vectors produced by pass  4 Test12= 2.47D-14 2.08D-09 XBig12= 9.53D-05 1.46D-03.
     45 vectors produced by pass  5 Test12= 2.47D-14 2.08D-09 XBig12= 9.76D-07 9.86D-05.
     44 vectors produced by pass  6 Test12= 2.47D-14 2.08D-09 XBig12= 8.74D-09 7.91D-06.
     24 vectors produced by pass  7 Test12= 2.47D-14 2.08D-09 XBig12= 5.47D-11 4.50D-07.
      3 vectors produced by pass  8 Test12= 2.47D-14 2.08D-09 XBig12= 4.24D-13 5.01D-08.
      2 vectors produced by pass  9 Test12= 2.47D-14 2.08D-09 XBig12= 4.97D-15 1.10D-08.
      1 vectors produced by pass 10 Test12= 2.47D-14 2.08D-09 XBig12= 3.65D-15 1.32D-08.
 InvSVY:  IOpt=1 It=  1 EMax= 8.88D-15
 Solved reduced A of dimension   344 with    48 vectors.
 Isotropic polarizability for W=    0.000000       75.33 Bohr**3.
 End of Minotr F.D. properties file   721 does not exist.
 End of Minotr F.D. properties file   722 does not exist.
 End of Minotr F.D. properties file   788 does not exist.

 **********************************************************************

            Population analysis using the SCF density.

 **********************************************************************

 Orbital symmetries:
 Alpha Orbitals:
       Occupied  (A) (A) (A) (A) (A) (A) (A) (A) (A) (A) (A) (A)
                 (A) (A) (A) (A) (A) (A) (A) (A) (A) (A) (A) (A)
                 (A) (A) (A) (A) (A) (A) (A)
       Virtual   (A) (A) (A) (A) (A) (A) (A) (A) (A) (A) (A) (A)
                 (A) (A) (A) (A) (A) (A) (A) (A) (A) (A) (A) (A)
                 (A) (A) (A) (A) (A) (A) (A) (A) (A) (A) (A) (A)
                 (A) (A) (A) (A) (A) (A) (A) (A) (A) (A) (A) (A)
                 (A) (A) (A) (A) (A) (A) (A) (A) (A) (A) (A) (A)
                 (A) (A) (A) (A) (A) (A) (A) (A) (A) (A) (A) (A)
                 (A) (A) (A) (A) (A) (A) (A) (A) (A) (A) (A) (A)
                 (A) (A) (A) (A) (A) (A) (A) (A) (A) (A) (A) (A)
                 (A) (A) (A) (A) (A) (A) (A) (A) (A) (A) (A) (A)
                 (A) (A) (A) (A) (A) (A) (A) (A) (A) (A) (A) (A)
                 (A) (A) (A) (A) (A) (A) (A) (A) (A) (A) (A) (A)
                 (A) (A) (A) (A) (A) (A) (A) (A) (A) (A) (A) (A)
                 (A) (A) (A) (A) (A) (A) (A) (A) (A) (A) (A) (A)
                 (A) (A) (A) (A) (A) (A) (A) (A) (A) (A) (A) (A)
                 (A) (A) (A) (A) (A) (A) (A) (A) (A) (A) (A) (A)
                 (A) (A) (A) (A) (A) (A) (A) (A) (A) (A) (A) (A)
                 (A) (A)
 Beta  Orbitals:
       Occupied  (A) (A) (A) (A) (A) (A) (A) (A) (A) (A) (A) (A)
                 (A) (A) (A) (A) (A) (A) (A) (A) (A) (A) (A) (A)
                 (A) (A) (A) (A) (A) (A)
       Virtual   (A) (A) (A) (A) (A) (A) (A) (A) (A) (A) (A) (A)
                 (A) (A) (A) (A) (A) (A) (A) (A) (A) (A) (A) (A)
                 (A) (A) (A) (A) (A) (A) (A) (A) (A) (A) (A) (A)
                 (A) (A) (A) (A) (A) (A) (A) (A) (A) (A) (A) (A)
                 (A) (A) (A) (A) (A) (A) (A) (A) (A) (A) (A) (A)
                 (A) (A) (A) (A) (A) (A) (A) (A) (A) (A) (A) (A)
                 (A) (A) (A) (A) (A) (A) (A) (A) (A) (A) (A) (A)
                 (A) (A) (A) (A) (A) (A) (A) (A) (A) (A) (A) (A)
                 (A) (A) (A) (A) (A) (A) (A) (A) (A) (A) (A) (A)
                 (A) (A) (A) (A) (A) (A) (A) (A) (A) (A) (A) (A)
                 (A) (A) (A) (A) (A) (A) (A) (A) (A) (A) (A) (A)
                 (A) (A) (A) (A) (A) (A) (A) (A) (A) (A) (A) (A)
                 (A) (A) (A) (A) (A) (A) (A) (A) (A) (A) (A) (A)
                 (A) (A) (A) (A) (A) (A) (A) (A) (A) (A) (A) (A)
                 (A) (A) (A) (A) (A) (A) (A) (A) (A) (A) (A) (A)
                 (A) (A) (A) (A) (A) (A) (A) (A) (A) (A) (A) (A)
                 (A) (A) (A)
 The electronic state is 2-A.
 Alpha  occ. eigenvalues --  -19.70723 -19.64820 -19.62746 -10.72742 -10.64847
 Alpha  occ. eigenvalues --  -10.59450 -10.58961 -10.56482  -1.27528  -1.19095
 Alpha  occ. eigenvalues --   -1.11525  -0.91149  -0.90458  -0.79535  -0.75490
 Alpha  occ. eigenvalues --   -0.66674  -0.63324  -0.61386  -0.59045  -0.57070
 Alpha  occ. eigenvalues --   -0.52901  -0.51925  -0.49697  -0.49018  -0.46570
 Alpha  occ. eigenvalues --   -0.41684  -0.41507  -0.39281  -0.39203  -0.38385
 Alpha  occ. eigenvalues --   -0.32084
 Alpha virt. eigenvalues --   -0.03784  -0.01225   0.00456   0.01070   0.01354
 Alpha virt. eigenvalues --    0.02568   0.03231   0.04324   0.05140   0.05927
 Alpha virt. eigenvalues --    0.06468   0.07293   0.08240   0.08975   0.09751
 Alpha virt. eigenvalues --    0.10283   0.10659   0.11398   0.11899   0.12715
 Alpha virt. eigenvalues --    0.13330   0.13777   0.13988   0.14357   0.16113
 Alpha virt. eigenvalues --    0.16241   0.16659   0.16836   0.17963   0.19023
 Alpha virt. eigenvalues --    0.20903   0.21824   0.22030   0.23364   0.24070
 Alpha virt. eigenvalues --    0.25083   0.26423   0.28237   0.29275   0.29875
 Alpha virt. eigenvalues --    0.30235   0.30573   0.31631   0.32349   0.32613
 Alpha virt. eigenvalues --    0.33534   0.34127   0.35463   0.36658   0.37240
 Alpha virt. eigenvalues --    0.38550   0.42937   0.44872   0.45412   0.49150
 Alpha virt. eigenvalues --    0.49873   0.50850   0.52901   0.55450   0.57475
 Alpha virt. eigenvalues --    0.59816   0.60542   0.62578   0.63133   0.65149
 Alpha virt. eigenvalues --    0.66548   0.67507   0.69123   0.69948   0.70424
 Alpha virt. eigenvalues --    0.71484   0.73249   0.76124   0.78660   0.80832
 Alpha virt. eigenvalues --    0.85112   0.86829   0.89640   0.96783   1.00031
 Alpha virt. eigenvalues --    1.03779   1.05722   1.09278   1.10368   1.10768
 Alpha virt. eigenvalues --    1.13724   1.15827   1.16598   1.17680   1.19100
 Alpha virt. eigenvalues --    1.21022   1.23001   1.27117   1.28111   1.29517
 Alpha virt. eigenvalues --    1.31537   1.32887   1.34797   1.40227   1.41800
 Alpha virt. eigenvalues --    1.42595   1.46946   1.47109   1.48491   1.54542
 Alpha virt. eigenvalues --    1.57287   1.58975   1.59943   1.60653   1.61867
 Alpha virt. eigenvalues --    1.63370   1.64569   1.65832   1.67314   1.72622
 Alpha virt. eigenvalues --    1.76428   1.77986   1.80053   1.81422   1.85484
 Alpha virt. eigenvalues --    1.88380   1.92337   1.93843   1.98648   2.00955
 Alpha virt. eigenvalues --    2.07894   2.10195   2.13966   2.14257   2.22425
 Alpha virt. eigenvalues --    2.28925   2.39778   2.42832   2.48720   2.50027
 Alpha virt. eigenvalues --    2.54709   2.56847   2.57137   2.58519   2.60475
 Alpha virt. eigenvalues --    2.62586   2.64144   2.66793   2.70089   2.74172
 Alpha virt. eigenvalues --    2.79674   2.80917   2.81820   2.87391   2.92472
 Alpha virt. eigenvalues --    2.96457   2.98913   3.01855   3.04915   3.06096
 Alpha virt. eigenvalues --    3.09385   3.12026   3.19210   3.20767   3.23160
 Alpha virt. eigenvalues --    3.27359   3.32153   3.33045   3.37584   3.42293
 Alpha virt. eigenvalues --    3.50755   3.54286   3.63231   3.75274   3.80521
 Alpha virt. eigenvalues --    3.83030   3.84335   3.97076   4.06490   4.10750
 Alpha virt. eigenvalues --    4.14540   4.27433   5.09760   5.14448   5.14464
 Alpha virt. eigenvalues --    5.27156   5.40702   5.48034   5.67389   5.70196
 Alpha virt. eigenvalues --    5.96266  23.60656  23.82798  23.92743  24.01991
 Alpha virt. eigenvalues --   25.14519  49.97012  50.00343  50.11276
  Beta  occ. eigenvalues --  -19.70677 -19.64808 -19.62046 -10.72703 -10.64130
  Beta  occ. eigenvalues --  -10.59442 -10.58960 -10.56493  -1.27277  -1.18875
  Beta  occ. eigenvalues --   -1.08864  -0.90996  -0.89093  -0.78876  -0.74871
  Beta  occ. eigenvalues --   -0.65646  -0.63169  -0.59040  -0.58476  -0.55577
  Beta  occ. eigenvalues --   -0.51739  -0.51250  -0.48985  -0.47572  -0.44236
  Beta  occ. eigenvalues --   -0.41463  -0.40808  -0.39099  -0.38215  -0.37850
  Beta virt. eigenvalues --   -0.10018  -0.03632  -0.01190   0.00545   0.01132
  Beta virt. eigenvalues --    0.01499   0.02632   0.03311   0.04501   0.05216
  Beta virt. eigenvalues --    0.06017   0.06602   0.07352   0.08358   0.08997
  Beta virt. eigenvalues --    0.09837   0.10376   0.10761   0.11507   0.11987
  Beta virt. eigenvalues --    0.12812   0.13452   0.13976   0.14082   0.14580
  Beta virt. eigenvalues --    0.16281   0.16383   0.16805   0.16873   0.18243
  Beta virt. eigenvalues --    0.19444   0.21303   0.21973   0.22114   0.23873
  Beta virt. eigenvalues --    0.24438   0.25313   0.26392   0.28270   0.29723
  Beta virt. eigenvalues --    0.30115   0.30338   0.30814   0.31726   0.32547
  Beta virt. eigenvalues --    0.32798   0.33691   0.34675   0.35568   0.36739
  Beta virt. eigenvalues --    0.38570   0.39490   0.43049   0.44989   0.45637
  Beta virt. eigenvalues --    0.49318   0.50036   0.51065   0.53210   0.55946
  Beta virt. eigenvalues --    0.58062   0.60213   0.60841   0.62720   0.63890
  Beta virt. eigenvalues --    0.65724   0.67449   0.67867   0.69157   0.70142
  Beta virt. eigenvalues --    0.70971   0.71616   0.73456   0.76191   0.79256
  Beta virt. eigenvalues --    0.81227   0.85242   0.87162   0.89710   0.96870
  Beta virt. eigenvalues --    1.01113   1.04437   1.06272   1.09521   1.11066
  Beta virt. eigenvalues --    1.11356   1.15056   1.16155   1.17239   1.17800
  Beta virt. eigenvalues --    1.19647   1.21174   1.23091   1.27343   1.28395
  Beta virt. eigenvalues --    1.29833   1.31858   1.33134   1.35045   1.40621
  Beta virt. eigenvalues --    1.41977   1.42824   1.47670   1.47862   1.48620
  Beta virt. eigenvalues --    1.56312   1.57766   1.59244   1.60475   1.61476
  Beta virt. eigenvalues --    1.62099   1.63578   1.64882   1.66312   1.67951
  Beta virt. eigenvalues --    1.73638   1.76541   1.78197   1.80360   1.81499
  Beta virt. eigenvalues --    1.85946   1.88942   1.92533   1.94537   1.99239
  Beta virt. eigenvalues --    2.01212   2.08497   2.10958   2.14639   2.15372
  Beta virt. eigenvalues --    2.24399   2.29785   2.40174   2.44498   2.49016
  Beta virt. eigenvalues --    2.50239   2.54330   2.56906   2.57467   2.58767
  Beta virt. eigenvalues --    2.61701   2.63269   2.64368   2.67040   2.70527
  Beta virt. eigenvalues --    2.74631   2.77842   2.79845   2.81995   2.87969
  Beta virt. eigenvalues --    2.92754   2.96679   2.99430   3.01897   3.05046
  Beta virt. eigenvalues --    3.06296   3.11584   3.12336   3.20116   3.21690
  Beta virt. eigenvalues --    3.23472   3.28814   3.32691   3.33194   3.38165
  Beta virt. eigenvalues --    3.42383   3.51567   3.55651   3.63408   3.75386
  Beta virt. eigenvalues --    3.81717   3.83575   3.84662   3.98216   4.07341
  Beta virt. eigenvalues --    4.12142   4.14720   4.28508   5.10662   5.14494
  Beta virt. eigenvalues --    5.14998   5.27199   5.41093   5.50060   5.67791
  Beta virt. eigenvalues --    5.71814   5.96459  23.60665  23.83898  23.92797
  Beta virt. eigenvalues --   24.02003  25.14533  49.97034  49.99586  50.11266
          Condensed to atoms (all electrons):
               1          2          3          4          5          6
     1  C   26.691299   0.851761 -11.462496  -8.330823  -0.153706  -0.094523
     2  H    0.851761   0.436406  -0.383478  -0.090935  -0.005194  -0.004492
     3  C  -11.462496  -0.383478  14.334623   2.004003   0.024257  -0.268452
     4  C   -8.330823  -0.090935   2.004003  12.132648   0.472921   0.190302
     5  O   -0.153706  -0.005194   0.024257   0.472921   7.963935  -0.078550
     6  O   -0.094523  -0.004492  -0.268452   0.190302  -0.078550   8.240031
     7  C   -0.128279  -0.010281   0.292630  -0.352482  -0.003652   0.156327
     8  C   -0.073969   0.006091  -0.150945   0.274891   0.004793  -0.086213
     9  H    0.098265  -0.002896   0.033825  -0.159923   0.003193  -0.023660
    10  H   -0.039616  -0.000315   0.016283   0.021365   0.000794  -0.028610
    11  H    0.002672   0.000568  -0.006999   0.006910   0.000391  -0.004614
    12  H   -0.080303  -0.004166   0.078570   0.016379  -0.001587  -0.012881
    13  H    0.008078   0.000264  -0.008739  -0.002431   0.000547   0.017336
    14  O    0.001308   0.000176  -0.004145   0.012337   0.000622   0.029056
    15  H   -0.004938  -0.000073  -0.009548   0.012674  -0.000367   0.012197
               7          8          9         10         11         12
     1  C   -0.128279  -0.073969   0.098265  -0.039616   0.002672  -0.080303
     2  H   -0.010281   0.006091  -0.002896  -0.000315   0.000568  -0.004166
     3  C    0.292630  -0.150945   0.033825   0.016283  -0.006999   0.078570
     4  C   -0.352482   0.274891  -0.159923   0.021365   0.006910   0.016379
     5  O   -0.003652   0.004793   0.003193   0.000794   0.000391  -0.001587
     6  O    0.156327  -0.086213  -0.023660  -0.028610  -0.004614  -0.012881
     7  C    6.654657  -0.548422   0.467297   0.124216  -0.089600   0.054038
     8  C   -0.548422   5.948299  -0.154314  -0.065873   0.462934   0.297646
     9  H    0.467297  -0.154314   0.574839  -0.026176  -0.000301  -0.005212
    10  H    0.124216  -0.065873  -0.026176   0.490695  -0.010233   0.011356
    11  H   -0.089600   0.462934  -0.000301  -0.010233   0.496811  -0.051020
    12  H    0.054038   0.297646  -0.005212   0.011356  -0.051020   0.585315
    13  H   -0.085218   0.444098  -0.006803  -0.007161  -0.024961  -0.035945
    14  O   -0.028175  -0.000173  -0.011786   0.216430   0.001474  -0.005087
    15  H    0.001118   0.010803  -0.001454  -0.060313  -0.001528   0.000779
              13         14         15
     1  C    0.008078   0.001308  -0.004938
     2  H    0.000264   0.000176  -0.000073
     3  C   -0.008739  -0.004145  -0.009548
     4  C   -0.002431   0.012337   0.012674
     5  O    0.000547   0.000622  -0.000367
     6  O    0.017336   0.029056   0.012197
     7  C   -0.085218  -0.028175   0.001118
     8  C    0.444098  -0.000173   0.010803
     9  H   -0.006803  -0.011786  -0.001454
    10  H   -0.007161   0.216430  -0.060313
    11  H   -0.024961   0.001474  -0.001528
    12  H   -0.035945  -0.005087   0.000779
    13  H    0.519571   0.000438   0.001642
    14  O    0.000438   7.939911   0.307468
    15  H    0.001642   0.307468   0.471984
          Atomic-Atomic Spin Densities.
               1          2          3          4          5          6
     1  C    0.043357   0.012460  -0.020297  -0.002436   0.002198  -0.002757
     2  H    0.012460   0.001988  -0.011597  -0.002852   0.000030  -0.000363
     3  C   -0.020297  -0.011597   0.027645   0.004340  -0.001801   0.005830
     4  C   -0.002436  -0.002852   0.004340  -0.016514   0.002509   0.010115
     5  O    0.002198   0.000030  -0.001801   0.002509   0.005079   0.000895
     6  O   -0.002757  -0.000363   0.005830   0.010115   0.000895   0.075630
     7  C   -0.050811  -0.000002  -0.019353   0.047700  -0.001237  -0.166195
     8  C    0.050148   0.000752  -0.013077  -0.035384   0.000289   0.020728
     9  H    0.006187   0.000408  -0.005563   0.001424  -0.000170   0.009368
    10  H    0.000583   0.000093  -0.002993   0.000083  -0.000743  -0.008445
    11  H    0.004494   0.000127  -0.000346  -0.002120   0.000261   0.004977
    12  H   -0.029367  -0.001018   0.013109   0.013707  -0.000424  -0.002235
    13  H    0.001661   0.000016  -0.000794  -0.000288  -0.000040   0.000342
    14  O    0.006248   0.000089   0.003125  -0.003137   0.000302   0.037094
    15  H   -0.001077  -0.000020  -0.000541   0.000104  -0.000108  -0.005933
               7          8          9         10         11         12
     1  C   -0.050811   0.050148   0.006187   0.000583   0.004494  -0.029367
     2  H   -0.000002   0.000752   0.000408   0.000093   0.000127  -0.001018
     3  C   -0.019353  -0.013077  -0.005563  -0.002993  -0.000346   0.013109
     4  C    0.047700  -0.035384   0.001424   0.000083  -0.002120   0.013707
     5  O   -0.001237   0.000289  -0.000170  -0.000743   0.000261  -0.000424
     6  O   -0.166195   0.020728   0.009368  -0.008445   0.004977  -0.002235
     7  C    1.142921  -0.093966  -0.042049   0.076170  -0.024896   0.005890
     8  C   -0.093966  -0.011279   0.014054  -0.002342   0.013512   0.000535
     9  H   -0.042049   0.014054  -0.008592   0.008421   0.001509  -0.005301
    10  H    0.076170  -0.002342   0.008421  -0.119148   0.001369  -0.002108
    11  H   -0.024896   0.013512   0.001509   0.001369   0.016376  -0.010595
    12  H    0.005890   0.000535  -0.005301  -0.002108  -0.010595   0.065347
    13  H   -0.004564   0.005174   0.000371  -0.000974   0.000237  -0.002051
    14  O   -0.174073   0.023048   0.005244   0.000214   0.004099  -0.003160
    15  H    0.016412  -0.003118  -0.000585   0.004140  -0.000651   0.000460
              13         14         15
     1  C    0.001661   0.006248  -0.001077
     2  H    0.000016   0.000089  -0.000020
     3  C   -0.000794   0.003125  -0.000541
     4  C   -0.000288  -0.003137   0.000104
     5  O   -0.000040   0.000302  -0.000108
     6  O    0.000342   0.037094  -0.005933
     7  C   -0.004564  -0.174073   0.016412
     8  C    0.005174   0.023048  -0.003118
     9  H    0.000371   0.005244  -0.000585
    10  H   -0.000974   0.000214   0.004140
    11  H    0.000237   0.004099  -0.000651
    12  H   -0.002051  -0.003160   0.000460
    13  H    0.001963   0.000899  -0.000025
    14  O    0.000899   0.430062  -0.002026
    15  H   -0.000025  -0.002026  -0.009928
 Mulliken charges and spin densities:
               1          2
     1  C   -1.284731   0.020592
     2  H    0.206564   0.000112
     3  C    1.510610  -0.022314
     4  C   -0.207836   0.017251
     5  O   -0.228395   0.007039
     6  O   -0.043254  -0.020948
     7  C   -0.504174   0.711946
     8  C   -0.369647  -0.030926
     9  H    0.215105  -0.015273
    10  H    0.357157  -0.045680
    11  H    0.217498   0.008352
    12  H    0.152120   0.042789
    13  H    0.179284   0.001927
    14  O   -0.459855   0.328029
    15  H    0.259557  -0.002896
 Sum of Mulliken charges =  -0.00000   1.00000
 Mulliken charges and spin densities with hydrogens summed into heavy atoms:
               1          2
     1  C   -1.078167   0.020704
     3  C    1.510610  -0.022314
     4  C   -0.207836   0.017251
     5  O   -0.228395   0.007039
     6  O   -0.043254  -0.020948
     7  C   -0.289070   0.696672
     8  C    0.179254   0.022142
    14  O    0.156859   0.279453
 APT charges:
               1
     1  C   -0.156138
     2  H    0.236623
     3  C   -0.305626
     4  C    1.591354
     5  O   -0.832728
     6  O   -1.029834
     7  C    0.776745
     8  C   -0.129429
     9  H   -0.021444
    10  H   -0.036751
    11  H    0.044106
    12  H    0.020900
    13  H    0.033379
    14  O   -0.455249
    15  H    0.264093
 Sum of APT charges =  -0.00000
 APT charges with hydrogens summed into heavy atoms:
               1
     1  C    0.080485
     3  C   -0.305626
     4  C    1.591354
     5  O   -0.832728
     6  O   -1.029834
     7  C    0.755301
     8  C   -0.031044
    14  O   -0.227907
 Electronic spatial extent (au):  <R**2>=           1192.4138
 Charge=              0.0000 electrons
 Dipole moment (field-independent basis, Debye):
    X=              2.2233    Y=              4.3421    Z=             -0.1828  Tot=              4.8817
 Quadrupole moment (field-independent basis, Debye-Ang):
   XX=            -56.9848   YY=            -45.8462   ZZ=            -47.8848
   XY=              7.6195   XZ=             -6.8427   YZ=              0.1485
 Traceless Quadrupole moment (field-independent basis, Debye-Ang):
   XX=             -6.7462   YY=              4.3924   ZZ=              2.3538
   XY=              7.6195   XZ=             -6.8427   YZ=              0.1485
 Octapole moment (field-independent basis, Debye-Ang**2):
  XXX=             49.1013  YYY=              7.0122  ZZZ=              4.4108  XYY=             -9.1548
  XXY=             20.3304  XXZ=              4.4232  XZZ=              1.5049  YZZ=              0.6056
  YYZ=             -7.2776  XYZ=             -3.1437
 Hexadecapole moment (field-independent basis, Debye-Ang**3):
 XXXX=          -1109.8131 YYYY=           -400.9787 ZZZZ=           -157.0479 XXXY=             68.2631
 XXXZ=            -65.4340 YYYX=             46.5848 YYYZ=             -1.3410 ZZZX=             -1.0452
 ZZZY=             -4.3308 XXYY=           -179.3127 XXZZ=           -197.6518 YYZZ=            -91.0909
 XXYZ=            -22.1142 YYXZ=            -14.7552 ZZXY=              1.6030
 N-N= 3.508226785663D+02 E-N=-1.685458312480D+03  KE= 4.187661296618D+02
  Exact polarizability:  92.431  10.952  79.482   0.376  -3.998  54.092
 Approx polarizability:  94.540  13.399  98.773  -0.483 -10.965  63.574
                          Isotropic Fermi Contact Couplings
        Atom                 a.u.       MegaHertz       Gauss      10(-4) cm-1
     1  C(13)              0.00333       3.74412       1.33599       1.24890
     2  H(1)              -0.00010      -0.42931      -0.15319      -0.14320
     3  C(13)             -0.00020      -0.22869      -0.08160      -0.07628
     4  C(13)              0.03397      38.18504      13.62537      12.73716
     5  O(17)              0.00033      -0.19927      -0.07110      -0.06647
     6  O(17)              0.05061     -30.68241     -10.94825     -10.23455
     7  C(13)              0.26981     303.31675     108.23096     101.17558
     8  C(13)             -0.00649      -7.29853      -2.60430      -2.43453
     9  H(1)              -0.00255     -11.41288      -4.07240      -3.80693
    10  H(1)              -0.03020    -135.01172     -48.17554     -45.03506
    11  H(1)               0.00467      20.89362       7.45536       6.96936
    12  H(1)               0.02003      89.51973      31.94287      29.86057
    13  H(1)               0.00110       4.89552       1.74684       1.63297
    14  O(17)              0.07280     -44.13209     -15.74743     -14.72088
    15  H(1)              -0.00504     -22.53432      -8.04081      -7.51664
 --------------------------------------------------------
       Center         ----  Spin Dipole Couplings  ----
                      3XX-RR        3YY-RR        3ZZ-RR
 --------------------------------------------------------
     1   Atom        0.011251     -0.006931     -0.004320
     2   Atom        0.002070     -0.000609     -0.001461
     3   Atom        0.006371     -0.001157     -0.005215
     4   Atom        0.023633     -0.005943     -0.017690
     5   Atom       -0.000754     -0.012592      0.013346
     6   Atom        0.073157     -0.059742     -0.013415
     7   Atom        0.603175     -0.250747     -0.352428
     8   Atom       -0.009498      0.003382      0.006116
     9   Atom       -0.004703     -0.031204      0.035907
    10   Atom        0.152432     -0.041511     -0.110921
    11   Atom       -0.006312     -0.007803      0.014115
    12   Atom        0.001149     -0.001847      0.000698
    13   Atom       -0.005389      0.010690     -0.005302
    14   Atom        0.912903     -0.222304     -0.690599
    15   Atom       -0.008094      0.051690     -0.043596
 --------------------------------------------------------
                        XY            XZ            YZ
 --------------------------------------------------------
     1   Atom       -0.000541      0.004930     -0.001007
     2   Atom        0.001640     -0.000724     -0.000628
     3   Atom        0.000404     -0.002094     -0.002119
     4   Atom       -0.020892     -0.005078      0.002402
     5   Atom       -0.019314     -0.035398      0.008824
     6   Atom        0.085602      0.060626      0.064215
     7   Atom        0.425538      0.259949      0.108014
     8   Atom        0.017033      0.015926      0.027705
     9   Atom        0.026388     -0.023416     -0.029698
    10   Atom        0.146624      0.060480      0.028167
    11   Atom       -0.000136     -0.004263      0.005501
    12   Atom        0.004049      0.004592      0.008184
    13   Atom       -0.004525     -0.001522      0.008870
    14   Atom        0.948631      0.292929      0.172933
    15   Atom       -0.019251      0.018132     -0.027892
 --------------------------------------------------------


 ---------------------------------------------------------------------------------
              Anisotropic Spin Dipole Couplings in Principal Axis System
 ---------------------------------------------------------------------------------

       Atom             a.u.   MegaHertz   Gauss  10(-4) cm-1        Axes

              Baa    -0.0074    -0.989    -0.353    -0.330 -0.0908  0.8929  0.4409
     1 C(13)  Bbb    -0.0053    -0.717    -0.256    -0.239 -0.2680 -0.4483  0.8527
              Bcc     0.0127     1.706     0.609     0.569  0.9591 -0.0408  0.2800
 
              Baa    -0.0018    -0.962    -0.343    -0.321 -0.0716  0.5394  0.8390
     2 H(1)   Bbb    -0.0012    -0.659    -0.235    -0.220 -0.4698  0.7237 -0.5054
              Bcc     0.0030     1.621     0.578     0.541  0.8799  0.4303 -0.2016
 
              Baa    -0.0064    -0.855    -0.305    -0.285  0.1399  0.3635  0.9210
     3 C(13)  Bbb    -0.0004    -0.060    -0.021    -0.020 -0.1597  0.9263 -0.3414
              Bcc     0.0068     0.914     0.326     0.305  0.9772  0.0993 -0.1876
 
              Baa    -0.0183    -2.457    -0.877    -0.820  0.1513  0.0640  0.9864
     4 C(13)  Bbb    -0.0167    -2.244    -0.801    -0.749  0.4436  0.8874 -0.1256
              Bcc     0.0350     4.702     1.678     1.568  0.8834 -0.4565 -0.1059
 
              Baa    -0.0348     2.517     0.898     0.840  0.7507  0.4679  0.4663
     5 O(17)  Bbb    -0.0137     0.990     0.353     0.330 -0.1925  0.8302 -0.5232
              Bcc     0.0485    -3.506    -1.251    -1.170 -0.6320  0.3030  0.7133
 
              Baa    -0.1150     8.324     2.970     2.776 -0.2733  0.8784 -0.3921
     6 O(17)  Bbb    -0.0412     2.984     1.065     0.995 -0.5641  0.1838  0.8050
              Bcc     0.1563   -11.308    -4.035    -3.772  0.7792  0.4411  0.4453
 
              Baa    -0.4266   -57.250   -20.428   -19.096 -0.3671  0.9279 -0.0646
     7 C(13)  Bbb    -0.4186   -56.166   -20.042   -18.735 -0.2364 -0.0259  0.9713
              Bcc     0.8452   113.416    40.470    37.832  0.8996  0.3719  0.2288
 
              Baa    -0.0234    -3.143    -1.122    -1.049 -0.3028  0.7712 -0.5600
     8 C(13)  Bbb    -0.0194    -2.606    -0.930    -0.869  0.8620 -0.0290 -0.5061
              Bcc     0.0428     5.750     2.052     1.918  0.4065  0.6360  0.6560
 
              Baa    -0.0501   -26.707    -9.530    -8.909 -0.4170  0.8881  0.1932
     9 H(1)   Bbb    -0.0123    -6.539    -2.333    -2.181  0.7979  0.2559  0.5457
              Bcc     0.0623    33.246    11.863    11.090 -0.4352 -0.3818  0.8154
 
              Baa    -0.1259   -67.200   -23.979   -22.415 -0.3976  0.4179  0.8169
    10 H(1)   Bbb    -0.1178   -62.859   -22.430   -20.968 -0.3016  0.7813 -0.5465
              Bcc     0.2438   130.059    46.408    43.383  0.8666  0.4636  0.1846
 
              Baa    -0.0094    -5.020    -1.791    -1.674 -0.3345  0.9024 -0.2717
    11 H(1)   Bbb    -0.0068    -3.621    -1.292    -1.208  0.9245  0.3701  0.0912
              Bcc     0.0162     8.641     3.083     2.882 -0.1828  0.2207  0.9581
 
              Baa    -0.0089    -4.726    -1.686    -1.576 -0.0113  0.7621 -0.6473
    12 H(1)   Bbb    -0.0025    -1.342    -0.479    -0.448  0.8579 -0.3252 -0.3978
              Bcc     0.0114     6.068     2.165     2.024  0.5137  0.5598  0.6502
 
              Baa    -0.0093    -4.970    -1.773    -1.658 -0.1487 -0.4287  0.8911
    13 H(1)   Bbb    -0.0064    -3.411    -1.217    -1.138  0.9641  0.1375  0.2271
              Bcc     0.0157     8.381     2.990     2.796 -0.2199  0.8929  0.3929
 
              Baa    -0.7620    55.140    19.675    18.393 -0.4309  0.8523 -0.2965
    14 O(17)  Bbb    -0.7415    53.652    19.144    17.896 -0.2752  0.1888  0.9427
              Bcc     1.5035  -108.792   -38.820   -36.289  0.8594  0.4878  0.1532
 
              Baa    -0.0549   -29.269   -10.444    -9.763 -0.2840  0.1945  0.9389
    15 H(1)   Bbb    -0.0118    -6.299    -2.247    -2.101  0.9098  0.3636  0.1999
              Bcc     0.0667    35.568    12.692    11.864 -0.3026  0.9110 -0.2802
 

 ---------------------------------------------------------------------------------

 Calling FoFJK, ICntrl=    100127 FMM=F ISym2X=0 I1Cent= 0 IOpClX= 1 NMat=1 NMatS=1 NMatT=0.
 Full mass-weighted force constant matrix:
 Low frequencies ----1215.0653  -20.7999   -0.0002    0.0010    0.0011   11.1356
 Low frequencies ---   24.3813   38.0821   72.0570
 ******    1 imaginary frequencies (negative Signs) ****** 
 Diagonal vibrational polarizability:
       33.2293615      22.4522574      53.2154378
 Harmonic frequencies (cm**-1), IR intensities (KM/Mole), Raman scattering
 activities (A**4/AMU), depolarization ratios for plane and unpolarized
 incident light, reduced masses (AMU), force constants (mDyne/A),
 and normal coordinates:
                      1                      2                      3
                      A                      A                      A
 Frequencies --  -1215.0645                37.1947                70.0370
 Red. masses --      1.1493                 5.1372                 5.5149
 Frc consts  --      0.9997                 0.0042                 0.0159
 IR Inten    --    277.7953                 0.4292                 1.6126
  Atom  AN      X      Y      Z        X      Y      Z        X      Y      Z
     1   6    -0.00   0.00  -0.00     0.01  -0.10  -0.23    -0.06  -0.01  -0.19
     2   1    -0.00   0.00   0.00     0.02  -0.15  -0.33    -0.09  -0.03  -0.31
     3   6     0.00   0.00  -0.00     0.01  -0.05  -0.12    -0.02   0.01  -0.07
     4   6    -0.01   0.00   0.00     0.01   0.00   0.02     0.02   0.03   0.05
     5   8     0.00   0.00   0.00    -0.01  -0.02  -0.04     0.06   0.13   0.30
     6   8     0.01  -0.01   0.00     0.02   0.09   0.24    -0.01  -0.09  -0.21
     7   6    -0.10  -0.03  -0.03     0.01   0.06   0.17     0.00  -0.02   0.01
     8   6     0.01   0.00   0.00    -0.22   0.02   0.17     0.06  -0.22   0.19
     9   1     0.08   0.04   0.07     0.17   0.12   0.26    -0.02   0.13   0.06
    10   1     0.86   0.42   0.19     0.13   0.00  -0.14    -0.05   0.10  -0.06
    11   1     0.00   0.01  -0.00    -0.32  -0.03   0.07     0.08  -0.36   0.12
    12   1     0.01  -0.01  -0.02    -0.28   0.04   0.33     0.08  -0.30   0.21
    13   1     0.00   0.00   0.00    -0.21  -0.00   0.10     0.07  -0.15   0.37
    14   8    -0.00  -0.00   0.00     0.14  -0.01  -0.21    -0.06   0.16  -0.10
    15   1     0.09   0.02   0.02     0.12   0.01  -0.14    -0.10   0.11  -0.20
                      4                      5                      6
                      A                      A                      A
 Frequencies --    127.0247               146.5888               182.2460
 Red. masses --      4.3534                 4.7046                 1.3751
 Frc consts  --      0.0414                 0.0596                 0.0269
 IR Inten    --      0.8558                 4.7864                 0.5978
  Atom  AN      X      Y      Z        X      Y      Z        X      Y      Z
     1   6     0.34  -0.16   0.03     0.08   0.00   0.02     0.05  -0.03   0.00
     2   1     0.55  -0.31   0.07     0.10  -0.00   0.03     0.10  -0.07   0.00
     3   6     0.07   0.03  -0.02     0.05   0.02   0.00    -0.02   0.02  -0.00
     4   6    -0.02   0.08  -0.05     0.10  -0.02   0.01    -0.01   0.02   0.01
     5   8    -0.06   0.08   0.01     0.17   0.00  -0.04     0.02   0.03  -0.02
     6   8    -0.02   0.07  -0.15     0.09  -0.06   0.12    -0.01  -0.01   0.05
     7   6    -0.07   0.08  -0.05     0.02  -0.15  -0.03    -0.05  -0.03   0.04
     8   6    -0.18  -0.06   0.06    -0.22  -0.08  -0.12     0.07   0.03   0.02
     9   1    -0.07   0.20   0.01     0.08  -0.17  -0.01    -0.11  -0.06  -0.00
    10   1    -0.04  -0.03   0.03    -0.02   0.00  -0.02    -0.05  -0.03   0.03
    11   1    -0.12  -0.22   0.00    -0.25  -0.08  -0.14     0.57  -0.08   0.26
    12   1    -0.22   0.03   0.09    -0.31   0.10  -0.04     0.10   0.39  -0.41
    13   1    -0.30  -0.10   0.16    -0.33  -0.20  -0.26    -0.34  -0.19   0.17
    14   8    -0.01  -0.11   0.13    -0.21   0.24   0.04    -0.05  -0.02  -0.08
    15   1     0.09  -0.07   0.11    -0.47   0.16   0.13    -0.08  -0.05  -0.12
                      7                      8                      9
                      A                      A                      A
 Frequencies --    197.5215               248.1909               257.6940
 Red. masses --      1.9976                 1.3167                 2.7598
 Frc consts  --      0.0459                 0.0478                 0.1080
 IR Inten    --      1.7300                80.3209                16.4672
  Atom  AN      X      Y      Z        X      Y      Z        X      Y      Z
     1   6     0.11  -0.05   0.01     0.01   0.02   0.06    -0.00  -0.05  -0.14
     2   1     0.23  -0.14   0.04     0.03   0.05   0.20    -0.01  -0.18  -0.49
     3   6    -0.07   0.07  -0.02    -0.03  -0.03  -0.11     0.01   0.12   0.30
     4   6    -0.03   0.05  -0.00    -0.01  -0.01  -0.04    -0.00   0.04   0.10
     5   8     0.06   0.08  -0.04     0.00   0.02   0.03    -0.01  -0.02  -0.10
     6   8    -0.04  -0.04   0.07    -0.01  -0.00   0.01    -0.01  -0.02  -0.04
     7   6    -0.06  -0.06   0.05    -0.00  -0.00   0.01    -0.00  -0.00  -0.02
     8   6     0.10   0.02   0.01     0.02  -0.01   0.02     0.02  -0.02  -0.00
     9   1    -0.11  -0.11   0.00     0.01   0.00   0.01    -0.00   0.00  -0.02
    10   1    -0.08  -0.04   0.04     0.03  -0.02  -0.10     0.02  -0.02  -0.09
    11   1    -0.27   0.26  -0.07     0.03  -0.01   0.02     0.01  -0.02  -0.01
    12   1     0.17  -0.41   0.20     0.03  -0.03   0.00     0.03  -0.05   0.01
    13   1     0.54   0.26  -0.12     0.02   0.00   0.04     0.04   0.00   0.02
    14   8    -0.08  -0.04  -0.06     0.02  -0.01  -0.05     0.01  -0.01  -0.04
    15   1    -0.08  -0.08  -0.17    -0.26   0.19   0.90    -0.20   0.15   0.71
                     10                     11                     12
                      A                      A                      A
 Frequencies --    313.0873               415.1329               532.0481
 Red. masses --      5.4156                 3.4145                 6.3321
 Frc consts  --      0.3128                 0.3467                 1.0561
 IR Inten    --      1.0736                10.8598                 7.5060
  Atom  AN      X      Y      Z        X      Y      Z        X      Y      Z
     1   6     0.01   0.12  -0.04    -0.02  -0.04   0.01    -0.16  -0.21   0.09
     2   1    -0.22   0.28  -0.08    -0.05  -0.02  -0.01    -0.16  -0.22   0.09
     3   6     0.31  -0.11   0.01     0.01  -0.05   0.03    -0.14  -0.19   0.07
     4   6     0.14   0.00   0.00     0.04  -0.07  -0.03    -0.01  -0.08   0.04
     5   8    -0.11  -0.11   0.05     0.12  -0.02   0.02     0.33   0.04  -0.04
     6   8     0.15   0.17  -0.01    -0.00  -0.12  -0.20     0.02   0.18  -0.00
     7   6    -0.14   0.03   0.02    -0.05   0.02   0.19     0.00   0.26  -0.19
     8   6     0.03   0.03   0.07    -0.09   0.24   0.07     0.00   0.04   0.04
     9   1    -0.29   0.10  -0.03    -0.20   0.11   0.16     0.21   0.31  -0.07
    10   1    -0.06  -0.15   0.11    -0.02   0.01   0.11     0.04   0.04  -0.09
    11   1    -0.05   0.11   0.07    -0.20   0.56   0.19     0.07  -0.30  -0.12
    12   1     0.12  -0.23   0.06    -0.13   0.41   0.04     0.03  -0.12   0.11
    13   1     0.23   0.18   0.12    -0.06   0.13  -0.33    -0.02   0.15   0.42
    14   8    -0.26  -0.12  -0.10     0.00  -0.01  -0.03    -0.13  -0.08  -0.01
    15   1    -0.42  -0.15   0.04    -0.03   0.01   0.08    -0.04  -0.04  -0.02
                     13                     14                     15
                      A                      A                      A
 Frequencies --    616.4209               653.6543               738.7375
 Red. masses --      3.9781                 2.5416                 1.3066
 Frc consts  --      0.8906                 0.6398                 0.4201
 IR Inten    --      4.9596                 0.3887                39.5043
  Atom  AN      X      Y      Z        X      Y      Z        X      Y      Z
     1   6    -0.02  -0.02   0.01     0.02   0.05  -0.02    -0.11   0.09  -0.03
     2   1    -0.31   0.19  -0.04    -0.11   0.14  -0.04     0.80  -0.53   0.18
     3   6     0.26  -0.21   0.05     0.15  -0.05   0.01     0.06  -0.03   0.01
     4   6    -0.07   0.06  -0.00    -0.09   0.03  -0.02    -0.00  -0.01  -0.00
     5   8     0.09   0.13  -0.06    -0.01   0.08  -0.02     0.01  -0.01   0.00
     6   8    -0.15  -0.02   0.04    -0.12  -0.11   0.03    -0.01  -0.01   0.01
     7   6    -0.19  -0.04  -0.00     0.16   0.04  -0.01    -0.01   0.01  -0.01
     8   6    -0.02  -0.05  -0.04     0.03   0.03   0.03    -0.00   0.00   0.00
     9   1    -0.40  -0.18  -0.16     0.78   0.14   0.32     0.03   0.01   0.02
    10   1    -0.32   0.15  -0.06     0.16   0.01  -0.19    -0.05   0.05  -0.05
    11   1     0.06  -0.01   0.04    -0.01   0.00  -0.02     0.01   0.01   0.01
    12   1     0.07  -0.19  -0.17    -0.04   0.17   0.09     0.01  -0.02  -0.02
    13   1     0.05   0.04   0.08    -0.05  -0.04  -0.05     0.01   0.02   0.02
    14   8     0.12   0.07   0.02    -0.11  -0.07  -0.00    -0.01  -0.00   0.00
    15   1     0.37   0.20   0.07    -0.07  -0.07  -0.03     0.10   0.05   0.02
                     16                     17                     18
                      A                      A                      A
 Frequencies --    744.3019               756.0525               778.7824
 Red. masses --      2.0742                12.0282                 1.2847
 Frc consts  --      0.6770                 4.0509                 0.4591
 IR Inten    --     38.3375                23.4846                37.3905
  Atom  AN      X      Y      Z        X      Y      Z        X      Y      Z
     1   6     0.10   0.07  -0.03     0.01   0.05   0.06    -0.00  -0.05  -0.14
     2   1    -0.05   0.19  -0.06     0.07   0.00   0.04     0.03   0.35   0.92
     3   6    -0.01   0.11  -0.03    -0.01  -0.11  -0.36     0.00   0.02   0.05
     4   6     0.04  -0.11   0.02     0.06   0.26   0.81     0.00   0.01   0.03
     5   8     0.05  -0.12   0.04    -0.01  -0.10  -0.22     0.00  -0.00  -0.01
     6   8    -0.06  -0.05   0.03    -0.04  -0.08  -0.15    -0.00  -0.00  -0.00
     7   6    -0.07   0.06  -0.06     0.02   0.03  -0.01     0.00   0.00  -0.00
     8   6    -0.02   0.04   0.01     0.00   0.01  -0.00     0.00   0.00   0.00
     9   1     0.15   0.05   0.04    -0.05   0.01  -0.06    -0.01  -0.01  -0.01
    10   1    -0.30   0.33  -0.28     0.02   0.00  -0.01     0.00  -0.00   0.01
    11   1     0.06  -0.03   0.02    -0.03  -0.04  -0.05    -0.00  -0.01  -0.00
    12   1     0.05  -0.08  -0.06    -0.04   0.06   0.07    -0.00   0.00   0.01
    13   1     0.01   0.12   0.18    -0.03  -0.01   0.01    -0.00   0.00   0.00
    14   8    -0.05  -0.01  -0.00    -0.01  -0.01  -0.01     0.00  -0.00  -0.00
    15   1     0.63   0.32   0.11    -0.02  -0.00   0.02    -0.01  -0.01   0.00
                     19                     20                     21
                      A                      A                      A
 Frequencies --    807.0609               837.4587               966.0581
 Red. masses --      1.6342                 1.2446                 2.2565
 Frc consts  --      0.6271                 0.5143                 1.2408
 IR Inten    --     56.0289                19.7088                18.6232
  Atom  AN      X      Y      Z        X      Y      Z        X      Y      Z
     1   6    -0.05  -0.07   0.03    -0.02  -0.02   0.01    -0.04  -0.05   0.02
     2   1    -0.06  -0.05   0.05    -0.01  -0.03   0.00    -0.03  -0.06   0.03
     3   6    -0.04  -0.04   0.01     0.00  -0.02   0.01    -0.02  -0.03   0.01
     4   6     0.03   0.07  -0.00     0.00   0.03  -0.02     0.07   0.08  -0.03
     5   8    -0.04   0.04  -0.02    -0.02   0.03  -0.01    -0.07   0.05  -0.01
     6   8     0.09   0.06  -0.03     0.02  -0.01   0.01     0.10  -0.12   0.01
     7   6     0.00  -0.07   0.06     0.07  -0.01   0.01    -0.02  -0.07  -0.09
     8   6    -0.01  -0.07  -0.01     0.06   0.02   0.01    -0.07   0.17   0.06
     9   1     0.27   0.18   0.29    -0.25  -0.23  -0.23     0.10  -0.29  -0.14
    10   1    -0.16   0.21  -0.33    -0.13   0.31   0.31     0.01  -0.10  -0.42
    11   1     0.03   0.26   0.19    -0.13  -0.19  -0.22     0.12  -0.14   0.00
    12   1     0.08  -0.04  -0.27    -0.16   0.25   0.41     0.04  -0.17   0.08
    13   1     0.11  -0.08  -0.26    -0.16  -0.14  -0.05    -0.04   0.38   0.61
    14   8    -0.05  -0.01   0.00    -0.06  -0.03  -0.03     0.01   0.01   0.02
    15   1     0.49   0.24   0.07     0.38   0.20   0.11     0.05   0.02  -0.02
                     22                     23                     24
                      A                      A                      A
 Frequencies --   1034.1262              1115.9743              1142.9381
 Red. masses --      1.1461                 2.9478                 3.2972
 Frc consts  --      0.7221                 2.1630                 2.5377
 IR Inten    --     57.1575                27.9534               121.6629
  Atom  AN      X      Y      Z        X      Y      Z        X      Y      Z
     1   6    -0.00  -0.01  -0.00    -0.02  -0.02   0.01     0.02   0.02  -0.01
     2   1    -0.01  -0.01  -0.00    -0.02  -0.03   0.01     0.03   0.03  -0.01
     3   6    -0.00  -0.00  -0.00    -0.01  -0.01   0.01     0.01   0.01  -0.00
     4   6     0.01   0.01  -0.00     0.07   0.04  -0.03    -0.05  -0.06   0.02
     5   8    -0.01   0.01  -0.00    -0.03   0.01   0.00     0.06  -0.03   0.01
     6   8     0.01  -0.03   0.00     0.03  -0.11   0.01    -0.10   0.20  -0.11
     7   6     0.05   0.01  -0.03    -0.05   0.19   0.24     0.12  -0.22   0.17
     8   6    -0.08   0.00  -0.01     0.01  -0.02  -0.23    -0.05   0.09  -0.08
     9   1     0.19   0.06   0.07    -0.10   0.27   0.27     0.18  -0.44   0.11
    10   1    -0.25   0.17   0.80     0.08   0.00  -0.01     0.17   0.05  -0.03
    11   1     0.11   0.07   0.14     0.15  -0.54  -0.45     0.21  -0.32  -0.15
    12   1     0.09  -0.21  -0.26     0.05  -0.33  -0.03     0.06  -0.35   0.04
    13   1     0.10   0.17   0.14    -0.07   0.06   0.17    -0.06   0.24   0.43
    14   8     0.01  -0.01  -0.03    -0.02  -0.01  -0.00    -0.02  -0.01  -0.00
    15   1    -0.01   0.02   0.06     0.03   0.01   0.01     0.07   0.03   0.01
                     25                     26                     27
                      A                      A                      A
 Frequencies --   1185.2441              1236.9707              1368.6956
 Red. masses --      1.6561                 7.5361                 1.2067
 Frc consts  --      1.3707                 6.7938                 1.3318
 IR Inten    --     11.4916               694.2036                 5.2147
  Atom  AN      X      Y      Z        X      Y      Z        X      Y      Z
     1   6     0.01   0.02  -0.01    -0.07  -0.09   0.04     0.01   0.01  -0.00
     2   1     0.01   0.02  -0.01    -0.03  -0.14   0.05     0.01   0.01  -0.00
     3   6     0.01   0.00   0.00    -0.04  -0.01   0.01     0.00  -0.00  -0.00
     4   6    -0.08  -0.03   0.01     0.56   0.17  -0.11    -0.03  -0.02   0.01
     5   8     0.00   0.02  -0.00    -0.03  -0.04   0.02     0.00   0.01  -0.00
     6   8     0.02  -0.03   0.01    -0.37   0.03   0.04     0.00  -0.01   0.02
     7   6     0.16   0.08   0.03     0.14  -0.02  -0.03     0.04  -0.09  -0.03
     8   6    -0.10  -0.04   0.02    -0.04  -0.05   0.03     0.01  -0.00  -0.07
     9   1    -0.55  -0.10  -0.37    -0.36   0.16  -0.19    -0.32   0.71   0.14
    10   1     0.37  -0.01  -0.20     0.34  -0.01  -0.04    -0.00  -0.01  -0.01
    11   1     0.12   0.13   0.24     0.07   0.18   0.22     0.14   0.20   0.14
    12   1     0.08  -0.17  -0.33    -0.02   0.05  -0.09    -0.15   0.08   0.35
    13   1     0.19   0.12  -0.03     0.15   0.05  -0.06    -0.01   0.13   0.33
    14   8    -0.05  -0.01  -0.00    -0.02  -0.01   0.00    -0.00   0.00   0.00
    15   1     0.18   0.08   0.01    -0.01  -0.02  -0.01     0.02   0.01   0.00
                     28                     29                     30
                      A                      A                      A
 Frequencies --   1410.8247              1475.1893              1478.0783
 Red. masses --      1.3200                 1.0412                 1.0499
 Frc consts  --      1.5480                 1.3350                 1.3515
 IR Inten    --     33.4361                 4.5045                 1.6031
  Atom  AN      X      Y      Z        X      Y      Z        X      Y      Z
     1   6     0.00   0.00  -0.00     0.00   0.00  -0.00     0.00   0.00   0.00
     2   1     0.00   0.00  -0.00    -0.00   0.00  -0.00    -0.00   0.00  -0.00
     3   6     0.00  -0.00   0.00     0.00  -0.00   0.00     0.00   0.00  -0.00
     4   6    -0.01  -0.01   0.01    -0.01  -0.00   0.00    -0.00   0.00  -0.00
     5   8    -0.00   0.01  -0.00     0.00   0.00  -0.00     0.00  -0.00   0.00
     6   8    -0.01  -0.00   0.01     0.00   0.00   0.00     0.00   0.00   0.00
     7   6     0.03  -0.07  -0.04     0.00  -0.03   0.01    -0.02  -0.00  -0.01
     8   6     0.00   0.11   0.09    -0.01  -0.03   0.03    -0.05   0.01   0.01
     9   1    -0.22   0.46   0.07    -0.05   0.12   0.05     0.04  -0.02   0.01
    10   1    -0.02  -0.02   0.00    -0.02   0.01  -0.00    -0.03   0.02  -0.02
    11   1    -0.07  -0.41  -0.26    -0.24  -0.29  -0.29     0.57  -0.36   0.17
    12   1     0.26  -0.34  -0.26    -0.06   0.55  -0.37    -0.16   0.08   0.32
    13   1    -0.18  -0.18  -0.40     0.43   0.31   0.15     0.40   0.14  -0.44
    14   8     0.00   0.00  -0.00     0.00   0.00  -0.00     0.00   0.00   0.00
    15   1     0.02   0.01   0.01    -0.01  -0.00   0.00    -0.02  -0.01  -0.00
                     31                     32                     33
                      A                      A                      A
 Frequencies --   1651.5795              1878.3175              2254.4203
 Red. masses --      1.0447                12.9195                 5.7226
 Frc consts  --      1.6789                26.8555                17.1360
 IR Inten    --     65.4618               475.9272                68.1526
  Atom  AN      X      Y      Z        X      Y      Z        X      Y      Z
     1   6    -0.00  -0.00   0.00    -0.03  -0.04   0.02    -0.22  -0.29   0.11
     2   1    -0.00  -0.00   0.00    -0.07  -0.05   0.02    -0.45  -0.57   0.23
     3   6     0.00  -0.00   0.00     0.03   0.02  -0.01     0.31   0.40  -0.16
     4   6    -0.00   0.00  -0.00    -0.32   0.71  -0.23    -0.04  -0.07   0.03
     5   8     0.00  -0.00   0.00     0.22  -0.48   0.15    -0.00   0.00  -0.00
     6   8     0.01  -0.00   0.00     0.00  -0.02   0.01    -0.00   0.00   0.00
     7   6     0.03   0.00   0.01     0.03  -0.02   0.00    -0.00  -0.00  -0.00
     8   6    -0.01  -0.00  -0.00    -0.00   0.01   0.00    -0.00   0.00  -0.00
     9   1    -0.08  -0.00  -0.05    -0.05   0.07   0.01    -0.01   0.00   0.00
    10   1    -0.23   0.80  -0.26     0.00  -0.08   0.02    -0.00  -0.00   0.00
    11   1    -0.01   0.02   0.01    -0.01  -0.01  -0.01    -0.00  -0.00  -0.00
    12   1     0.01  -0.03  -0.03     0.01  -0.01  -0.02    -0.00   0.00   0.00
    13   1    -0.02  -0.00   0.01    -0.01   0.01   0.03     0.00   0.00   0.00
    14   8     0.03  -0.03   0.01    -0.00   0.00  -0.00    -0.00   0.00  -0.00
    15   1    -0.41  -0.23  -0.07     0.06   0.03   0.01     0.00   0.00   0.00
                     34                     35                     36
                      A                      A                      A
 Frequencies --   3044.8096              3129.0071              3137.9264
 Red. masses --      1.0433                 1.0903                 1.0871
 Frc consts  --      5.6986                 6.2895                 6.3065
 IR Inten    --      1.4586                 4.1889                 6.5154
  Atom  AN      X      Y      Z        X      Y      Z        X      Y      Z
     1   6    -0.00   0.00   0.00    -0.00  -0.00  -0.00     0.00  -0.00  -0.00
     2   1     0.00   0.00  -0.00    -0.00   0.00  -0.00     0.00   0.00  -0.00
     3   6    -0.00   0.00   0.00     0.00   0.00  -0.00     0.00  -0.00  -0.00
     4   6    -0.00  -0.00  -0.00    -0.00   0.00  -0.00     0.00   0.00   0.00
     5   8     0.00  -0.00   0.00     0.00  -0.00   0.00    -0.00   0.00  -0.00
     6   8     0.00   0.00  -0.00    -0.00   0.00  -0.00    -0.00   0.00   0.00
     7   6    -0.00   0.00  -0.00    -0.01  -0.01   0.02     0.03   0.03  -0.07
     8   6    -0.03  -0.03  -0.04     0.08   0.00  -0.02     0.03  -0.02   0.01
     9   1    -0.00  -0.01   0.01     0.12   0.11  -0.25    -0.36  -0.34   0.78
    10   1     0.01   0.00   0.00    -0.00  -0.00   0.00     0.01   0.00  -0.01
    11   1    -0.19  -0.17   0.28    -0.30  -0.29   0.50    -0.01  -0.02   0.03
    12   1     0.77   0.25   0.26    -0.43  -0.14  -0.15    -0.15  -0.05  -0.05
    13   1    -0.20   0.29  -0.11    -0.25   0.41  -0.14    -0.18   0.27  -0.10
    14   8    -0.00  -0.00  -0.00     0.00   0.00  -0.00    -0.00  -0.00   0.00
    15   1     0.00  -0.00   0.00     0.00   0.00  -0.00    -0.00  -0.00  -0.00
                     37                     38                     39
                      A                      A                      A
 Frequencies --   3166.7364              3485.0816              3847.2317
 Red. masses --      1.1026                 1.1707                 1.0658
 Frc consts  --      6.5147                 8.3775                 9.2948
 IR Inten    --      4.6771                66.5712                55.0871
  Atom  AN      X      Y      Z        X      Y      Z        X      Y      Z
     1   6    -0.00   0.00  -0.00    -0.07  -0.09   0.04     0.00  -0.00   0.00
     2   1     0.00  -0.00  -0.00     0.58   0.74  -0.30    -0.00  -0.00   0.00
     3   6     0.00   0.00   0.00     0.02   0.03  -0.01     0.00  -0.00  -0.00
     4   6    -0.00   0.00   0.00    -0.00  -0.00   0.00    -0.00   0.00   0.00
     5   8     0.00  -0.00   0.00     0.00  -0.00   0.00     0.00  -0.00   0.00
     6   8     0.00   0.00  -0.00     0.00  -0.00   0.00     0.00  -0.00   0.00
     7   6    -0.01  -0.01   0.02    -0.00   0.00   0.00    -0.00   0.00  -0.00
     8   6     0.01  -0.07   0.06    -0.00  -0.00  -0.00     0.00  -0.00   0.00
     9   1     0.09   0.08  -0.20    -0.00   0.00  -0.00     0.00  -0.00   0.00
    10   1    -0.00  -0.00   0.00     0.00   0.00  -0.00     0.02  -0.00   0.01
    11   1     0.32   0.29  -0.50     0.00   0.00  -0.00    -0.00  -0.00  -0.00
    12   1    -0.00  -0.02   0.01     0.00   0.00   0.00    -0.00   0.00   0.00
    13   1    -0.38   0.57  -0.19     0.00  -0.00   0.00    -0.00   0.00  -0.00
    14   8     0.00   0.00  -0.00     0.00  -0.00   0.00     0.02  -0.06   0.02
    15   1     0.00   0.00   0.00    -0.00   0.00  -0.00    -0.37   0.88  -0.29

 -------------------
 - Thermochemistry -
 -------------------
 Temperature   298.150 Kelvin.  Pressure   1.00000 Atm.
 Atom     1 has atomic number  6 and mass  12.00000
 Atom     2 has atomic number  1 and mass   1.00783
 Atom     3 has atomic number  6 and mass  12.00000
 Atom     4 has atomic number  6 and mass  12.00000
 Atom     5 has atomic number  8 and mass  15.99491
 Atom     6 has atomic number  8 and mass  15.99491
 Atom     7 has atomic number  6 and mass  12.00000
 Atom     8 has atomic number  6 and mass  12.00000
 Atom     9 has atomic number  1 and mass   1.00783
 Atom    10 has atomic number  1 and mass   1.00783
 Atom    11 has atomic number  1 and mass   1.00783
 Atom    12 has atomic number  1 and mass   1.00783
 Atom    13 has atomic number  1 and mass   1.00783
 Atom    14 has atomic number  8 and mass  15.99491
 Atom    15 has atomic number  1 and mass   1.00783
 Molecular mass:   115.03952 amu.
 Principal axes and moments of inertia in atomic units:
                           1         2         3
     Eigenvalues --   643.087781463.636761835.72801
           X            0.99981   0.01517  -0.01257
           Y           -0.01478   0.99942   0.03056
           Z            0.01302  -0.03037   0.99945
 This molecule is an asymmetric top.
 Rotational symmetry number  1.
 Warning -- assumption of classical behavior for rotation
           may cause significant error
 Rotational temperatures (Kelvin)      0.13468     0.05918     0.04718
 Rotational constants (GHZ):           2.80637     1.23305     0.98312
    1 imaginary frequencies ignored.
 Zero-point vibrational energy     277943.0 (Joules/Mol)
                                   66.42998 (Kcal/Mol)
 Warning -- explicit consideration of  12 degrees of freedom as
           vibrations may cause significant error
 Vibrational temperatures:     53.51   100.77   182.76   210.91   262.21
          (Kelvin)            284.19   357.09   370.76   450.46   597.28
                              765.50   886.89   940.46  1062.88  1070.88
                             1087.79  1120.49  1161.18  1204.92  1389.94
                             1487.88  1605.64  1644.43  1705.30  1779.72
                             1969.25  2029.86  2122.47  2126.63  2376.25
                             2702.48  3243.61  4380.80  4501.94  4514.78
                             4556.23  5014.26  5535.31
 
 Zero-point correction=                           0.105863 (Hartree/Particle)
 Thermal correction to Energy=                    0.115684
 Thermal correction to Enthalpy=                  0.116628
 Thermal correction to Gibbs Free Energy=         0.069569
 Sum of electronic and zero-point Energies=           -420.095375
 Sum of electronic and thermal Energies=              -420.085553
 Sum of electronic and thermal Enthalpies=            -420.084609
 Sum of electronic and thermal Free Energies=         -420.131668
 
                     E (Thermal)             CV                S
                      KCal/Mol        Cal/Mol-Kelvin    Cal/Mol-Kelvin
 Total                   72.593             33.412             99.044
 Electronic               0.000              0.000              1.377
 Translational            0.889              2.981             40.136
 Rotational               0.889              2.981             28.937
 Vibrational             70.815             27.450             28.594
 Vibration     1          0.594              1.982              5.403
 Vibration     2          0.598              1.968              4.152
 Vibration     3          0.611              1.926              2.991
 Vibration     4          0.617              1.906              2.716
 Vibration     5          0.630              1.864              2.305
 Vibration     6          0.637              1.843              2.156
 Vibration     7          0.662              1.766              1.743
 Vibration     8          0.667              1.750              1.677
 Vibration     9          0.701              1.649              1.346
 Vibration    10          0.779              1.437              0.909
 Vibration    11          0.887              1.179              0.583
 Vibration    12          0.976              0.997              0.422
                       Q            Log10(Q)             Ln(Q)
 Total Bot       0.100113D-31        -31.999509        -73.681593
 Total V=0       0.494316D+17         16.694005         38.439366
 Vib (Bot)       0.219349D-45        -45.658865       -105.133422
 Vib (Bot)    1  0.556387D+01          0.745377          1.716295
 Vib (Bot)    2  0.294475D+01          0.469049          1.080025
 Vib (Bot)    3  0.160611D+01          0.205775          0.473814
 Vib (Bot)    4  0.138460D+01          0.141323          0.325408
 Vib (Bot)    5  0.110123D+01          0.041876          0.096424
 Vib (Bot)    6  0.101044D+01          0.004509          0.010382
 Vib (Bot)    7  0.787048D+00         -0.103999         -0.239466
 Vib (Bot)    8  0.754581D+00         -0.122294         -0.281593
 Vib (Bot)    9  0.602875D+00         -0.219772         -0.506045
 Vib (Bot)   10  0.424539D+00         -0.372083         -0.856752
 Vib (Bot)   11  0.300017D+00         -0.522854         -1.203917
 Vib (Bot)   12  0.238137D+00         -0.623174         -1.434910
 Vib (V=0)       0.108305D+04          3.034649          6.987536
 Vib (V=0)    1  0.608630D+01          0.784353          1.806040
 Vib (V=0)    2  0.348690D+01          0.542439          1.249013
 Vib (V=0)    3  0.218214D+01          0.338882          0.780305
 Vib (V=0)    4  0.197211D+01          0.294931          0.679103
 Vib (V=0)    5  0.170942D+01          0.232849          0.536154
 Vib (V=0)    6  0.162738D+01          0.211489          0.486970
 Vib (V=0)    7  0.143244D+01          0.156077          0.359379
 Vib (V=0)    8  0.140520D+01          0.147739          0.340182
 Vib (V=0)    9  0.128324D+01          0.108307          0.249385
 Vib (V=0)   10  0.115592D+01          0.062928          0.144898
 Vib (V=0)   11  0.108310D+01          0.034670          0.079831
 Vib (V=0)   12  0.105381D+01          0.022764          0.052415
 Electronic      0.200000D+01          0.301030          0.693147
 Translational   0.484981D+08          7.685724         17.697035
 Rotational      0.470545D+06          5.672602         13.061648
 ***** Axes restored to original set *****
 -------------------------------------------------------------------
 Center     Atomic                   Forces (Hartrees/Bohr)
 Number     Number              X              Y              Z
 -------------------------------------------------------------------
      1        6          -0.000079180    0.000044503    0.000079021
      2        1           0.000046129    0.000059520   -0.000081494
      3        6          -0.000519161   -0.000246115    0.000014162
      4        6           0.002802719   -0.000991073   -0.001186430
      5        8          -0.000700640    0.000050946    0.000049427
      6        8          -0.005903556    0.005624238   -0.001171930
      7        6           0.025688400    0.004333466    0.010777725
      8        6          -0.005851547   -0.002957047   -0.002637479
      9        1          -0.004329501   -0.001876640   -0.002671471
     10        1          -0.034778780   -0.019521128   -0.006110371
     11        1           0.000097581    0.000067175    0.000302144
     12        1           0.000105554   -0.000498674   -0.000391290
     13        1           0.000011763   -0.000033735   -0.000068077
     14        8           0.025860576    0.016086947    0.003792929
     15        1          -0.002450357   -0.000142382   -0.000696867
 -------------------------------------------------------------------
 Cartesian Forces:  Max     0.034778780 RMS     0.008856995

 GradGradGradGradGradGradGradGradGradGradGradGradGradGradGradGradGradGrad
 Berny optimization.
 Search for a local minimum.
 Step number   1 out of a maximum of    2
 All quantities printed in internal units (Hartrees-Bohrs-Radians)
 Second derivative matrix not updated -- analytic derivatives used.
 ITU=  0
     Eigenvalues ---   -0.08662   0.00027   0.00115   0.00139   0.00232
     Eigenvalues ---    0.00322   0.00551   0.00751   0.01535   0.02016
     Eigenvalues ---    0.02540   0.02793   0.03904   0.05132   0.06314
     Eigenvalues ---    0.07032   0.08002   0.08284   0.09014   0.10017
     Eigenvalues ---    0.10913   0.13431   0.14864   0.16706   0.20793
     Eigenvalues ---    0.24155   0.27035   0.33512   0.35914   0.53055
     Eigenvalues ---    0.63789   0.73144   0.77224   0.78746   0.81774
     Eigenvalues ---    0.90000   0.97768   1.80630   2.71102
 Eigenvalue     1 is  -8.66D-02 should be greater than     0.000000 Eigenvector:
                          X10       Y10       X7        Z10       Y7
   1                    0.77972   0.42052  -0.33393   0.17385  -0.12815
                          X14       Z7        Z9        Z12       X15
   1                   -0.12183  -0.09415   0.07271  -0.07230   0.05748
 Quadratic step=9.074D-01 exceeds max=3.000D-01 adjusted using Lamda=-1.020D-01.
 Angle between NR and scaled steps=  40.37 degrees.
 Angle between quadratic step and forces=  15.73 degrees.
 Linear search not attempted -- first point.
 B after Tr=     0.011265    0.006419    0.002654
         Rot=    1.000000   -0.000561    0.000081    0.000641 Ang=  -0.10 deg.
 Variable       Old X    -DE/DX   Delta X   Delta X   Delta X     New X
                                 (Linear)    (Quad)   (Total)
    X1        4.66506  -0.00008   0.00000  -0.02560  -0.01100   4.65407
    Y1        2.44666   0.00004   0.00000   0.00103   0.00293   2.44959
    Z1       -1.27066   0.00008   0.00000  -0.00855  -0.00240  -1.27306
    X2        5.85326   0.00005   0.00000  -0.01353   0.00311   5.85637
    Y2        3.95494   0.00006   0.00000  -0.00348  -0.00245   3.95249
    Z2       -1.87669  -0.00008   0.00000  -0.00377   0.00426  -1.87243
    X3        3.34039  -0.00052   0.00000  -0.02548  -0.01317   3.32721
    Y3        0.73982  -0.00025   0.00000   0.00024   0.00308   0.74290
    Z3       -0.58863   0.00001   0.00000  -0.00885  -0.00482  -0.59346
    X4        1.86592   0.00280   0.00000  -0.00870   0.00067   1.86659
    Y4       -1.42732  -0.00099   0.00000  -0.00875  -0.00502  -1.43234
    Z4        0.28267  -0.00119   0.00000  -0.00428  -0.00294   0.27973
    X5        2.81710  -0.00070   0.00000  -0.01176  -0.00497   2.81213
    Y5       -3.37116   0.00005   0.00000  -0.00212  -0.00030  -3.37146
    Z5        0.89710   0.00005   0.00000   0.00306   0.00238   0.89948
    X6       -0.66389  -0.00590   0.00000  -0.02005  -0.01027  -0.67416
    Y6       -1.11374   0.00562   0.00000   0.00293   0.00981  -1.10392
    Z6        0.36670  -0.00117   0.00000  -0.00158  -0.00028   0.36641
    X7       -1.80174   0.02569   0.00000   0.11492   0.12781  -1.67393
    Y7        1.19843   0.00433   0.00000   0.02286   0.03178   1.23021
    Z7       -0.34542   0.01078   0.00000   0.04277   0.04653  -0.29890
    X8       -2.09325  -0.00585   0.00000  -0.02849  -0.01369  -2.10694
    Y8        3.00043  -0.00296   0.00000  -0.01414  -0.00705   2.99338
    Z8        1.82699  -0.00264   0.00000  -0.00630  -0.00064   1.82635
    X9       -0.97934  -0.00433   0.00000  -0.03260  -0.01850  -0.99784
    Y9        1.96883  -0.00188   0.00000  -0.01997  -0.00991   1.95892
    Z9       -2.07008  -0.00267   0.00000  -0.02520  -0.02052  -2.09060
   X10       -4.19442  -0.03478   0.00000  -0.19055  -0.17882  -4.37324
   Y10        0.33830  -0.01952   0.00000  -0.11649  -0.10323   0.23507
   Z10       -1.04778  -0.00611   0.00000  -0.03297  -0.03078  -1.07855
   X11       -3.06681   0.00010   0.00000  -0.01492  -0.00154  -3.06835
   Y11        2.08207   0.00007   0.00000  -0.00923  -0.00267   2.07939
   Z11        3.39452   0.00030   0.00000   0.00154   0.00602   3.40054
   X12       -0.22501   0.00011   0.00000  -0.02091  -0.00542  -0.23042
   Y12        3.62086  -0.00050   0.00000  -0.00946  -0.00549   3.61537
   Z12        2.47288  -0.00039   0.00000  -0.01065  -0.00399   2.46889
   X13       -3.17000   0.00001   0.00000  -0.01692   0.00010  -3.16990
   Y13        4.65847  -0.00003   0.00000  -0.01194  -0.00282   4.65565
   Z13        1.24594  -0.00007   0.00000  -0.01323  -0.00587   1.24007
   X14       -5.94244   0.02586   0.00000   0.11327   0.12370  -5.81875
   Y14       -0.87668   0.01609   0.00000   0.05645   0.07176  -0.80492
   Z14       -1.27980   0.00379   0.00000   0.01675   0.01754  -1.26226
   X15       -5.24074  -0.00245   0.00000  -0.00622   0.00200  -5.23874
   Y15       -2.47328  -0.00014   0.00000   0.00562   0.01960  -2.45368
   Z15       -0.73324  -0.00070   0.00000  -0.00353  -0.00449  -0.73773
         Item               Value     Threshold  Converged?
 Maximum Force            0.034779     0.000450     NO 
 RMS     Force            0.008857     0.000300     NO 
 Maximum Displacement     0.178824     0.001800     NO 
 RMS     Displacement     0.043757     0.001200     NO 
 Predicted change in Energy=-1.950508D-02
 GradGradGradGradGradGradGradGradGradGradGradGradGradGradGradGradGradGrad


 ----------------------------------------------------------------------

 Electric dipole moment (input orientation):
 (Debye = 10**-18 statcoulomb cm , SI units = C m)
                  (au)            (Debye)         (10**-30 SI)
   Tot        0.192060D+01      0.488169D+01      0.162836D+02
   x          0.875805D+00      0.222607D+01      0.742538D+01
   y          0.170777D+01      0.434071D+01      0.144791D+02
   z         -0.722427D-01     -0.183623D+00     -0.612499D+00

 Dipole polarizability, Alpha (input orientation).
 (esu units = cm**3 , SI units = C**2 m**2 J**-1)
 Alpha(0;0):
               (au)            (10**-24 esu)      (10**-40 SI)
   iso        0.753348D+02      0.111635D+02      0.124210D+02
   aniso      0.393622D+02      0.583287D+01      0.648995D+01
   xx         0.924444D+02      0.136989D+02      0.152420D+02
   yx         0.109453D+02      0.162193D+01      0.180464D+01
   yy         0.794660D+02      0.117757D+02      0.131022D+02
   zx         0.378373D+00      0.560690D-01      0.623852D-01
   zy        -0.400353D+01     -0.593262D+00     -0.660093D+00
   zz         0.540940D+02      0.801591D+01      0.891890D+01

 ----------------------------------------------------------------------

 Dipole orientation:
     6          3.20569544         -0.39901765          4.35061448
     1          3.77805082         -0.09159955          6.25636361
     6          2.57535552         -0.75194320          2.20321192
     6          1.93520902         -1.29220516         -0.42891262
     8          3.21967056         -2.58617624         -1.74670497
     8         -0.21841787         -0.24510138         -1.30684258
     6         -1.75985131          1.28011357          0.25701522
     6         -3.73822005         -0.20716877          1.64467603
     1         -0.65327645          2.60463862          1.38192706
     1         -2.95288148          2.75922170         -1.57245143
     1         -4.82930324         -1.35469091          0.32517276
     1         -2.82957172         -1.45788628          3.02398207
     1         -5.01592531          1.05903319          2.64982985
     8         -3.70551475          3.48519413         -3.44117213
     1         -2.73198510          2.41864517         -4.56141956

 Electric dipole moment (dipole orientation):
 (Debye = 10**-18 statcoulomb cm , SI units = C m)
                  (au)            (Debye)         (10**-30 SI)
   Tot        0.192060D+01      0.488169D+01      0.162836D+02
   x          0.000000D+00      0.000000D+00      0.000000D+00
   y          0.000000D+00      0.000000D+00      0.000000D+00
   z          0.192060D+01      0.488169D+01      0.162836D+02

 Dipole polarizability, Alpha (dipole orientation).
 (esu units = cm**3 , SI units = C**2 m**2 J**-1)
 Alpha(0;0):
               (au)            (10**-24 esu)      (10**-40 SI)
   iso        0.753348D+02      0.111635D+02      0.124210D+02
   aniso      0.393622D+02      0.583287D+01      0.648995D+01
   xx         0.731270D+02      0.108363D+02      0.120570D+02
   yx        -0.124652D+02     -0.184715D+01     -0.205524D+01
   yy         0.616177D+02      0.913081D+01      0.101594D+02
   zx         0.112010D+02      0.165982D+01      0.184679D+01
   zy        -0.350699D+01     -0.519682D+00     -0.578224D+00
   zz         0.912597D+02      0.135233D+02      0.150467D+02

 ----------------------------------------------------------------------
 1\1\GINC-AJ\Freq\UM062X\6-311++G(d,p)\C5H7O3(2)\AAYUSH\29-Mar-2025\0\\
 # freq 6-311++g(d,p) m062x\\Title Card Required\\0,2\C,2.468645,1.2947
 18,-0.672404\H,3.097412,2.092862,-0.993102\C,1.767657,0.391498,-0.3114
 91\C,0.987401,-0.755305,0.149585\O,1.490747,-1.78394,0.474724\O,-0.351
 313,-0.589364,0.194047\C,-0.95344,0.634183,-0.182789\C,-1.107699,1.587
 759,0.966803\H,-0.518246,1.041859,-1.09544\H,-2.21959,0.179021,-0.5544
 59\H,-1.622886,1.101782,1.796303\H,-0.119069,1.916076,1.308591\H,-1.67
 7493,2.465158,0.659323\O,-3.144605,-0.46392,-0.677242\H,-2.773281,-1.3
 08804,-0.388015\\Version=ES64L-G16RevA.03\State=2-A\HF=-420.2012375\S2
 =0.758721\S2-1=0.\S2A=0.75004\RMSD=5.357e-09\RMSF=8.857e-03\ZeroPoint=
 0.1058629\Thermal=0.115684\Dipole=0.8758047,1.7077671,-0.0722427\Dipol
 eDeriv=-0.1736161,-0.0144161,0.0158574,-0.0269884,-0.1760767,0.0253456
 ,0.0149969,0.0181597,-0.1187208,0.2525114,0.0205301,-0.0123094,0.03753
 99,0.2500408,-0.0208582,-0.0219917,-0.0196869,0.2073173,-0.4184614,-0.
 2152323,0.099929,-0.2427544,-0.3484009,0.1023028,0.1349101,0.1057285,-
 0.1500156,2.5595612,-0.4028639,-0.0753626,-0.2462109,1.6512174,-0.4293
 762,-0.1909966,-0.4001287,0.5632837,-0.8674827,0.2381834,-0.0228416,0.
 4053753,-1.1962348,0.2574769,-0.0808268,0.2802752,-0.4344668,-1.959199
 ,0.570886,-0.0330932,0.6235682,-0.758333,0.0850135,-0.0463559,0.05418,
 -0.3719699,1.1303515,0.0840992,0.1416733,-0.4323579,0.7728192,0.087771
 5,0.3362015,0.1467486,0.427064,-0.1743243,-0.1557195,-0.1153613,0.0539
 839,-0.0922521,-0.0766818,0.0017687,-0.1351872,-0.1217116,-0.0061809,-
 0.03122,0.0876564,0.0413557,-0.0236271,-0.0075429,-0.0395829,-0.026217
 3,-0.0345252,-0.3021176,-0.2218853,-0.1201511,-0.2786652,0.0130798,-0.
 0638329,-0.0632036,-0.0189307,0.1787836,0.0728654,-0.0089089,0.0575749
 ,-0.0421909,0.0403966,0.0573629,0.0448369,0.022432,0.0190568,-0.018698
 ,-0.0101797,-0.0213916,-0.0603781,0.0364185,-0.0334788,-0.0605677,-0.0
 520972,0.044978,0.0505572,0.0732992,-0.0110121,0.0719947,-0.0081323,0.
 019474,-0.0180104,0.0387367,0.0577123,-0.3712865,0.0057841,0.0656622,-
 0.0779341,-0.4417872,-0.0663718,0.0513065,-0.0456596,-0.5526725,0.2255
 199,0.0676438,-0.0568303,0.1736624,0.2808718,0.0633953,-0.0624851,0.03
 16467,0.2858866\Polar=92.4444423,10.9453203,79.4660461,0.3783726,-4.00
 35322,54.0940174\Quadrupole=-5.0065369,3.2586442,1.7478928,5.668545,-5
 .0902631,0.1142741\PG=C01 [X(C5H7O3)]\NImag=1\\0.57237363,0.66420939,0
 .91075949,-0.26601635,-0.34049676,0.19832770,-0.16439128,-0.17538737,0
 .07032821,0.15435901,-0.17472840,-0.24971114,0.08831145,0.17528836,0.2
 3954153,0.07018863,0.08844556,-0.06581453,-0.07049536,-0.08910676,0.05
 386277,-0.40916461,-0.48692318,0.19484893,0.00639040,0.00267264,-0.000
 76639,0.56845595,-0.48954463,-0.66157338,0.25101971,0.00243663,0.00809
 444,-0.00022353,0.59052164,0.87916190,0.19602573,0.25120609,-0.1352711
 7,-0.00065812,-0.00013824,0.00830495,-0.24155546,-0.32589692,0.1907227
 5,0.00688951,0.00351492,-0.00137979,0.00368796,-0.00420181,0.00152229,
 -0.13390829,-0.08850262,0.03587085,0.59949062,0.00212302,0.00279382,0.
 00024210,-0.00230185,0.00157732,0.00170462,-0.07746123,-0.16176949,0.0
 3603610,-0.17539235,0.90394053,-0.00138847,-0.00054391,0.00322668,0.00
 099956,0.00179389,0.00515905,0.03165794,0.03722369,-0.08996525,0.03178
 014,-0.23652389,0.27738295,-0.00193822,-0.00345295,0.00134719,-0.00049
 428,0.00084493,-0.00031737,0.02044498,-0.00284992,0.00121244,-0.201355
 35,0.24047002,-0.07631743,0.25354605,-0.00125160,0.00023590,-0.0000077
 5,-0.00087685,0.00106998,-0.00070197,0.00158292,-0.06759162,0.03193688
 ,0.24640827,-0.64239429,0.18198832,-0.30963382,0.72007350,0.00072151,0
 .00033359,-0.00003340,0.00026026,-0.00083120,-0.00084238,-0.00052705,0
 .03218634,0.01216334,-0.07772470,0.18171133,-0.13447256,0.09288686,-0.
 21993437,0.10244133,-0.00170112,-0.00457680,0.00172821,0.00079083,0.00
 027118,-0.00010568,-0.04520615,-0.01380718,0.00884112,-0.25111739,-0.0
 2282419,0.02477060,-0.06781312,0.06536990,-0.01675559,0.45871707,0.000
 11362,-0.00063831,0.00028473,0.00071939,-0.00085100,-0.00011946,-0.025
 37423,0.00406796,0.00751380,-0.00673336,-0.08978209,0.01835490,0.07852
 616,-0.01751560,0.00639057,-0.11506646,0.34176321,0.00010147,0.0006650
 3,0.00000819,-0.00042751,0.00001040,-0.00080432,0.01398883,0.00581158,
 0.01367003,0.01931330,0.01902727,-0.05344579,-0.02179614,0.00773048,0.
 01481614,-0.00084077,-0.09342562,0.09859625,-0.00087042,0.00221706,-0.
 00097808,-0.00034972,-0.00020145,0.00000901,-0.00219617,0.00094480,-0.
 00051475,-0.03834488,0.03767456,-0.00986551,0.00173393,-0.00462776,0.0
 0239164,-0.07142617,0.02125017,-0.00041803,0.26927938,-0.00077292,-0.0
 0284512,0.00104907,0.00011514,0.00022476,0.00003269,-0.00640060,-0.000
 96470,-0.00004875,0.04056822,-0.01093389,-0.00272863,-0.00950630,0.008
 61218,-0.00085765,0.06249972,-0.18228210,0.05145518,-0.03775440,0.4220
 0503,-0.00038690,0.00070681,-0.00079419,-0.00008572,0.00000042,0.00009
 091,0.00233828,0.00015831,0.00103483,-0.01453852,-0.00203029,-0.009843
 49,0.00427698,-0.00199500,0.00695471,-0.00623250,0.04729832,-0.0814293
 9,-0.11015585,-0.04826158,0.53550013,0.00024324,-0.00013753,0.00005037
 ,0.00004650,-0.00001213,0.00005278,-0.00064094,0.00015960,-0.00022706,
 0.00575295,0.00129639,0.00136798,-0.00193159,0.00066713,-0.00112023,-0
 .00738713,0.02384606,0.01310957,-0.05729509,0.00291192,0.00479669,0.55
 243907,-0.00001215,0.00028558,-0.00029731,0.00003755,-0.00007598,0.000
 02021,0.00093377,0.00026552,-0.00024683,-0.00769860,-0.00085672,-0.001
 33477,0.00252790,-0.00114556,0.00124549,0.01572522,-0.03584996,-0.0210
 0356,0.01594001,-0.12088384,-0.06044641,-0.01347607,0.54550397,-0.0001
 2267,-0.00047621,0.00003275,-0.00006134,-0.00000296,0.00003467,0.00044
 270,-0.00017957,-0.00039233,0.00338711,0.00246630,0.00127157,-0.001719
 34,0.00063419,-0.00103071,-0.00671026,0.00625973,0.01403134,0.02451020
 ,-0.06467390,-0.17562912,-0.00530627,-0.05847952,0.52038301,-0.0009855
 6,0.00010805,-0.00023421,-0.00010530,-0.00001854,-0.00000601,-0.002994
 21,0.00067777,-0.00015649,0.00474221,0.00037192,-0.00050911,-0.0012293
 6,0.00045461,0.00002374,0.00435459,0.01223886,-0.01803700,-0.08581604,
 -0.03929699,0.12064050,0.00484488,-0.00245834,-0.00248859,0.08407749,-
 0.00017760,0.00037387,-0.00027562,-0.00007063,0.00003613,-0.00001598,0
 .00040318,0.00042133,-0.00022030,-0.00741921,0.00019638,0.00206866,0.0
 0197714,-0.00099547,-0.00042018,-0.00146957,-0.02202552,0.02732475,-0.
 03060404,-0.08336221,0.08341256,0.00920047,0.01150601,-0.01798909,0.03
 214422,0.09744813,0.00065932,-0.00023348,0.00018368,-0.00001468,-0.000
 02851,0.00006663,-0.00042880,-0.00017192,-0.00015101,0.00321700,-0.000
 00307,0.00102942,-0.00050960,-0.00004779,-0.00006709,0.00003527,0.0082
 1346,-0.00350804,0.09496690,0.08251666,-0.24100751,0.01288075,0.009114
 94,-0.01463875,-0.10716733,-0.09369224,0.25820115,0.00008290,-0.000053
 60,0.00009118,0.00006798,0.00000334,-0.00004822,-0.00073739,-0.0001603
 0,0.00039190,0.00495224,-0.00312580,-0.00204812,-0.00101485,0.00150663
 ,-0.00021431,-0.02578138,0.01303002,-0.00644665,0.07530006,0.02780284,
 0.02679792,-0.00963877,-0.00615982,-0.00458029,-0.01012287,-0.00488106
 ,-0.00481873,-0.02107900,0.00000731,-0.00008817,0.00004106,0.00005018,
 0.00004273,-0.00004354,-0.00076662,-0.00021480,0.00019507,0.00516276,-
 0.00365145,0.00036993,-0.00026047,0.00068216,-0.00040619,0.00349983,0.
 00374270,0.00196530,0.05667749,0.00812090,0.02018470,-0.01280035,-0.00
 610859,-0.00616517,-0.00774956,-0.00275365,-0.00368402,-0.04036425,0.0
 6043186,0.00019473,-0.00004738,-0.00000665,0.00000605,-0.00001242,0.00
 002232,-0.00004572,0.00008140,-0.00001989,0.00063762,-0.00010377,-0.00
 007180,-0.00020508,0.00021865,-0.00009850,-0.00789977,0.00251886,-0.00
 243764,0.01178343,0.00540006,-0.00517670,-0.00781456,-0.00518514,-0.00
 537816,0.00666387,0.00214277,-0.00011547,-0.01126340,-0.01898917,0.036
 41179,-0.00000447,0.00024376,0.00000879,0.00003329,-0.00000673,-0.0000
 1787,-0.00005802,0.00003386,0.00018292,-0.00084777,-0.00044207,0.00030
 262,0.00017725,0.00013171,-0.00013241,0.00014737,-0.00004612,-0.000527
 98,-0.00129855,-0.00062333,0.00067188,-0.10800302,-0.05824257,0.100331
 40,0.00080085,-0.00003925,-0.00000177,0.00006846,0.00013095,-0.0004240
 1,0.11254680,0.00000114,0.00000590,0.00005203,0.00003118,-0.00001874,-
 0.00001457,-0.00014124,-0.00001044,0.00005581,0.00071134,0.00006664,0.
 00013575,-0.00022621,0.00012566,-0.00010194,-0.00140259,0.00159581,0.0
 0123471,0.01110150,0.01106244,-0.01850817,-0.05842705,-0.10420145,0.09
 557248,0.00011647,-0.00296483,-0.00347977,0.00051758,0.00046123,-0.000
 24205,0.06431879,0.10850132,-0.00000466,0.00001362,0.00007801,-0.00000
 038,-0.00000952,-0.00001176,-0.00020090,-0.00006598,0.00004118,0.00045
 243,0.00001767,0.00008439,-0.00006906,0.00004261,-0.00006459,-0.001560
 97,0.00048033,0.00234783,0.01114771,0.01140090,-0.02473838,0.09930141,
 0.09402445,-0.20166727,0.00048233,-0.00399026,-0.00209178,0.00173525,0
 .00097676,-0.00043726,-0.10852703,-0.09984837,0.22279247,-0.00027944,0
 .00016364,0.00017973,-0.00000973,-0.00002657,0.00000178,-0.00059657,0.
 00017199,0.00053680,0.00015426,-0.00011278,-0.00038634,0.00001240,-0.0
 0013755,0.00011926,0.00108849,-0.00087474,-0.00002609,0.00266622,-0.00
 045607,-0.00132505,-0.25940304,-0.06759412,-0.06978526,-0.00006172,-0.
 00048482,-0.00049018,0.00205713,0.00123834,0.00030834,-0.01273902,-0.0
 0300382,-0.00513161,0.28131989,0.00002517,0.00006234,0.00018949,-0.000
 01878,0.00009183,0.00000397,0.00016494,-0.00008771,-0.00024340,0.00001
 449,-0.00092469,-0.00043300,0.00018836,-0.00001486,0.00005655,0.000692
 06,0.00253035,0.00151714,-0.01775810,-0.00992208,-0.01080972,-0.071887
 35,-0.06659967,-0.02172908,0.00108281,0.00040523,0.00073563,-0.0003116
 3,-0.00119245,-0.00093134,-0.01248866,-0.00447842,-0.00494014,0.076951
 05,0.07082955,0.00008718,0.00030639,0.00003104,0.00012426,0.00000855,-
 0.00003515,0.00021174,0.00003002,-0.00017792,-0.00083955,-0.00141701,0
 .00047978,0.00037136,0.00027094,-0.00024159,0.00181433,0.00219101,0.00
 128750,-0.02296261,-0.01052117,-0.01432357,-0.07481069,-0.02270322,-0.
 06611244,0.00148530,0.00053986,0.00121954,0.00039225,-0.00132133,-0.00
 079080,0.02226505,0.00658516,0.00867723,0.07976768,0.02877567,0.073381
 43,-0.00002496,-0.00001703,0.00007171,-0.00003694,0.00006586,-0.000002
 81,-0.00010378,0.00003980,0.00013791,0.00052096,-0.00066116,-0.0003718
 3,-0.00001797,0.00004193,0.00002493,0.00133731,0.00034284,0.00060083,-
 0.00295518,0.00003688,-0.00149476,-0.12150856,0.11770288,-0.04024551,-
 0.00004229,-0.00009895,0.00011396,0.00019935,-0.00000564,0.00004385,0.
 00887870,-0.01362561,0.00308693,-0.01384257,0.02368568,-0.00724177,0.1
 2766153,0.00004045,0.00011681,-0.00003339,-0.00000267,-0.00000746,0.00
 000610,0.00012900,0.00011430,0.00003837,-0.00268880,-0.00054266,-0.000
 52586,0.00088097,-0.00045303,0.00038692,0.00370247,-0.00249380,-0.0039
 2531,0.00837800,-0.01566303,0.00904748,0.11619264,-0.22391372,0.062567
 84,-0.00009779,0.00059355,-0.00056752,0.00067771,-0.00024921,0.0001946
 4,0.00668865,-0.00996686,0.00231120,-0.00556514,0.00917103,-0.00269410
 ,-0.12781922,0.24305381,0.00004363,0.00014382,-0.00003080,0.00001539,-
 0.00000819,0.00000240,0.00010165,0.00007633,-0.00002391,-0.00259418,-0
 .00065071,-0.00053983,0.00105554,-0.00048005,0.00048589,0.00374952,-0.
 00645421,-0.00351301,0.01224413,-0.01811202,0.01108000,-0.04157201,0.0
 6470227,-0.07177265,-0.00002154,0.00128137,0.00010967,0.00062547,0.000
 07377,0.00040038,-0.01458552,0.01824144,-0.00560734,-0.00384234,0.0079
 9607,-0.00340659,0.04510940,-0.06680746,0.07290820,-0.00028633,-0.0001
 4332,0.00002799,0.00004223,0.00008166,-0.00002519,-0.00017638,-0.00018
 221,0.00004300,0.00221616,-0.00022633,0.00029618,-0.00071191,0.0006241
 1,-0.00018296,0.00293458,-0.00377419,0.00124261,-0.09381958,-0.0360719
 2,-0.02778353,0.00379641,0.00284709,0.00262648,0.00316210,0.00146582,0
 .00222740,-0.01333942,0.02365981,0.00288798,0.00016009,0.00002235,-0.0
 0075326,-0.00057857,-0.00017969,-0.00049857,-0.00008237,-0.00067630,-0
 .00044138,0.20061812,-0.00014626,0.00016081,-0.00004129,0.00004024,0.0
 0001268,-0.00002072,0.00021776,-0.00002114,-0.00004359,-0.00071527,0.0
 0024219,-0.00008819,-0.00030805,0.00070572,0.00000371,0.00337392,-0.00
 018079,0.00121691,-0.05700310,-0.02200773,-0.01654821,0.00147338,0.002
 01842,0.00198944,0.00176828,0.00093890,0.00095783,-0.00109494,-0.04279
 951,0.00704616,0.00043406,-0.00004272,-0.00018607,-0.00021173,-0.00016
 323,-0.00028980,0.00027010,0.00015924,-0.00000998,-0.13344458,0.464562
 03,-0.00012543,-0.00006975,0.00010625,0.00000886,0.00000330,-0.0000458
 0,-0.00021590,-0.00006561,0.00003228,0.00108931,-0.00069795,-0.0004665
 6,-0.00028162,0.00032122,0.00018111,-0.00053140,0.00018524,0.00128860,
 -0.01521260,-0.00623727,-0.00304501,0.00054427,0.00088370,0.00103498,-
 0.00077532,-0.00026938,0.00099331,0.00329164,0.01073035,-0.02442705,0.
 00045351,0.00056111,0.00085640,-0.00006238,-0.00006037,0.00029991,0.00
 008136,-0.00014103,-0.00009413,0.08066907,-0.13342513,0.07445583,0.000
 05713,0.00023498,-0.00007386,-0.00003094,-0.00003234,0.00001041,0.0004
 9117,0.00006078,-0.00013080,-0.00283320,0.00061184,-0.00028823,0.00059
 205,-0.00025966,0.00022904,0.00106220,0.00180197,0.00016357,0.00539221
 ,-0.00305221,0.00248058,-0.00131492,-0.00007275,-0.00027837,-0.0006247
 7,0.00005430,-0.00066950,-0.00101444,-0.02847978,0.00512668,0.00013806
 ,0.00000617,0.00004181,0.00021226,-0.00016036,-0.00016595,0.00001675,0
 .00016004,0.00011226,-0.10393514,0.18534617,-0.06893337,0.10179157,0.0
 0011346,0.00006161,-0.00003752,-0.00006053,-0.00002707,0.00003337,0.00
 044123,0.00010783,-0.00014409,-0.00302798,0.00203839,0.00024311,0.0008
 2224,-0.00139468,0.00023702,0.00401249,-0.00208085,0.00039574,-0.00623
 473,-0.00116060,-0.00220923,0.00099289,0.00005599,0.00020553,0.0006582
 4,0.00018217,0.00036980,0.01261327,-0.01642374,0.00790872,-0.00009304,
 -0.00013554,-0.00022721,-0.00005768,0.00029279,0.00023903,0.00004162,0
 .00008103,0.00000756,0.14599768,-0.40358491,0.12828158,-0.15621916,0.4
 2198757,0.00002229,0.00004659,-0.00004356,0.00000051,0.00000977,0.0000
 1025,0.00015015,0.00001614,0.00003211,-0.00019332,0.00022131,0.0001714
 3,0.00006526,0.00002364,-0.00019170,-0.00030211,0.00030834,-0.00090770
 ,0.00305442,-0.00041359,0.00132679,-0.00125300,-0.00029429,-0.00016689
 ,0.00009985,0.00010307,-0.00022375,-0.00390586,-0.00392751,0.00212543,
 0.00000041,-0.00024364,-0.00025913,0.00013567,-0.00012748,-0.00028836,
 0.00008581,0.00014214,0.00000171,-0.06033582,0.13943893,-0.05117011,0.
 06237575,-0.13530341,0.04958347\\0.00007918,-0.00004450,-0.00007902,-0
 .00004613,-0.00005952,0.00008149,0.00051916,0.00024612,-0.00001416,-0.
 00280272,0.00099107,0.00118643,0.00070064,-0.00005095,-0.00004943,0.00
 590356,-0.00562424,0.00117193,-0.02568840,-0.00433347,-0.01077772,0.00
 585155,0.00295705,0.00263748,0.00432950,0.00187664,0.00267147,0.034778
 78,0.01952113,0.00611037,-0.00009758,-0.00006718,-0.00030214,-0.000105
 55,0.00049867,0.00039129,-0.00001176,0.00003374,0.00006808,-0.02586058
 ,-0.01608695,-0.00379293,0.00245036,0.00014238,0.00069687\\\@


 SIC AS THE CAWSE OF EWERY THING IS, SIC WILBE THE EFFECT.
 -- PROVERBS AND REASONS OF THE YEAR 1585
           AS REPRINTED IN PAISLEY MAGAZINE 1828.
 Job cpu time:       0 days  0 hours 53 minutes 18.4 seconds.
 Elapsed time:       0 days  0 hours  2 minutes 13.6 seconds.
 File lengths (MBytes):  RWF=    153 Int=      0 D2E=      0 Chk=      6 Scr=      1
 Normal termination of Gaussian 16 at Sat Mar 29 04:27:01 2025.
