 Entering Gaussian System, Link 0=g16
 Initial command:
 /opt/g16/l1.exe "/home/aayush/scratches/g16/Gau-6141.inp" -scrdir="/home/aayush/scratches/g16/"
 Entering Link 1 = /opt/g16/l1.exe PID=      6144.
  
 Copyright (c) 1988,1990,1992,1993,1995,1998,2003,2009,2016,
            Gaussian, Inc.  All Rights Reserved.
  
 This is part of the Gaussian(R) 16 program.  It is based on
 the Gaussian(R) 09 system (copyright 2009, Gaussian, Inc.),
 the Gaussian(R) 03 system (copyright 2003, Gaussian, Inc.),
 the Gaussian(R) 98 system (copyright 1998, Gaussian, Inc.),
 the Gaussian(R) 94 system (copyright 1995, Gaussian, Inc.),
 the Gaussian 92(TM) system (copyright 1992, Gaussian, Inc.),
 the Gaussian 90(TM) system (copyright 1990, Gaussian, Inc.),
 the Gaussian 88(TM) system (copyright 1988, Gaussian, Inc.),
 the Gaussian 86(TM) system (copyright 1986, Carnegie Mellon
 University), and the Gaussian 82(TM) system (copyright 1983,
 Carnegie Mellon University). Gaussian is a federally registered
 trademark of Gaussian, Inc.
  
 This software contains proprietary and confidential information,
 including trade secrets, belonging to Gaussian, Inc.
  
 This software is provided under written license and may be
 used, copied, transmitted, or stored only in accord with that
 written license.
  
 The following legend is applicable only to US Government
 contracts under FAR:
  
                    RESTRICTED RIGHTS LEGEND
  
 Use, reproduction and disclosure by the US Government is
 subject to restrictions as set forth in subparagraphs (a)
 and (c) of the Commercial Computer Software - Restricted
 Rights clause in FAR 52.227-19.
  
 Gaussian, Inc.
 340 Quinnipiac St., Bldg. 40, Wallingford CT 06492
  
  
 ---------------------------------------------------------------
 Warning -- This program may not be used in any manner that
 competes with the business of Gaussian, Inc. or will provide
 assistance to any competitor of Gaussian, Inc.  The licensee
 of this program is prohibited from giving any competitor of
 Gaussian, Inc. access to this program.  By using this program,
 the user acknowledges that Gaussian, Inc. is engaged in the
 business of creating and licensing software in the field of
 computational chemistry and represents and warrants to the
 licensee that it is not a competitor of Gaussian, Inc. and that
 it will not use this program in any manner prohibited above.
 ---------------------------------------------------------------
  

 Cite this work as:
 Gaussian 16, Revision A.03,
 M. J. Frisch, G. W. Trucks, H. B. Schlegel, G. E. Scuseria, 
 M. A. Robb, J. R. Cheeseman, G. Scalmani, V. Barone, 
 G. A. Petersson, H. Nakatsuji, X. Li, M. Caricato, A. V. Marenich, 
 J. Bloino, B. G. Janesko, R. Gomperts, B. Mennucci, H. P. Hratchian, 
 J. V. Ortiz, A. F. Izmaylov, J. L. Sonnenberg, D. Williams-Young, 
 F. Ding, F. Lipparini, F. Egidi, J. Goings, B. Peng, A. Petrone, 
 T. Henderson, D. Ranasinghe, V. G. Zakrzewski, J. Gao, N. Rega, 
 G. Zheng, W. Liang, M. Hada, M. Ehara, K. Toyota, R. Fukuda, 
 J. Hasegawa, M. Ishida, T. Nakajima, Y. Honda, O. Kitao, H. Nakai, 
 T. Vreven, K. Throssell, J. A. Montgomery, Jr., J. E. Peralta, 
 F. Ogliaro, M. J. Bearpark, J. J. Heyd, E. N. Brothers, K. N. Kudin, 
 V. N. Staroverov, T. A. Keith, R. Kobayashi, J. Normand, 
 K. Raghavachari, A. P. Rendell, J. C. Burant, S. S. Iyengar, 
 J. Tomasi, M. Cossi, J. M. Millam, M. Klene, C. Adamo, R. Cammi, 
 J. W. Ochterski, R. L. Martin, K. Morokuma, O. Farkas, 
 J. B. Foresman, and D. J. Fox, Gaussian, Inc., Wallingford CT, 2016.
 
 ******************************************
 Gaussian 16:  ES64L-G16RevA.03 25-Dec-2016
                 7-May-2025 
 ******************************************
 %chk=ethyl_propiolate.chk
 %nprocshared=24
 Will use up to   24 processors via shared memory.
 %mem=12GB
 --------------------------
 # ccsd(t)/6-311++g(d,p) sp
 --------------------------
 1/38=1,172=1/1;
 2/12=2,17=6,18=5,40=1/2;
 3/5=4,6=6,7=1111,11=9,25=1,30=1/1,2,3;
 4//1;
 5/5=2,38=5/2;
 8/6=4,9=120000,10=2/1,4;
 9/5=7,14=2/13;
 6/7=2,8=2,9=2,10=2/1;
 99/5=1,9=1/99;
 -------------------
 Title Card Required
 -------------------
 Symbolic Z-matrix:
 Charge =  0 Multiplicity = 2
 C                     2.46881   1.29465  -0.67241 
 H                     3.0977    2.09253  -0.99293 
 C                     1.76792   0.39147  -0.31139 
 C                     0.98533  -0.75473   0.15048 
 O                     1.49125  -1.78416   0.47478 
 O                    -0.34898  -0.59202   0.19423 
 C                    -0.95993   0.63695  -0.18806 
 C                    -1.10303   1.59007   0.96915 
 H                    -0.47643   1.05864  -1.071 
 H                    -2.01582   0.31318  -0.53323 
 H                    -1.62385   1.10191   1.79385 
 H                    -0.12065   1.92212   1.31593 
 H                    -1.6765    2.46529   0.66012 
 O                    -3.16093  -0.47496  -0.67953 
 H                    -2.76169  -1.31066  -0.38376 
 
                          Input orientation:                          
 ---------------------------------------------------------------------
 Center     Atomic      Atomic             Coordinates (Angstroms)
 Number     Number       Type             X           Y           Z
 ---------------------------------------------------------------------
      1          6           0        2.468810    1.294648   -0.672408
      2          1           0        3.097696    2.092532   -0.992933
      3          6           0        1.767919    0.391474   -0.311388
      4          6           0        0.985328   -0.754725    0.150476
      5          8           0        1.491252   -1.784159    0.474775
      6          8           0       -0.348977   -0.592019    0.194227
      7          6           0       -0.959927    0.636948   -0.188059
      8          6           0       -1.103035    1.590067    0.969149
      9          1           0       -0.476428    1.058639   -1.070997
     10          1           0       -2.015817    0.313180   -0.533226
     11          1           0       -1.623847    1.101914    1.793849
     12          1           0       -0.120646    1.922118    1.315930
     13          1           0       -1.676498    2.465289    0.660119
     14          8           0       -3.160932   -0.474962   -0.679530
     15          1           0       -2.761693   -1.310661   -0.383758
 ---------------------------------------------------------------------
                    Distance matrix (angstroms):
                    1          2          3          4          5
     1  C    0.000000
     2  H    1.065295   0.000000
     3  C    1.198877   2.264157   0.000000
     4  C    2.660411   3.725098   1.462716   0.000000
     5  O    3.427930   4.445623   2.329802   1.192000   0.000000
     6  O    3.500070   4.527220   2.388337   1.344900   2.210508
     7  C    3.524684   4.385299   2.741644   2.415652   3.508474
     8  C    3.942088   4.663516   3.364339   3.244925   4.284872
     9  H    2.981443   3.721477   2.461546   2.630022   3.787173
    10  H    4.592878   5.433732   3.791042   3.258027   4.208851
    11  H    4.782197   5.571395   4.054729   3.599386   4.446708
    12  H    3.324528   3.964545   2.925357   3.122011   4.128226
    13  H    4.508837   5.066010   4.136247   4.208746   5.303471
    14  O    5.901319   6.772051   5.017949   4.237765   4.968826
    15  H    5.850565   6.803327   4.839410   3.825524   4.364495
                    6          7          8          9         10
     6  O    0.000000
     7  C    1.424697   0.000000
     8  C    2.435284   1.506003   0.000000
     9  H    2.083676   1.091409   2.199374   0.000000
    10  H    2.031484   1.157095   2.172727   1.792938   0.000000
    11  H    2.655841   2.141248   1.090719   3.086387   2.488176
    12  H    2.762469   2.148962   1.093436   2.563123   3.098344
    13  H    3.365487   2.139091   1.091042   2.532902   2.484106
    14  O    2.946904   2.514421   3.349243   3.116367   1.397806
    15  H    2.582966   2.660421   3.604959   3.362784   1.793190
                   11         12         13         14         15
    11  H    0.000000
    12  H    1.777851   0.000000
    13  H    1.773952   1.773640   0.000000
    14  O    3.311612   4.355593   3.555739   0.000000
    15  H    3.443426   4.507209   4.065111   0.972248   0.000000
 Stoichiometry    C5H7O3(2)
 Framework group  C1[X(C5H7O3)]
 Deg. of freedom    39
 Full point group                 C1      NOp   1
 Largest Abelian subgroup         C1      NOp   1
 Largest concise Abelian subgroup C1      NOp   1
                         Standard orientation:                         
 ---------------------------------------------------------------------
 Center     Atomic      Atomic             Coordinates (Angstroms)
 Number     Number       Type             X           Y           Z
 ---------------------------------------------------------------------
      1          6           0        2.514645    1.231805   -0.678824
      2          1           0        3.143786    2.029488   -0.999349
      3          6           0        1.813466    0.328855   -0.317804
      4          6           0        1.030508   -0.817093    0.144060
      5          8           0        1.536103   -1.846689    0.468359
      6          8           0       -0.303745   -0.653961    0.187811
      7          6           0       -0.914302    0.575202   -0.194475
      8          6           0       -1.057105    1.528366    0.962733
      9          1           0       -0.430668    0.996738   -1.077413
     10          1           0       -1.970295    0.251771   -0.539642
     11          1           0       -1.578073    1.040380    1.787433
     12          1           0       -0.074610    1.860103    1.309514
     13          1           0       -1.630288    2.403772    0.653703
     14          8           0       -3.115662   -0.536005   -0.685946
     15          1           0       -2.716690   -1.371831   -0.390174
 ---------------------------------------------------------------------
 Rotational constants (GHZ):           2.7978668           1.2308787           0.9809424
 Standard basis: 6-311++G(d,p) (5D, 7F)
 There are   233 symmetry adapted cartesian basis functions of A   symmetry.
 There are   225 symmetry adapted basis functions of A   symmetry.
   225 basis functions,   351 primitive gaussians,   233 cartesian basis functions
    31 alpha electrons       30 beta electrons
       nuclear repulsion energy       350.5606693332 Hartrees.
 NAtoms=   15 NActive=   15 NUniq=   15 SFac= 1.00D+00 NAtFMM=   60 NAOKFM=F Big=F
 Integral buffers will be    131072 words long.
 Raffenetti 2 integral format.
 Two-electron integral symmetry is turned on.
 One-electron integrals computed using PRISM.
 NBasis=   225 RedAO= T EigKep=  1.51D-06  NBF=   225
 NBsUse=   225 1.00D-06 EigRej= -1.00D+00 NBFU=   225
 ExpMin= 3.60D-02 ExpMax= 8.59D+03 ExpMxC= 1.30D+03 IAcc=3 IRadAn=         5 AccDes= 0.00D+00
 Harris functional with IExCor=  205 and IRadAn=       5 diagonalized for initial guess.
 HarFok:  IExCor=  205 AccDes= 0.00D+00 IRadAn=         5 IDoV= 1 UseB2=F ITyADJ=14
 ICtDFT=  3500011 ScaDFX=  1.000000  1.000000  1.000000  1.000000
 FoFCou: FMM=F IPFlag=           0 FMFlag=      100000 FMFlg1=           0
         NFxFlg=           0 DoJE=T BraDBF=F KetDBF=T FulRan=T
         wScrn=  0.000000 ICntrl=       500 IOpCl=  0 I1Cent=   200000004 NGrid=           0
         NMat0=    1 NMatS0=      1 NMatT0=    0 NMatD0=    1 NMtDS0=    0 NMtDT0=    0
 Petite list used in FoFCou.
 Initial guess <Sx>= 0.0000 <Sy>= 0.0000 <Sz>= 0.5000 <S**2>= 0.7500 S= 0.5000
 Requested convergence on RMS density matrix=1.00D-08 within 128 cycles.
 Requested convergence on MAX density matrix=1.00D-06.
 Requested convergence on             energy=1.00D-06.
 No special actions if energy rises.
 Initial convergence to 1.0D-05 achieved.  Increase integral accuracy.
 Restarting incremental Fock formation.
 SCF Done:  E(UHF) =  -417.962942235     A.U. after   36 cycles
            NFock= 36  Conv=0.85D-08     -V/T= 2.0007
 <Sx>= 0.0000 <Sy>= 0.0000 <Sz>= 0.5000 <S**2>= 0.7705 S= 0.5102
 <L.S>=  0.00000000000    
 Annihilation of the first spin contaminant:
 S**2 before annihilation     0.7705,   after     0.7502
 ExpMin= 3.60D-02 ExpMax= 8.59D+03 ExpMxC= 1.30D+03 IAcc=3 IRadAn=         5 AccDes= 0.00D+00
 HarFok:  IExCor=  205 AccDes= 0.00D+00 IRadAn=         5 IDoV=-2 UseB2=F ITyADJ=14
 ICtDFT= 12500011 ScaDFX=  1.000000  1.000000  1.000000  1.000000
 Range of M.O.s used for correlation:     9   225
 NBasis=   225 NAE=    31 NBE=    30 NFC=     8 NFV=     0
 NROrb=    217 NOA=    23 NOB=    22 NVA=   194 NVB=   195

 **** Warning!!: The largest alpha MO coefficient is  0.21446350D+03


 **** Warning!!: The largest beta MO coefficient is  0.19022374D+03

 Semi-Direct transformation.
 ModeAB=           4 MOrb=            23 LenV=    1609173262
 LASXX=    109339976 LTotXX=   109339976 LenRXX=   221407890
 LTotAB=   112067914 MaxLAS=   129271891 LenRXY=           0
 NonZer=   330747866 LenScr=   498067456 LnRSAI=   129271891
 LnScr1=   194674176 LExtra=           0 Total=   1043421413
 MaxDsk=          -1 SrtSym=           T ITran=            4
 JobTyp=1 Pass  1:  I=   1 to  23.
 (rs|ai) integrals will be sorted in core.
 ModeAB=           4 MOrb=            22 LenV=    1609173262
 LASXX=    104936601 LTotXX=   104936601 LenRXX=   190867446
 LTotAB=    85930845 MaxLAS=   123651374 LenRXY=           0
 NonZer=   295804047 LenScr=   445446144 LnRSAI=   123651374
 LnScr1=   186263040 LExtra=           0 Total=    946228004
 MaxDsk=          -1 SrtSym=           T ITran=            4
 JobTyp=2 Pass  1:  I=   1 to  22.
 (rs|ai) integrals will be sorted in core.
 SymMOI:  orbitals are not symmetric.
 Spin components of T(2) and E(2):
     alpha-alpha T2 =       0.5323666891D-01 E2=     -0.1716310862D+00
     alpha-beta  T2 =       0.2925334083D+00 E2=     -0.9461272508D+00
     beta-beta   T2 =       0.5167618723D-01 E2=     -0.1591946637D+00
 ANorm=    0.1182136314D+01
 E2 =    -0.1276953001D+01 EUMP2 =    -0.41923989523522D+03
 (S**2,0)=  0.77054D+00           (S**2,1)=  0.75665D+00
 E(PUHF)=      -0.41796858069D+03        E(PMP2)=      -0.41924363964D+03
 Keep R2 and R3 ints in memory in canonical form, NReq=652884060.
 CIDS: In Core Option IDoMem=           1.
 Iterations=  50 Convergence= 0.100D-06
 Produce multiple copies of IABC intergrals
 Iteration Nr.   1
 **********************
 DD1Dir will call FoFMem   1 times, MxPair=      1496
 NAB=   506 NAA=   253 NBB=   231.
 E(PMP3)=      -0.41926581661D+03
 MP4(R+Q)=  0.25879558D-01
 E3=       -0.23631218D-01        EUMP3=      -0.41926352645D+03
 E4(DQ)=   -0.56007758D-02        UMP4(DQ)=   -0.41926912723D+03
 E4(SDQ)=  -0.25091307D-01        UMP4(SDQ)=  -0.41928861776D+03
 DE(Corr)=  -1.2739797     E(Corr)=     -419.23692193    
 NORM(A)=   0.11872113D+01
 Iteration Nr.   2
 **********************
 DD1Dir will call FoFMem   1 times, MxPair=      1496
 NAB=   506 NAA=   253 NBB=   231.
 DE(Corr)=  -1.3170838     E(CORR)=     -419.28002603     Delta=-4.31D-02
 NORM(A)=   0.12052765D+01
 Iteration Nr.   3
 **********************
 DD1Dir will call FoFMem   1 times, MxPair=      1496
 NAB=   506 NAA=   253 NBB=   231.
 DE(Corr)=  -1.3183764     E(CORR)=     -419.28131863     Delta=-1.29D-03
 NORM(A)=   0.12119730D+01
 Iteration Nr.   4
 **********************
 DD1Dir will call FoFMem   1 times, MxPair=      1496
 NAB=   506 NAA=   253 NBB=   231.
 DE(Corr)=  -1.3235250     E(CORR)=     -419.28646726     Delta=-5.15D-03
 NORM(A)=   0.12150381D+01
 Iteration Nr.   5
 **********************
 DD1Dir will call FoFMem   1 times, MxPair=      1496
 NAB=   506 NAA=   253 NBB=   231.
 DE(Corr)=  -1.3245096     E(CORR)=     -419.28745186     Delta=-9.85D-04
 NORM(A)=   0.12169442D+01
 Iteration Nr.   6
 **********************
 DD1Dir will call FoFMem   1 times, MxPair=      1496
 NAB=   506 NAA=   253 NBB=   231.
 DE(Corr)=  -1.3248246     E(CORR)=     -419.28776682     Delta=-3.15D-04
 NORM(A)=   0.12175099D+01
 Iteration Nr.   7
 **********************
 DD1Dir will call FoFMem   1 times, MxPair=      1496
 NAB=   506 NAA=   253 NBB=   231.
 DE(Corr)=  -1.3249063     E(CORR)=     -419.28784853     Delta=-8.17D-05
 NORM(A)=   0.12176695D+01
 Iteration Nr.   8
 **********************
 DD1Dir will call FoFMem   1 times, MxPair=      1496
 NAB=   506 NAA=   253 NBB=   231.
 DE(Corr)=  -1.3248942     E(CORR)=     -419.28783642     Delta= 1.21D-05
 NORM(A)=   0.12177488D+01
 Iteration Nr.   9
 **********************
 DD1Dir will call FoFMem   1 times, MxPair=      1496
 NAB=   506 NAA=   253 NBB=   231.
 DE(Corr)=  -1.3249094     E(CORR)=     -419.28785159     Delta=-1.52D-05
 NORM(A)=   0.12177684D+01
 Iteration Nr.  10
 **********************
 DD1Dir will call FoFMem   1 times, MxPair=      1496
 NAB=   506 NAA=   253 NBB=   231.
 DE(Corr)=  -1.3249117     E(CORR)=     -419.28785398     Delta=-2.39D-06
 NORM(A)=   0.12177819D+01
 Iteration Nr.  11
 **********************
 DD1Dir will call FoFMem   1 times, MxPair=      1496
 NAB=   506 NAA=   253 NBB=   231.
 DE(Corr)=  -1.3249216     E(CORR)=     -419.28786380     Delta=-9.82D-06
 NORM(A)=   0.12177962D+01
 Iteration Nr.  12
 **********************
 DD1Dir will call FoFMem   1 times, MxPair=      1496
 NAB=   506 NAA=   253 NBB=   231.
 DE(Corr)=  -1.3249246     E(CORR)=     -419.28786680     Delta=-3.00D-06
 NORM(A)=   0.12178068D+01
 Iteration Nr.  13
 **********************
 DD1Dir will call FoFMem   1 times, MxPair=      1496
 NAB=   506 NAA=   253 NBB=   231.
 DE(Corr)=  -1.3249277     E(CORR)=     -419.28786995     Delta=-3.15D-06
 NORM(A)=   0.12178163D+01
 Iteration Nr.  14
 **********************
 DD1Dir will call FoFMem   1 times, MxPair=      1496
 NAB=   506 NAA=   253 NBB=   231.
 DE(Corr)=  -1.3249297     E(CORR)=     -419.28787189     Delta=-1.94D-06
 NORM(A)=   0.12178250D+01
 Iteration Nr.  15
 **********************
 DD1Dir will call FoFMem   1 times, MxPair=      1496
 NAB=   506 NAA=   253 NBB=   231.
 DE(Corr)=  -1.3249307     E(CORR)=     -419.28787293     Delta=-1.04D-06
 NORM(A)=   0.12178334D+01
 Iteration Nr.  16
 **********************
 DD1Dir will call FoFMem   1 times, MxPair=      1496
 NAB=   506 NAA=   253 NBB=   231.
 DE(Corr)=  -1.3249326     E(CORR)=     -419.28787479     Delta=-1.86D-06
 NORM(A)=   0.12178387D+01
 Iteration Nr.  17
 **********************
 DD1Dir will call FoFMem   1 times, MxPair=      1496
 NAB=   506 NAA=   253 NBB=   231.
 DE(Corr)=  -1.3249328     E(CORR)=     -419.28787502     Delta=-2.28D-07
 NORM(A)=   0.12178392D+01
 Iteration Nr.  18
 **********************
 DD1Dir will call FoFMem   1 times, MxPair=      1496
 NAB=   506 NAA=   253 NBB=   231.
 DE(Corr)=  -1.3249330     E(CORR)=     -419.28787528     Delta=-2.68D-07
 NORM(A)=   0.12178376D+01
 Iteration Nr.  19
 **********************
 DD1Dir will call FoFMem   1 times, MxPair=      1496
 NAB=   506 NAA=   253 NBB=   231.
 DE(Corr)=  -1.3249325     E(CORR)=     -419.28787470     Delta= 5.87D-07
 NORM(A)=   0.12178354D+01
 Iteration Nr.  20
 **********************
 DD1Dir will call FoFMem   1 times, MxPair=      1496
 NAB=   506 NAA=   253 NBB=   231.
 DE(Corr)=  -1.3249320     E(CORR)=     -419.28787421     Delta= 4.84D-07
 NORM(A)=   0.12178338D+01
 Iteration Nr.  21
 **********************
 DD1Dir will call FoFMem   1 times, MxPair=      1496
 NAB=   506 NAA=   253 NBB=   231.
 DE(Corr)=  -1.3249316     E(CORR)=     -419.28787385     Delta= 3.65D-07
 NORM(A)=   0.12178329D+01
 Iteration Nr.  22
 **********************
 DD1Dir will call FoFMem   1 times, MxPair=      1496
 NAB=   506 NAA=   253 NBB=   231.
 DE(Corr)=  -1.3249314     E(CORR)=     -419.28787361     Delta= 2.36D-07
 NORM(A)=   0.12178327D+01
 Iteration Nr.  23
 **********************
 DD1Dir will call FoFMem   1 times, MxPair=      1496
 NAB=   506 NAA=   253 NBB=   231.
 DE(Corr)=  -1.3249314     E(CORR)=     -419.28787360     Delta= 1.56D-08
 NORM(A)=   0.12178328D+01
 Wavefunction amplitudes converged. E(Corr)=     -419.28787360    
 Largest amplitude= 3.60D-02
 Time for triples=    37160.93 seconds.
 T4(CCSD)= -0.57891927D-01
 T5(CCSD)=  0.37694145D-02
 CCSD(T)= -0.41934199611D+03

 S**2, projected HF & approx projected MPn energies after annihilation of
 unwanted spin states (see manual for definitions):

 spins       (S**2,0) (S**2,1)    PUHF        PMP2        PMP3        PMP4
 annihilated
 s+1         0.74986  0.75005 -417.968581 -419.243640 -419.265817
 s+1,s+2     0.75000  0.75000 -417.968548 -419.243610 -419.265791
 s+1 to s+3  0.75000  0.75000 -417.968548 -419.243610 -419.265791
 s+1 to s+4  0.75000  0.75000 -417.968548 -419.243610 -419.265790
 s+1 to s+5  0.75000  0.75000 -417.968548
 s+1 to s+6  0.75000  0.75000 -417.968548

 Discarding MO integrals.

 **********************************************************************

            Population analysis using the SCF density.

 **********************************************************************

 Orbital symmetries:
 Alpha Orbitals:
       Occupied  (A) (A) (A) (A) (A) (A) (A) (A) (A) (A) (A) (A)
                 (A) (A) (A) (A) (A) (A) (A) (A) (A) (A) (A) (A)
                 (A) (A) (A) (A) (A) (A) (A)
       Virtual   (A) (A) (A) (A) (A) (A) (A) (A) (A) (A) (A) (A)
                 (A) (A) (A) (A) (A) (A) (A) (A) (A) (A) (A) (A)
                 (A) (A) (A) (A) (A) (A) (A) (A) (A) (A) (A) (A)
                 (A) (A) (A) (A) (A) (A) (A) (A) (A) (A) (A) (A)
                 (A) (A) (A) (A) (A) (A) (A) (A) (A) (A) (A) (A)
                 (A) (A) (A) (A) (A) (A) (A) (A) (A) (A) (A) (A)
                 (A) (A) (A) (A) (A) (A) (A) (A) (A) (A) (A) (A)
                 (A) (A) (A) (A) (A) (A) (A) (A) (A) (A) (A) (A)
                 (A) (A) (A) (A) (A) (A) (A) (A) (A) (A) (A) (A)
                 (A) (A) (A) (A) (A) (A) (A) (A) (A) (A) (A) (A)
                 (A) (A) (A) (A) (A) (A) (A) (A) (A) (A) (A) (A)
                 (A) (A) (A) (A) (A) (A) (A) (A) (A) (A) (A) (A)
                 (A) (A) (A) (A) (A) (A) (A) (A) (A) (A) (A) (A)
                 (A) (A) (A) (A) (A) (A) (A) (A) (A) (A) (A) (A)
                 (A) (A) (A) (A) (A) (A) (A) (A) (A) (A) (A) (A)
                 (A) (A) (A) (A) (A) (A) (A) (A) (A) (A) (A) (A)
                 (A) (A)
 Beta  Orbitals:
       Occupied  (A) (A) (A) (A) (A) (A) (A) (A) (A) (A) (A) (A)
                 (A) (A) (A) (A) (A) (A) (A) (A) (A) (A) (A) (A)
                 (A) (A) (A) (A) (A) (A)
       Virtual   (A) (A) (A) (A) (A) (A) (A) (A) (A) (A) (A) (A)
                 (A) (A) (A) (A) (A) (A) (A) (A) (A) (A) (A) (A)
                 (A) (A) (A) (A) (A) (A) (A) (A) (A) (A) (A) (A)
                 (A) (A) (A) (A) (A) (A) (A) (A) (A) (A) (A) (A)
                 (A) (A) (A) (A) (A) (A) (A) (A) (A) (A) (A) (A)
                 (A) (A) (A) (A) (A) (A) (A) (A) (A) (A) (A) (A)
                 (A) (A) (A) (A) (A) (A) (A) (A) (A) (A) (A) (A)
                 (A) (A) (A) (A) (A) (A) (A) (A) (A) (A) (A) (A)
                 (A) (A) (A) (A) (A) (A) (A) (A) (A) (A) (A) (A)
                 (A) (A) (A) (A) (A) (A) (A) (A) (A) (A) (A) (A)
                 (A) (A) (A) (A) (A) (A) (A) (A) (A) (A) (A) (A)
                 (A) (A) (A) (A) (A) (A) (A) (A) (A) (A) (A) (A)
                 (A) (A) (A) (A) (A) (A) (A) (A) (A) (A) (A) (A)
                 (A) (A) (A) (A) (A) (A) (A) (A) (A) (A) (A) (A)
                 (A) (A) (A) (A) (A) (A) (A) (A) (A) (A) (A) (A)
                 (A) (A) (A) (A) (A) (A) (A) (A) (A) (A) (A) (A)
                 (A) (A) (A)
 The electronic state is 2-A.
 Alpha  occ. eigenvalues --  -20.63972 -20.62048 -20.56509 -11.42413 -11.31007
 Alpha  occ. eigenvalues --  -11.28091 -11.27300 -11.23497  -1.48579  -1.40559
 Alpha  occ. eigenvalues --   -1.39117  -1.08208  -1.05834  -0.92503  -0.88242
 Alpha  occ. eigenvalues --   -0.77092  -0.74624  -0.73378  -0.69203  -0.67815
 Alpha  occ. eigenvalues --   -0.66947  -0.61161  -0.59153  -0.56784  -0.56346
 Alpha  occ. eigenvalues --   -0.54486  -0.49889  -0.48476  -0.45435  -0.43755
 Alpha  occ. eigenvalues --   -0.43407
 Alpha virt. eigenvalues --    0.03142   0.04736   0.05686   0.06154   0.07326
 Alpha virt. eigenvalues --    0.08161   0.08979   0.09491   0.10364   0.12013
 Alpha virt. eigenvalues --    0.12823   0.13408   0.14936   0.15661   0.15728
 Alpha virt. eigenvalues --    0.16041   0.17271   0.17772   0.18976   0.19444
 Alpha virt. eigenvalues --    0.19810   0.19953   0.20663   0.21705   0.23119
 Alpha virt. eigenvalues --    0.23351   0.24343   0.25822   0.28394   0.29391
 Alpha virt. eigenvalues --    0.30406   0.30695   0.31217   0.32199   0.33271
 Alpha virt. eigenvalues --    0.34308   0.35122   0.36335   0.36967   0.39162
 Alpha virt. eigenvalues --    0.39759   0.40514   0.40662   0.41640   0.42374
 Alpha virt. eigenvalues --    0.43955   0.45219   0.45694   0.47005   0.49142
 Alpha virt. eigenvalues --    0.50688   0.54297   0.57636   0.59020   0.62485
 Alpha virt. eigenvalues --    0.62923   0.64662   0.66277   0.71188   0.71735
 Alpha virt. eigenvalues --    0.75295   0.77416   0.78325   0.79293   0.82591
 Alpha virt. eigenvalues --    0.84548   0.85280   0.85856   0.86288   0.87612
 Alpha virt. eigenvalues --    0.88399   0.90492   0.92870   0.97145   0.99047
 Alpha virt. eigenvalues --    1.02170   1.04754   1.07844   1.15271   1.17644
 Alpha virt. eigenvalues --    1.22637   1.25270   1.26459   1.27733   1.30077
 Alpha virt. eigenvalues --    1.30513   1.34671   1.36635   1.37477   1.39435
 Alpha virt. eigenvalues --    1.40838   1.43382   1.47498   1.49179   1.50716
 Alpha virt. eigenvalues --    1.52548   1.53483   1.56820   1.59703   1.62043
 Alpha virt. eigenvalues --    1.63812   1.67991   1.69454   1.71428   1.78073
 Alpha virt. eigenvalues --    1.81495   1.82998   1.84363   1.85571   1.86675
 Alpha virt. eigenvalues --    1.87913   1.90623   1.93078   1.94452   2.00473
 Alpha virt. eigenvalues --    2.01907   2.03235   2.06742   2.07475   2.11760
 Alpha virt. eigenvalues --    2.16174   2.19550   2.25011   2.28017   2.30599
 Alpha virt. eigenvalues --    2.34606   2.37502   2.42623   2.45350   2.55097
 Alpha virt. eigenvalues --    2.60887   2.70462   2.75317   2.79817   2.81015
 Alpha virt. eigenvalues --    2.83574   2.87158   2.88907   2.91581   2.92551
 Alpha virt. eigenvalues --    2.94105   2.95674   2.97380   3.03074   3.05235
 Alpha virt. eigenvalues --    3.11750   3.13154   3.15116   3.18377   3.24586
 Alpha virt. eigenvalues --    3.27041   3.29667   3.34426   3.35801   3.39328
 Alpha virt. eigenvalues --    3.41084   3.45035   3.45988   3.46530   3.55936
 Alpha virt. eigenvalues --    3.58765   3.68019   3.68555   3.73233   3.77991
 Alpha virt. eigenvalues --    3.79579   3.90303   3.99853   4.12283   4.15836
 Alpha virt. eigenvalues --    4.21577   4.22168   4.30195   4.44336   4.52658
 Alpha virt. eigenvalues --    4.53425   4.70228   5.48561   5.59670   5.61531
 Alpha virt. eigenvalues --    5.64898   5.72938   5.88935   6.01767   6.17622
 Alpha virt. eigenvalues --    6.46774  24.68286  24.98357  25.01012  25.12888
 Alpha virt. eigenvalues --   26.27139  51.51213  51.58660  51.72842
  Beta  occ. eigenvalues --  -20.62089 -20.60091 -20.56515 -11.42385 -11.30144
  Beta  occ. eigenvalues --  -11.28066 -11.27322 -11.23546  -1.48526  -1.39241
  Beta  occ. eigenvalues --   -1.26175  -1.08184  -1.04643  -0.92094  -0.87530
  Beta  occ. eigenvalues --   -0.76219  -0.73810  -0.69702  -0.67321  -0.66085
  Beta  occ. eigenvalues --   -0.62167  -0.59010  -0.56304  -0.54966  -0.52027
  Beta  occ. eigenvalues --   -0.50747  -0.48705  -0.46765  -0.43799  -0.43559
  Beta virt. eigenvalues --    0.03144   0.04380   0.05280   0.05905   0.07096
  Beta virt. eigenvalues --    0.07418   0.08217   0.09267   0.09527   0.10926
  Beta virt. eigenvalues --    0.12027   0.12838   0.13582   0.15071   0.15683
  Beta virt. eigenvalues --    0.15853   0.16053   0.17372   0.17850   0.19049
  Beta virt. eigenvalues --    0.19490   0.19885   0.20301   0.20739   0.21810
  Beta virt. eigenvalues --    0.23167   0.23457   0.24411   0.26039   0.28654
  Beta virt. eigenvalues --    0.29511   0.30738   0.30809   0.31513   0.33066
  Beta virt. eigenvalues --    0.33873   0.34494   0.35250   0.37067   0.37246
  Beta virt. eigenvalues --    0.39494   0.39907   0.40573   0.40789   0.41939
  Beta virt. eigenvalues --    0.42518   0.44333   0.45442   0.45997   0.47323
  Beta virt. eigenvalues --    0.50756   0.52907   0.54539   0.57914   0.59082
  Beta virt. eigenvalues --    0.62546   0.63023   0.64743   0.66451   0.71346
  Beta virt. eigenvalues --    0.72458   0.75587   0.77576   0.78325   0.79495
  Beta virt. eigenvalues --    0.83436   0.85050   0.85517   0.86098   0.86745
  Beta virt. eigenvalues --    0.87871   0.88573   0.90670   0.92971   0.97469
  Beta virt. eigenvalues --    0.99343   1.02386   1.04927   1.08004   1.15386
  Beta virt. eigenvalues --    1.18652   1.23240   1.26035   1.27514   1.29304
  Beta virt. eigenvalues --    1.30443   1.32969   1.36550   1.37486   1.38668
  Beta virt. eigenvalues --    1.40626   1.42093   1.43553   1.47849   1.49359
  Beta virt. eigenvalues --    1.50943   1.52968   1.53672   1.57051   1.59675
  Beta virt. eigenvalues --    1.62544   1.63954   1.69256   1.70222   1.71550
  Beta virt. eigenvalues --    1.80238   1.81885   1.83093   1.85007   1.85834
  Beta virt. eigenvalues --    1.87146   1.88144   1.90862   1.93803   1.94670
  Beta virt. eigenvalues --    2.00829   2.02151   2.03652   2.06897   2.07942
  Beta virt. eigenvalues --    2.12186   2.16737   2.19654   2.25310   2.28220
  Beta virt. eigenvalues --    2.30805   2.35678   2.37660   2.42811   2.46089
  Beta virt. eigenvalues --    2.56794   2.61203   2.70568   2.77042   2.79896
  Beta virt. eigenvalues --    2.80925   2.83541   2.87246   2.88951   2.91820
  Beta virt. eigenvalues --    2.92906   2.94346   2.95873   2.97694   3.03342
  Beta virt. eigenvalues --    3.05163   3.11925   3.13127   3.15648   3.22354
  Beta virt. eigenvalues --    3.25518   3.29670   3.31241   3.35019   3.35849
  Beta virt. eigenvalues --    3.39457   3.41262   3.45354   3.48245   3.54537
  Beta virt. eigenvalues --    3.56826   3.58974   3.68204   3.68784   3.73697
  Beta virt. eigenvalues --    3.78005   3.84418   3.90503   3.99890   4.12611
  Beta virt. eigenvalues --    4.17087   4.21777   4.22293   4.33045   4.45088
  Beta virt. eigenvalues --    4.52907   4.54062   4.70440   5.50873   5.59751
  Beta virt. eigenvalues --    5.61526   5.72931   5.75534   5.89374   6.04251
  Beta virt. eigenvalues --    6.17674   6.46792  24.68288  24.98889  25.01130
  Beta virt. eigenvalues --   25.12866  26.27142  51.53435  51.58648  51.72836
          Condensed to atoms (all electrons):
               1          2          3          4          5          6
     1  C   27.508982   0.891626 -11.970473  -8.394311  -0.146088  -0.010276
     2  H    0.891626   0.408052  -0.417942  -0.092795  -0.004929  -0.003800
     3  C  -11.970473  -0.417942  14.607649   1.916938   0.032261  -0.195629
     4  C   -8.394311  -0.092795   1.916938  12.154506   0.460804   0.103370
     5  O   -0.146088  -0.004929   0.032261   0.460804   8.035569  -0.049702
     6  O   -0.010276  -0.003800  -0.195629   0.103370  -0.049702   8.278384
     7  C   -0.232219  -0.006652   0.099966  -0.090322  -0.004491   0.246715
     8  C    0.128512   0.004421  -0.071685   0.034957   0.004886  -0.130644
     9  H    0.017790  -0.002451   0.028106  -0.060311   0.001077  -0.015650
    10  H   -0.054798  -0.001050   0.028208   0.012396   0.002029  -0.084968
    11  H    0.016904   0.000570  -0.005381  -0.009384   0.000553  -0.006518
    12  H   -0.063995  -0.003605   0.064180   0.011369  -0.000799  -0.011070
    13  H    0.009481   0.000205  -0.004898  -0.008475   0.000339   0.016472
    14  O    0.006256   0.000185  -0.003269   0.000369   0.000330   0.016921
    15  H   -0.004100  -0.000041  -0.009614   0.009818  -0.000797  -0.000167
               7          8          9         10         11         12
     1  C   -0.232219   0.128512   0.017790  -0.054798   0.016904  -0.063995
     2  H   -0.006652   0.004421  -0.002451  -0.001050   0.000570  -0.003605
     3  C    0.099966  -0.071685   0.028106   0.028208  -0.005381   0.064180
     4  C   -0.090322   0.034957  -0.060311   0.012396  -0.009384   0.011369
     5  O   -0.004491   0.004886   0.001077   0.002029   0.000553  -0.000799
     6  O    0.246715  -0.130644  -0.015650  -0.084968  -0.006518  -0.011070
     7  C    6.013672  -0.387472   0.445432   0.401005  -0.059598  -0.012845
     8  C   -0.387472   5.791714  -0.085206  -0.127616   0.442855   0.362101
     9  H    0.445432  -0.085206   0.559623  -0.048784  -0.000279   0.000166
    10  H    0.401005  -0.127616  -0.048784   0.725631  -0.018544   0.022776
    11  H   -0.059598   0.442855  -0.000279  -0.018544   0.539495  -0.050882
    12  H   -0.012845   0.362101   0.000166   0.022776  -0.050882   0.595164
    13  H   -0.061172   0.433440  -0.003798  -0.011351  -0.031369  -0.034567
    14  O    0.009406   0.000553  -0.004772  -0.082839   0.004507  -0.005028
    15  H    0.026912   0.002543   0.000891  -0.034720  -0.001273   0.000070
              13         14         15
     1  C    0.009481   0.006256  -0.004100
     2  H    0.000205   0.000185  -0.000041
     3  C   -0.004898  -0.003269  -0.009614
     4  C   -0.008475   0.000369   0.009818
     5  O    0.000339   0.000330  -0.000797
     6  O    0.016472   0.016921  -0.000167
     7  C   -0.061172   0.009406   0.026912
     8  C    0.433440   0.000553   0.002543
     9  H   -0.003798  -0.004772   0.000891
    10  H   -0.011351  -0.082839  -0.034720
    11  H   -0.031369   0.004507  -0.001273
    12  H   -0.034567  -0.005028   0.000070
    13  H    0.556544   0.000290   0.001585
    14  O    0.000290   8.019423   0.293305
    15  H    0.001585   0.293305   0.444716
          Atomic-Atomic Spin Densities.
               1          2          3          4          5          6
     1  C    0.208868   0.011021  -0.142056  -0.045316   0.000827  -0.004278
     2  H    0.011021  -0.000157  -0.008826  -0.002824   0.000080  -0.000289
     3  C   -0.142056  -0.008826   0.098447   0.037619  -0.001422   0.008925
     4  C   -0.045316  -0.002824   0.037619  -0.003192   0.002002   0.004209
     5  O    0.000827   0.000080  -0.001422   0.002002  -0.002172   0.001132
     6  O   -0.004278  -0.000289   0.008925   0.004209   0.001132   0.007026
     7  C   -0.031177  -0.000109  -0.005158   0.027387  -0.000770  -0.054897
     8  C    0.026233   0.000274  -0.006608  -0.019247   0.000745   0.006501
     9  H   -0.008500  -0.000099   0.000838   0.009386  -0.000054   0.001812
    10  H   -0.004210   0.000092  -0.005125   0.000477  -0.001240  -0.009554
    11  H    0.002507   0.000001   0.000428  -0.001822   0.000152   0.000574
    12  H   -0.010187  -0.000161   0.004788   0.004375  -0.000295   0.000516
    13  H    0.000776  -0.000000  -0.000217  -0.000137  -0.000016   0.000242
    14  O    0.005564   0.000036   0.003764  -0.004308   0.000124   0.024931
    15  H   -0.001230  -0.000018  -0.000692   0.000948  -0.000043  -0.002196
               7          8          9         10         11         12
     1  C   -0.031177   0.026233  -0.008500  -0.004210   0.002507  -0.010187
     2  H   -0.000109   0.000274  -0.000099   0.000092   0.000001  -0.000161
     3  C   -0.005158  -0.006608   0.000838  -0.005125   0.000428   0.004788
     4  C    0.027387  -0.019247   0.009386   0.000477  -0.001822   0.004375
     5  O   -0.000770   0.000745  -0.000054  -0.001240   0.000152  -0.000295
     6  O   -0.054897   0.006501   0.001812  -0.009554   0.000574   0.000516
     7  C    0.406146  -0.022898  -0.022849   0.063439  -0.004479   0.001123
     8  C   -0.022898  -0.023307   0.005648  -0.008685   0.000552   0.001057
     9  H   -0.022849   0.005648  -0.014326   0.012516   0.000098  -0.000072
    10  H    0.063439  -0.008685   0.012516  -0.129380   0.001997  -0.003552
    11  H   -0.004479   0.000552   0.000098   0.001997   0.003170  -0.001112
    12  H    0.001123   0.001057  -0.000072  -0.003552  -0.001112   0.016116
    13  H   -0.001146   0.001556   0.000108  -0.001820   0.000164  -0.000333
    14  O   -0.077462   0.019192   0.002403  -0.026920   0.001543  -0.000873
    15  H    0.004042   0.000071   0.000067   0.000305  -0.000065   0.000160
              13         14         15
     1  C    0.000776   0.005564  -0.001230
     2  H   -0.000000   0.000036  -0.000018
     3  C   -0.000217   0.003764  -0.000692
     4  C   -0.000137  -0.004308   0.000948
     5  O   -0.000016   0.000124  -0.000043
     6  O    0.000242   0.024931  -0.002196
     7  C   -0.001146  -0.077462   0.004042
     8  C    0.001556   0.019192   0.000071
     9  H    0.000108   0.002403   0.000067
    10  H   -0.001820  -0.026920   0.000305
    11  H    0.000164   0.001543  -0.000065
    12  H   -0.000333  -0.000873   0.000160
    13  H    0.001433   0.000558   0.000010
    14  O    0.000558   0.936576   0.005831
    15  H    0.000010   0.005831  -0.038014
 Mulliken charges and spin densities:
               1          2
     1  C   -1.703291   0.008845
     2  H    0.228207  -0.000979
     3  C    1.901582  -0.015294
     4  C   -0.048928   0.009556
     5  O   -0.331042  -0.000949
     6  O   -0.153439  -0.015345
     7  C   -0.388338   0.281193
     8  C   -0.403360  -0.018916
     9  H    0.168169  -0.013023
    10  H    0.272625  -0.111660
    11  H    0.178345   0.003709
    12  H    0.126966   0.011549
    13  H    0.137274   0.001179
    14  O   -0.255638   0.890959
    15  H    0.270869  -0.030824
 Sum of Mulliken charges =  -0.00000   1.00000
 Mulliken charges and spin densities with hydrogens summed into heavy atoms:
               1          2
     1  C   -1.475084   0.007866
     3  C    1.901582  -0.015294
     4  C   -0.048928   0.009556
     5  O   -0.331042  -0.000949
     6  O   -0.153439  -0.015345
     7  C    0.052456   0.156510
     8  C    0.039224  -0.002479
    14  O    0.015231   0.860135
 Electronic spatial extent (au):  <R**2>=           1188.7984
 Charge=             -0.0000 electrons
 Dipole moment (field-independent basis, Debye):
    X=              0.0398    Y=              3.6972    Z=             -0.9327  Tot=              3.8133
 Quadrupole moment (field-independent basis, Debye-Ang):
   XX=            -49.7206   YY=            -47.2276   ZZ=            -48.1560
   XY=             11.2875   XZ=             -5.1097   YZ=              0.5016
 Traceless Quadrupole moment (field-independent basis, Debye-Ang):
   XX=             -1.3525   YY=              1.1405   ZZ=              0.2121
   XY=             11.2875   XZ=             -5.1097   YZ=              0.5016
 Octapole moment (field-independent basis, Debye-Ang**2):
  XXX=             13.3377  YYY=              6.1280  ZZZ=              2.5469  XYY=            -12.7323
  XXY=             13.2325  XXZ=             -2.8570  XZZ=             -1.0115  YZZ=             -0.8784
  YYZ=             -9.5171  XYZ=             -4.1680
 Hexadecapole moment (field-independent basis, Debye-Ang**3):
 XXXX=           -985.5300 YYYY=           -410.5461 ZZZZ=           -157.4585 XXXY=            102.3277
 XXXZ=            -40.2246 YYYX=             57.6784 YYYZ=             -1.9280 ZZZX=              4.2545
 ZZZY=             -4.3042 XXYY=           -173.5222 XXZZ=           -190.1841 YYZZ=            -92.5208
 XXYZ=            -17.3458 YYXZ=            -13.0659 ZZXY=              5.2360
 N-N= 3.505606693332D+02 E-N=-1.683591299182D+03  KE= 4.176797616910D+02
 1\1\GINC-AJ\SP\UCCSD(T)-FC\6-311++G(d,p)\C5H7O3(2)\AAYUSH\07-May-2025\
 0\\# ccsd(t)/6-311++g(d,p) sp\\Title Card Required\\0,2\C,0,2.46881,1.
 294648,-0.672408\H,0,3.097696,2.092532,-0.992933\C,0,1.767919,0.391474
 ,-0.311388\C,0,0.985328,-0.754725,0.150476\O,0,1.491252,-1.784159,0.47
 4775\O,0,-0.348977,-0.592019,0.194227\C,0,-0.959927,0.636948,-0.188059
 \C,0,-1.103035,1.590067,0.969149\H,0,-0.476428,1.058639,-1.070997\H,0,
 -2.015817,0.31318,-0.533226\H,0,-1.623847,1.101914,1.793849\H,0,-0.120
 646,1.922118,1.31593\H,0,-1.676498,2.465289,0.660119\O,0,-3.160932,-0.
 474962,-0.67953\H,0,-2.761693,-1.310661,-0.383758\\Version=ES64L-G16Re
 vA.03\State=2-A\HF=-417.9629422\MP2=-419.2398952\MP3=-419.2635265\MP4D
 =-419.2950068\MP4DQ=-419.2691272\PUHF=-417.9685807\PMP2-0=-419.2436396
 \PMP3-0=-419.2658166\MP4SDQ=-419.2886178\CCSD=-419.2878736\CCSD(T)=-41
 9.3419961\S2=0.770543\S2-1=0.756648\S2A=0.750232\RMSD=8.466e-09\PG=C01
  [X(C5H7O3)]\\@


 IT IS THE BEHAVIOR AND DISTRIBUTION OF THE ELECTRONS 
 AROUND THE NUCLEUS THAT GIVES THE FUNDAMENTAL 
 CHARACTER OF AN ATOM:  IT MUST BE THE SAME FOR MOLECULES.

                               -- C. A. COULSON, 1951
 Job cpu time:       0 days 18 hours 42 minutes 46.0 seconds.
 Elapsed time:       0 days  0 hours 47 minutes  0.1 seconds.
 File lengths (MBytes):  RWF=  44733 Int=      0 D2E=      0 Chk=      6 Scr=      1
 Normal termination of Gaussian 16 at Wed May  7 21:17:31 2025.
