 Entering Gaussian System, Link 0=g16
 Initial command:
 /opt/g16/l1.exe "/home/aayush/Research/Transition_states/Abstraction/ts9_irc_points/Gau-27471.inp" -scrdir="/home/aayush/Research/Transition_states/Abstraction/ts9_irc_points/"
 Entering Link 1 = /opt/g16/l1.exe PID=     27474.
  
 Copyright (c) 1988,1990,1992,1993,1995,1998,2003,2009,2016,
            Gaussian, Inc.  All Rights Reserved.
  
 This is part of the Gaussian(R) 16 program.  It is based on
 the Gaussian(R) 09 system (copyright 2009, Gaussian, Inc.),
 the Gaussian(R) 03 system (copyright 2003, Gaussian, Inc.),
 the Gaussian(R) 98 system (copyright 1998, Gaussian, Inc.),
 the Gaussian(R) 94 system (copyright 1995, Gaussian, Inc.),
 the Gaussian 92(TM) system (copyright 1992, Gaussian, Inc.),
 the Gaussian 90(TM) system (copyright 1990, Gaussian, Inc.),
 the Gaussian 88(TM) system (copyright 1988, Gaussian, Inc.),
 the Gaussian 86(TM) system (copyright 1986, Carnegie Mellon
 University), and the Gaussian 82(TM) system (copyright 1983,
 Carnegie Mellon University). Gaussian is a federally registered
 trademark of Gaussian, Inc.
  
 This software contains proprietary and confidential information,
 including trade secrets, belonging to Gaussian, Inc.
  
 This software is provided under written license and may be
 used, copied, transmitted, or stored only in accord with that
 written license.
  
 The following legend is applicable only to US Government
 contracts under FAR:
  
                    RESTRICTED RIGHTS LEGEND
  
 Use, reproduction and disclosure by the US Government is
 subject to restrictions as set forth in subparagraphs (a)
 and (c) of the Commercial Computer Software - Restricted
 Rights clause in FAR 52.227-19.
  
 Gaussian, Inc.
 340 Quinnipiac St., Bldg. 40, Wallingford CT 06492
  
  
 ---------------------------------------------------------------
 Warning -- This program may not be used in any manner that
 competes with the business of Gaussian, Inc. or will provide
 assistance to any competitor of Gaussian, Inc.  The licensee
 of this program is prohibited from giving any competitor of
 Gaussian, Inc. access to this program.  By using this program,
 the user acknowledges that Gaussian, Inc. is engaged in the
 business of creating and licensing software in the field of
 computational chemistry and represents and warrants to the
 licensee that it is not a competitor of Gaussian, Inc. and that
 it will not use this program in any manner prohibited above.
 ---------------------------------------------------------------
  

 Cite this work as:
 Gaussian 16, Revision A.03,
 M. J. Frisch, G. W. Trucks, H. B. Schlegel, G. E. Scuseria, 
 M. A. Robb, J. R. Cheeseman, G. Scalmani, V. Barone, 
 G. A. Petersson, H. Nakatsuji, X. Li, M. Caricato, A. V. Marenich, 
 J. Bloino, B. G. Janesko, R. Gomperts, B. Mennucci, H. P. Hratchian, 
 J. V. Ortiz, A. F. Izmaylov, J. L. Sonnenberg, D. Williams-Young, 
 F. Ding, F. Lipparini, F. Egidi, J. Goings, B. Peng, A. Petrone, 
 T. Henderson, D. Ranasinghe, V. G. Zakrzewski, J. Gao, N. Rega, 
 G. Zheng, W. Liang, M. Hada, M. Ehara, K. Toyota, R. Fukuda, 
 J. Hasegawa, M. Ishida, T. Nakajima, Y. Honda, O. Kitao, H. Nakai, 
 T. Vreven, K. Throssell, J. A. Montgomery, Jr., J. E. Peralta, 
 F. Ogliaro, M. J. Bearpark, J. J. Heyd, E. N. Brothers, K. N. Kudin, 
 V. N. Staroverov, T. A. Keith, R. Kobayashi, J. Normand, 
 K. Raghavachari, A. P. Rendell, J. C. Burant, S. S. Iyengar, 
 J. Tomasi, M. Cossi, J. M. Millam, M. Klene, C. Adamo, R. Cammi, 
 J. W. Ochterski, R. L. Martin, K. Morokuma, O. Farkas, 
 J. B. Foresman, and D. J. Fox, Gaussian, Inc., Wallingford CT, 2016.
 
 ******************************************
 Gaussian 16:  ES64L-G16RevA.03 25-Dec-2016
                29-Mar-2025 
 ******************************************
 %chk=ethyl_propiolate.chk
 %nprocshared=24
 Will use up to   24 processors via shared memory.
 %mem=12GB
 --------------------------
 # freq 6-311++g(d,p) m062x
 --------------------------
 1/10=4,30=1,38=1/1,3;
 2/12=2,17=6,18=5,40=1/2;
 3/5=4,6=6,7=1111,11=2,25=1,30=1,71=2,74=-55,140=1/1,2,3;
 4//1;
 5/5=2,38=5,98=1/2;
 8/6=4,10=90,11=11/1;
 11/6=1,8=1,9=11,15=111,16=1/1,2,10;
 10/6=1/2;
 6/7=2,8=2,9=2,10=2,28=1/1;
 7/8=1,10=1,25=1/1,2,3,16;
 1/10=4,30=1/3;
 99//99;
 -------------------
 Title Card Required
 -------------------
 Symbolic Z-matrix:
 Charge =  0 Multiplicity = 2
 C                     2.46868   1.29472  -0.67241 
 H                     3.09745   2.09282  -0.99304 
 C                     1.76774   0.3915   -0.31148 
 C                     0.9867   -0.75503   0.14986 
 O                     1.49089  -1.78401   0.47474 
 O                    -0.3503   -0.59036   0.19421 
 C                    -0.95848   0.63376  -0.18518 
 C                    -1.10623   1.58849   0.96749 
 H                    -0.50528   1.04723  -1.08726 
 H                    -2.12248   0.23638  -0.53878 
 H                    -1.62314   1.10177   1.79533 
 H                    -0.11961   1.91774   1.31019 
 H                    -1.67733   2.46508   0.65947 
 O                    -3.14992  -0.46734  -0.67802 
 H                    -2.76749  -1.30912  -0.38611 
 

 GradGradGradGradGradGradGradGradGradGradGradGradGradGradGradGradGradGrad
 Berny optimization.
 Initialization pass.
 Trust Radius=3.00D-01 FncErr=1.00D-07 GrdErr=1.00D-07 EigMax=2.50D+02 EigMin=1.00D-04
 Number of steps in this run=      2 maximum allowed number of steps=      2.
 GradGradGradGradGradGradGradGradGradGradGradGradGradGradGradGradGradGrad

                          Input orientation:                          
 ---------------------------------------------------------------------
 Center     Atomic      Atomic             Coordinates (Angstroms)
 Number     Number       Type             X           Y           Z
 ---------------------------------------------------------------------
      1          6           0        2.468683    1.294717   -0.672412
      2          1           0        3.097450    2.092816   -0.993042
      3          6           0        1.767743    0.391502   -0.311478
      4          6           0        0.986701   -0.755027    0.149859
      5          8           0        1.490894   -1.784005    0.474738
      6          8           0       -0.350299   -0.590356    0.194207
      7          6           0       -0.958483    0.633762   -0.185177
      8          6           0       -1.106226    1.588491    0.967487
      9          1           0       -0.505275    1.047232   -1.087258
     10          1           0       -2.122476    0.236380   -0.538782
     11          1           0       -1.623144    1.101767    1.795334
     12          1           0       -0.119614    1.917741    1.310193
     13          1           0       -1.677330    2.465079    0.659471
     14          8           0       -3.149915   -0.467335   -0.678022
     15          1           0       -2.767492   -1.309117   -0.386110
 ---------------------------------------------------------------------
                    Distance matrix (angstroms):
                    1          2          3          4          5
     1  C    0.000000
     2  H    1.065417   0.000000
     3  C    1.198911   2.264314   0.000000
     4  C    2.659671   3.724472   1.461981   0.000000
     5  O    3.427908   4.445800   2.329724   1.191030   0.000000
     6  O    3.500170   4.527245   2.388695   1.347832   2.212123
     7  C    3.524163   4.385439   2.739881   2.413447   3.504359
     8  C    3.944052   4.665716   3.365744   3.246681   4.285039
     9  H    3.012934   3.752566   2.489664   2.646618   3.800056
    10  H    4.713457   5.558807   3.899940   3.335280   4.262115
    11  H    4.782264   5.571465   4.054781   3.600911   4.446222
    12  H    3.319362   3.960435   2.919133   3.116729   4.122456
    13  H    4.509222   5.066350   4.136543   4.210208   5.303441
    14  O    5.888421   6.758933   5.005529   4.228445   4.959797
    15  H    5.854865   6.807280   4.844175   3.832524   4.370404
                    6          7          8          9         10
     6  O    0.000000
     7  C    1.418550   0.000000
     8  C    2.432439   1.503985   0.000000
     9  H    2.085153   1.090919   2.208185   0.000000
    10  H    2.088391   1.279777   2.264909   1.890409   0.000000
    11  H    2.654623   2.140847   1.090612   3.092239   2.538961
    12  H    2.754849   2.142063   1.095106   2.579591   3.202677
    13  H    3.363505   2.141003   1.090615   2.536743   2.569254
    14  O    2.934922   2.501537   3.333284   3.074981   1.253090
    15  H    2.587703   2.662267   3.603909   3.340900   1.681641
                   11         12         13         14         15
    11  H    0.000000
    12  H    1.778139   0.000000
    13  H    1.775314   1.774682   0.000000
    14  O    3.303120   4.338699   3.543508   0.000000
    15  H    3.446823   4.505698   4.065249   0.969565   0.000000
 Stoichiometry    C5H7O3(2)
 Framework group  C1[X(C5H7O3)]
 Deg. of freedom    39
 Full point group                 C1      NOp   1
 Largest Abelian subgroup         C1      NOp   1
 Largest concise Abelian subgroup C1      NOp   1
                         Standard orientation:                         
 ---------------------------------------------------------------------
 Center     Atomic      Atomic             Coordinates (Angstroms)
 Number     Number       Type             X           Y           Z
 ---------------------------------------------------------------------
      1          6           0        2.514468    1.235327   -0.678103
      2          1           0        3.142713    2.033957   -0.998435
      3          6           0        1.814119    0.331520   -0.317506
      4          6           0        1.033827   -0.815691    0.143405
      5          8           0        1.538694   -1.844452    0.467923
      6          8           0       -0.303283   -0.651919    0.187789
      7          6           0       -0.912269    0.571933   -0.191165
      8          6           0       -1.060662    1.526150    0.961840
      9          1           0       -0.459318    0.986027   -1.093089
     10          1           0       -2.075993    0.173909   -0.544933
     11          1           0       -1.577273    1.038786    1.789503
     12          1           0       -0.074274    1.855928    1.304681
     13          1           0       -1.632340    2.402471    0.654129
     14          8           0       -3.102964   -0.530434   -0.684444
     15          1           0       -2.719990   -1.372068   -0.392828
 ---------------------------------------------------------------------
 Rotational constants (GHZ):           2.8041369           1.2326500           0.9826276
 Standard basis: 6-311++G(d,p) (5D, 7F)
 There are   233 symmetry adapted cartesian basis functions of A   symmetry.
 There are   225 symmetry adapted basis functions of A   symmetry.
   225 basis functions,   351 primitive gaussians,   233 cartesian basis functions
    31 alpha electrons       30 beta electrons
       nuclear repulsion energy       350.7158774652 Hartrees.
 NAtoms=   15 NActive=   15 NUniq=   15 SFac= 1.00D+00 NAtFMM=   60 NAOKFM=F Big=F
 Integral buffers will be    131072 words long.
 Raffenetti 2 integral format.
 Two-electron integral symmetry is turned on.
 One-electron integrals computed using PRISM.
 NBasis=   225 RedAO= T EigKep=  1.51D-06  NBF=   225
 NBsUse=   225 1.00D-06 EigRej= -1.00D+00 NBFU=   225
 ExpMin= 3.60D-02 ExpMax= 8.59D+03 ExpMxC= 1.30D+03 IAcc=3 IRadAn=         5 AccDes= 0.00D+00
 Harris functional with IExCor= 1009 and IRadAn=       5 diagonalized for initial guess.
 HarFok:  IExCor= 1009 AccDes= 0.00D+00 IRadAn=         5 IDoV= 1 UseB2=F ITyADJ=14
 ICtDFT=  3500011 ScaDFX=  1.000000  1.000000  1.000000  1.000000
 FoFCou: FMM=F IPFlag=           0 FMFlag=      100000 FMFlg1=           0
         NFxFlg=           0 DoJE=T BraDBF=F KetDBF=T FulRan=T
         wScrn=  0.000000 ICntrl=       500 IOpCl=  0 I1Cent=   200000004 NGrid=           0
         NMat0=    1 NMatS0=      1 NMatT0=    0 NMatD0=    1 NMtDS0=    0 NMtDT0=    0
 Petite list used in FoFCou.
 Initial guess <Sx>= 0.0000 <Sy>= 0.0000 <Sz>= 0.5000 <S**2>= 0.7500 S= 0.5000
 Requested convergence on RMS density matrix=1.00D-08 within 128 cycles.
 Requested convergence on MAX density matrix=1.00D-06.
 Requested convergence on             energy=1.00D-06.
 No special actions if energy rises.
 SCF Done:  E(UM062X) =  -420.193894198     A.U. after   20 cycles
            NFock= 20  Conv=0.67D-08     -V/T= 2.0034
 <Sx>= 0.0000 <Sy>= 0.0000 <Sz>= 0.5000 <S**2>= 0.7605 S= 0.5052
 <L.S>=  0.00000000000    
 Annihilation of the first spin contaminant:
 S**2 before annihilation     0.7605,   after     0.7500
 DoSCS=F DFT=T ScalE2(SS,OS)=  1.000000  1.000000
 Range of M.O.s used for correlation:     1   225
 NBasis=   225 NAE=    31 NBE=    30 NFC=     0 NFV=     0
 NROrb=    225 NOA=    31 NOB=    30 NVA=   194 NVB=   195

 **** Warning!!: The largest alpha MO coefficient is  0.30315297D+03


 **** Warning!!: The largest beta MO coefficient is  0.25424162D+03

 Symmetrizing basis deriv contribution to polar:
 IMax=3 JMax=2 DiffMx= 0.00D+00
 G2DrvN: will do    16 centers at a time, making    1 passes.
 Calling FoFCou, ICntrl=  3107 FMM=F I1Cent=   0 AccDes= 0.00D+00.
 End of G2Drv F.D. properties file   721 does not exist.
 End of G2Drv F.D. properties file   722 does not exist.
 End of G2Drv F.D. properties file   788 does not exist.
          IDoAtm=111111111111111
          Differentiating once with respect to electric field.
                with respect to dipole field.
          Differentiating once with respect to nuclear coordinates.
 Keep R1 and R2 ints in memory in canonical form, NReq=671901977.
          There are    48 degrees of freedom in the 1st order CPHF.  IDoFFX=6 NUNeed=     3.
     45 vectors produced by pass  0 Test12= 2.47D-14 2.08D-09 XBig12= 9.90D+01 3.48D+00.
 AX will form    45 AO Fock derivatives at one time.
     45 vectors produced by pass  1 Test12= 2.47D-14 2.08D-09 XBig12= 1.78D+01 5.04D-01.
     45 vectors produced by pass  2 Test12= 2.47D-14 2.08D-09 XBig12= 6.90D-01 1.28D-01.
     45 vectors produced by pass  3 Test12= 2.47D-14 2.08D-09 XBig12= 1.01D-02 1.21D-02.
     45 vectors produced by pass  4 Test12= 2.47D-14 2.08D-09 XBig12= 1.38D-04 1.60D-03.
     45 vectors produced by pass  5 Test12= 2.47D-14 2.08D-09 XBig12= 1.34D-06 1.04D-04.
     44 vectors produced by pass  6 Test12= 2.47D-14 2.08D-09 XBig12= 1.15D-08 1.04D-05.
     21 vectors produced by pass  7 Test12= 2.47D-14 2.08D-09 XBig12= 7.24D-11 5.41D-07.
      3 vectors produced by pass  8 Test12= 2.47D-14 2.08D-09 XBig12= 5.56D-13 4.89D-08.
      3 vectors produced by pass  9 Test12= 2.47D-14 2.08D-09 XBig12= 6.63D-15 7.47D-09.
      1 vectors produced by pass 10 Test12= 2.47D-14 2.08D-09 XBig12= 3.15D-16 4.15D-09.
 InvSVY:  IOpt=1 It=  1 EMax= 1.24D-14
 Solved reduced A of dimension   342 with    48 vectors.
 Isotropic polarizability for W=    0.000000       77.41 Bohr**3.
 End of Minotr F.D. properties file   721 does not exist.
 End of Minotr F.D. properties file   722 does not exist.
 End of Minotr F.D. properties file   788 does not exist.

 **********************************************************************

            Population analysis using the SCF density.

 **********************************************************************

 Orbital symmetries:
 Alpha Orbitals:
       Occupied  (A) (A) (A) (A) (A) (A) (A) (A) (A) (A) (A) (A)
                 (A) (A) (A) (A) (A) (A) (A) (A) (A) (A) (A) (A)
                 (A) (A) (A) (A) (A) (A) (A)
       Virtual   (A) (A) (A) (A) (A) (A) (A) (A) (A) (A) (A) (A)
                 (A) (A) (A) (A) (A) (A) (A) (A) (A) (A) (A) (A)
                 (A) (A) (A) (A) (A) (A) (A) (A) (A) (A) (A) (A)
                 (A) (A) (A) (A) (A) (A) (A) (A) (A) (A) (A) (A)
                 (A) (A) (A) (A) (A) (A) (A) (A) (A) (A) (A) (A)
                 (A) (A) (A) (A) (A) (A) (A) (A) (A) (A) (A) (A)
                 (A) (A) (A) (A) (A) (A) (A) (A) (A) (A) (A) (A)
                 (A) (A) (A) (A) (A) (A) (A) (A) (A) (A) (A) (A)
                 (A) (A) (A) (A) (A) (A) (A) (A) (A) (A) (A) (A)
                 (A) (A) (A) (A) (A) (A) (A) (A) (A) (A) (A) (A)
                 (A) (A) (A) (A) (A) (A) (A) (A) (A) (A) (A) (A)
                 (A) (A) (A) (A) (A) (A) (A) (A) (A) (A) (A) (A)
                 (A) (A) (A) (A) (A) (A) (A) (A) (A) (A) (A) (A)
                 (A) (A) (A) (A) (A) (A) (A) (A) (A) (A) (A) (A)
                 (A) (A) (A) (A) (A) (A) (A) (A) (A) (A) (A) (A)
                 (A) (A) (A) (A) (A) (A) (A) (A) (A) (A) (A) (A)
                 (A) (A)
 Beta  Orbitals:
       Occupied  (A) (A) (A) (A) (A) (A) (A) (A) (A) (A) (A) (A)
                 (A) (A) (A) (A) (A) (A) (A) (A) (A) (A) (A) (A)
                 (A) (A) (A) (A) (A) (A)
       Virtual   (A) (A) (A) (A) (A) (A) (A) (A) (A) (A) (A) (A)
                 (A) (A) (A) (A) (A) (A) (A) (A) (A) (A) (A) (A)
                 (A) (A) (A) (A) (A) (A) (A) (A) (A) (A) (A) (A)
                 (A) (A) (A) (A) (A) (A) (A) (A) (A) (A) (A) (A)
                 (A) (A) (A) (A) (A) (A) (A) (A) (A) (A) (A) (A)
                 (A) (A) (A) (A) (A) (A) (A) (A) (A) (A) (A) (A)
                 (A) (A) (A) (A) (A) (A) (A) (A) (A) (A) (A) (A)
                 (A) (A) (A) (A) (A) (A) (A) (A) (A) (A) (A) (A)
                 (A) (A) (A) (A) (A) (A) (A) (A) (A) (A) (A) (A)
                 (A) (A) (A) (A) (A) (A) (A) (A) (A) (A) (A) (A)
                 (A) (A) (A) (A) (A) (A) (A) (A) (A) (A) (A) (A)
                 (A) (A) (A) (A) (A) (A) (A) (A) (A) (A) (A) (A)
                 (A) (A) (A) (A) (A) (A) (A) (A) (A) (A) (A) (A)
                 (A) (A) (A) (A) (A) (A) (A) (A) (A) (A) (A) (A)
                 (A) (A) (A) (A) (A) (A) (A) (A) (A) (A) (A) (A)
                 (A) (A) (A) (A) (A) (A) (A) (A) (A) (A) (A) (A)
                 (A) (A) (A)
 The electronic state is 2-A.
 Alpha  occ. eigenvalues --  -19.70335 -19.64534 -19.64420 -10.72461 -10.64507
 Alpha  occ. eigenvalues --  -10.59245 -10.58762 -10.56137  -1.27192  -1.18749
 Alpha  occ. eigenvalues --   -1.11890  -0.90956  -0.90278  -0.79274  -0.75292
 Alpha  occ. eigenvalues --   -0.66451  -0.63149  -0.61384  -0.58698  -0.56685
 Alpha  occ. eigenvalues --   -0.52990  -0.51586  -0.49948  -0.48956  -0.46405
 Alpha  occ. eigenvalues --   -0.41466  -0.41261  -0.40346  -0.38983  -0.38186
 Alpha  occ. eigenvalues --   -0.33713
 Alpha virt. eigenvalues --   -0.03554  -0.01132   0.00486   0.01154   0.01332
 Alpha virt. eigenvalues --    0.02647   0.03294   0.04337   0.05221   0.05944
 Alpha virt. eigenvalues --    0.06515   0.07333   0.08318   0.09083   0.09795
 Alpha virt. eigenvalues --    0.10374   0.10723   0.11466   0.11946   0.12782
 Alpha virt. eigenvalues --    0.13398   0.13772   0.14059   0.14414   0.16137
 Alpha virt. eigenvalues --    0.16343   0.16739   0.16949   0.18008   0.19150
 Alpha virt. eigenvalues --    0.20742   0.21806   0.22118   0.23500   0.24109
 Alpha virt. eigenvalues --    0.25138   0.26214   0.28014   0.29289   0.29509
 Alpha virt. eigenvalues --    0.30285   0.30663   0.31717   0.32396   0.32708
 Alpha virt. eigenvalues --    0.33579   0.33967   0.35551   0.36730   0.37136
 Alpha virt. eigenvalues --    0.38671   0.43156   0.45012   0.45535   0.49156
 Alpha virt. eigenvalues --    0.50034   0.50852   0.52914   0.55752   0.57589
 Alpha virt. eigenvalues --    0.60053   0.60796   0.62670   0.63315   0.64832
 Alpha virt. eigenvalues --    0.66796   0.67666   0.69294   0.70185   0.70749
 Alpha virt. eigenvalues --    0.71715   0.73488   0.76255   0.78957   0.80999
 Alpha virt. eigenvalues --    0.85279   0.86985   0.89936   0.96937   0.99737
 Alpha virt. eigenvalues --    1.03899   1.05833   1.09281   1.10194   1.10464
 Alpha virt. eigenvalues --    1.13684   1.16068   1.16751   1.17816   1.19263
 Alpha virt. eigenvalues --    1.21218   1.23264   1.27301   1.28248   1.29932
 Alpha virt. eigenvalues --    1.31837   1.33047   1.35197   1.40192   1.42369
 Alpha virt. eigenvalues --    1.42539   1.47144   1.47835   1.48757   1.55032
 Alpha virt. eigenvalues --    1.58016   1.59410   1.60120   1.61033   1.62290
 Alpha virt. eigenvalues --    1.63711   1.65519   1.67303   1.68163   1.74223
 Alpha virt. eigenvalues --    1.76652   1.77508   1.80591   1.81674   1.85435
 Alpha virt. eigenvalues --    1.89024   1.92771   1.95513   1.99445   2.01523
 Alpha virt. eigenvalues --    2.08391   2.11863   2.13262   2.14258   2.22801
 Alpha virt. eigenvalues --    2.29623   2.39963   2.42859   2.49003   2.50135
 Alpha virt. eigenvalues --    2.54731   2.57041   2.57333   2.59058   2.60577
 Alpha virt. eigenvalues --    2.62793   2.64402   2.66976   2.70719   2.74102
 Alpha virt. eigenvalues --    2.79731   2.80680   2.81925   2.87583   2.92660
 Alpha virt. eigenvalues --    2.96760   2.99418   3.01865   3.02204   3.05209
 Alpha virt. eigenvalues --    3.06526   3.12166   3.18830   3.20095   3.22786
 Alpha virt. eigenvalues --    3.24576   3.32399   3.33223   3.37576   3.42509
 Alpha virt. eigenvalues --    3.50302   3.53667   3.63380   3.75214   3.79690
 Alpha virt. eigenvalues --    3.83542   3.84685   3.95879   4.06155   4.11908
 Alpha virt. eigenvalues --    4.14909   4.28576   5.08815   5.14361   5.14740
 Alpha virt. eigenvalues --    5.27396   5.36815   5.43466   5.62917   5.68519
 Alpha virt. eigenvalues --    5.96847  23.60876  23.84233  23.93057  24.02434
 Alpha virt. eigenvalues --   25.14719  49.97296  49.98408  50.11560
  Beta  occ. eigenvalues --  -19.70306 -19.64525 -19.63385 -10.72434 -10.63956
  Beta  occ. eigenvalues --  -10.59240 -10.58762 -10.56144  -1.27015  -1.18584
  Beta  occ. eigenvalues --   -1.08008  -0.90807  -0.89200  -0.78751  -0.74807
  Beta  occ. eigenvalues --   -0.65621  -0.63005  -0.59020  -0.58280  -0.54963
  Beta  occ. eigenvalues --   -0.51558  -0.51089  -0.48784  -0.47376  -0.43652
  Beta  occ. eigenvalues --   -0.41232  -0.40271  -0.38885  -0.38116  -0.37877
  Beta virt. eigenvalues --   -0.11094  -0.03457  -0.01100   0.00584   0.01227
  Beta virt. eigenvalues --    0.01494   0.02719   0.03378   0.04509   0.05283
  Beta virt. eigenvalues --    0.06062   0.06633   0.07418   0.08441   0.09117
  Beta virt. eigenvalues --    0.09905   0.10442   0.10842   0.11587   0.12064
  Beta virt. eigenvalues --    0.12906   0.13516   0.14048   0.14139   0.14684
  Beta virt. eigenvalues --    0.16399   0.16421   0.16899   0.16990   0.18227
  Beta virt. eigenvalues --    0.19461   0.21130   0.21941   0.22188   0.23829
  Beta virt. eigenvalues --    0.24320   0.25324   0.26020   0.28031   0.29699
  Beta virt. eigenvalues --    0.29840   0.30407   0.30872   0.31836   0.32575
  Beta virt. eigenvalues --    0.32857   0.33786   0.34497   0.35623   0.36844
  Beta virt. eigenvalues --    0.38498   0.39333   0.43253   0.45123   0.45705
  Beta virt. eigenvalues --    0.49297   0.50144   0.51070   0.53122   0.56101
  Beta virt. eigenvalues --    0.58090   0.60350   0.61027   0.62792   0.63795
  Beta virt. eigenvalues --    0.65494   0.67552   0.67856   0.69322   0.70313
  Beta virt. eigenvalues --    0.71124   0.71821   0.73645   0.76316   0.79426
  Beta virt. eigenvalues --    0.81287   0.85373   0.87208   0.90006   0.97013
  Beta virt. eigenvalues --    1.00491   1.04392   1.06252   1.09667   1.10733
  Beta virt. eigenvalues --    1.11109   1.15168   1.16458   1.17504   1.17927
  Beta virt. eigenvalues --    1.20021   1.21446   1.23359   1.27512   1.28426
  Beta virt. eigenvalues --    1.30086   1.32108   1.33235   1.35374   1.40502
  Beta virt. eigenvalues --    1.42572   1.42713   1.47534   1.48519   1.48887
  Beta virt. eigenvalues --    1.56584   1.58336   1.59693   1.60782   1.61422
  Beta virt. eigenvalues --    1.62527   1.64001   1.65600   1.67840   1.68657
  Beta virt. eigenvalues --    1.74871   1.76784   1.77449   1.80848   1.81770
  Beta virt. eigenvalues --    1.85780   1.89429   1.92895   1.95773   1.99753
  Beta virt. eigenvalues --    2.01752   2.08766   2.12448   2.13616   2.15174
  Beta virt. eigenvalues --    2.24215   2.30181   2.40162   2.43544   2.49206
  Beta virt. eigenvalues --    2.50218   2.54198   2.57002   2.57505   2.59242
  Beta virt. eigenvalues --    2.61535   2.63132   2.64550   2.67111   2.70948
  Beta virt. eigenvalues --    2.72987   2.77233   2.80068   2.82087   2.87902
  Beta virt. eigenvalues --    2.92802   2.96905   2.99770   3.02075   3.05256
  Beta virt. eigenvalues --    3.05588   3.06701   3.12376   3.19958   3.21530
  Beta virt. eigenvalues --    3.23622   3.26115   3.32653   3.33329   3.38025
  Beta virt. eigenvalues --    3.42564   3.51355   3.54549   3.63516   3.75376
  Beta virt. eigenvalues --    3.81063   3.83947   3.84942   3.97241   4.06971
  Beta virt. eigenvalues --    4.12919   4.15075   4.29339   5.10332   5.14724
  Beta virt. eigenvalues --    5.14867   5.27429   5.39400   5.45233   5.65193
  Beta virt. eigenvalues --    5.68781   5.96975  23.60881  23.84921  23.93095
  Beta virt. eigenvalues --   24.02442  25.14729  49.97171  49.97769  50.11553
          Condensed to atoms (all electrons):
               1          2          3          4          5          6
     1  C   26.693091   0.858391 -11.492917  -8.284168  -0.161969  -0.084274
     2  H    0.858391   0.436951  -0.387687  -0.092861  -0.005247  -0.004481
     3  C  -11.492917  -0.387687  14.338263   2.030961   0.023775  -0.266042
     4  C   -8.284168  -0.092861   2.030961  12.031650   0.482272   0.181746
     5  O   -0.161969  -0.005247   0.023775   0.482272   7.967374  -0.078471
     6  O   -0.084274  -0.004481  -0.266042   0.181746  -0.078471   8.244516
     7  C   -0.127884  -0.009985   0.278777  -0.330656  -0.003506   0.182403
     8  C   -0.073774   0.005412  -0.138691   0.261401   0.004980  -0.089817
     9  H    0.095013  -0.002313   0.025079  -0.143994   0.002662  -0.019592
    10  H   -0.057002  -0.000643   0.021338   0.030269   0.001073  -0.053916
    11  H    0.007990   0.000569  -0.006720   0.001075   0.000516  -0.005831
    12  H   -0.090245  -0.004193   0.083263   0.020278  -0.001505  -0.012826
    13  H    0.012015   0.000263  -0.009280  -0.006234   0.000571   0.017071
    14  O    0.002173   0.000170  -0.002526   0.008581   0.000538   0.028638
    15  H   -0.005536  -0.000071  -0.010469   0.013711  -0.000476   0.010124
               7          8          9         10         11         12
     1  C   -0.127884  -0.073774   0.095013  -0.057002   0.007990  -0.090245
     2  H   -0.009985   0.005412  -0.002313  -0.000643   0.000569  -0.004193
     3  C    0.278777  -0.138691   0.025079   0.021338  -0.006720   0.083263
     4  C   -0.330656   0.261401  -0.143994   0.030269   0.001075   0.020278
     5  O   -0.003506   0.004980   0.002662   0.001073   0.000516  -0.001505
     6  O    0.182403  -0.089817  -0.019592  -0.053916  -0.005831  -0.012826
     7  C    6.443380  -0.503261   0.458773   0.253075  -0.077813   0.047017
     8  C   -0.503261   5.925934  -0.140793  -0.088778   0.455921   0.305456
     9  H    0.458773  -0.140793   0.572251  -0.036881   0.001749  -0.006832
    10  H    0.253075  -0.088778  -0.036881   0.536515  -0.015098   0.017188
    11  H   -0.077813   0.455921   0.001749  -0.015098   0.500375  -0.050443
    12  H    0.047017   0.305456  -0.006832   0.017188  -0.050443   0.582449
    13  H   -0.077728   0.439143  -0.005688  -0.009629  -0.026391  -0.035228
    14  O   -0.031150   0.000127  -0.008682   0.118929   0.002400  -0.005121
    15  H    0.008306   0.010224  -0.001347  -0.053996  -0.001485   0.000669
              13         14         15
     1  C    0.012015   0.002173  -0.005536
     2  H    0.000263   0.000170  -0.000071
     3  C   -0.009280  -0.002526  -0.010469
     4  C   -0.006234   0.008581   0.013711
     5  O    0.000571   0.000538  -0.000476
     6  O    0.017071   0.028638   0.010124
     7  C   -0.077728  -0.031150   0.008306
     8  C    0.439143   0.000127   0.010224
     9  H   -0.005688  -0.008682  -0.001347
    10  H   -0.009629   0.118929  -0.053996
    11  H   -0.026391   0.002400  -0.001485
    12  H   -0.035228  -0.005121   0.000669
    13  H    0.522142   0.000433   0.001682
    14  O    0.000433   7.998727   0.292049
    15  H    0.001682   0.292049   0.478187
          Atomic-Atomic Spin Densities.
               1          2          3          4          5          6
     1  C   -0.120360   0.007975   0.078116   0.068642   0.001118  -0.006453
     2  H    0.007975   0.001212  -0.007394  -0.001794   0.000057  -0.000415
     3  C    0.078116  -0.007394  -0.054150  -0.015487  -0.001731   0.007074
     4  C    0.068642  -0.001794  -0.015487  -0.076290   0.003510   0.011149
     5  O    0.001118   0.000057  -0.001731   0.003510   0.003281   0.001312
     6  O   -0.006453  -0.000415   0.007074   0.011149   0.001312   0.050425
     7  C   -0.050358   0.000014  -0.018429   0.052130  -0.001900  -0.119748
     8  C    0.053557   0.000599  -0.010788  -0.041835   0.000773   0.014908
     9  H    0.001495   0.000175  -0.002853   0.003278  -0.000029   0.006549
    10  H   -0.001022   0.000108  -0.004249   0.000265  -0.001130  -0.013358
    11  H    0.002870   0.000067   0.000019  -0.001144   0.000234   0.003087
    12  H   -0.021189  -0.000585   0.009076   0.009565  -0.000405  -0.000544
    13  H    0.000557   0.000005  -0.000339   0.000265  -0.000036   0.000260
    14  O    0.007961   0.000094   0.004064  -0.004468   0.000351   0.039094
    15  H   -0.001183  -0.000020  -0.000601   0.000036  -0.000102  -0.005409
               7          8          9         10         11         12
     1  C   -0.050358   0.053557   0.001495  -0.001022   0.002870  -0.021189
     2  H    0.000014   0.000599   0.000175   0.000108   0.000067  -0.000585
     3  C   -0.018429  -0.010788  -0.002853  -0.004249   0.000019   0.009076
     4  C    0.052130  -0.041835   0.003278   0.000265  -0.001144   0.009565
     5  O   -0.001900   0.000773  -0.000029  -0.001130   0.000234  -0.000405
     6  O   -0.119748   0.014908   0.006549  -0.013358   0.003087  -0.000544
     7  C    0.810309  -0.059955  -0.035342   0.113344  -0.016923   0.003897
     8  C   -0.059955  -0.015808   0.012476  -0.007811   0.008714   0.001809
     9  H   -0.035342   0.012476  -0.005564   0.008235   0.000850  -0.003595
    10  H    0.113344  -0.007811   0.008235  -0.121611   0.001352  -0.002117
    11  H   -0.016923   0.008714   0.000850   0.001352   0.010109  -0.006344
    12  H    0.003897   0.001809  -0.003595  -0.002117  -0.006344   0.044458
    13  H   -0.003533   0.004302   0.000181  -0.001194  -0.000102  -0.001152
    14  O   -0.170826   0.025899   0.005671  -0.029436   0.003619  -0.002798
    15  H    0.014341  -0.003221  -0.000452   0.005600  -0.000583   0.000402
              13         14         15
     1  C    0.000557   0.007961  -0.001183
     2  H    0.000005   0.000094  -0.000020
     3  C   -0.000339   0.004064  -0.000601
     4  C    0.000265  -0.004468   0.000036
     5  O   -0.000036   0.000351  -0.000102
     6  O    0.000260   0.039094  -0.005409
     7  C   -0.003533  -0.170826   0.014341
     8  C    0.004302   0.025899  -0.003221
     9  H    0.000181   0.005671  -0.000452
    10  H   -0.001194  -0.029436   0.005600
    11  H   -0.000102   0.003619  -0.000583
    12  H   -0.001152  -0.002798   0.000402
    13  H    0.001101   0.000728  -0.000009
    14  O    0.000728   0.645960   0.001596
    15  H   -0.000009   0.001596  -0.019142
 Mulliken charges and spin densities:
               1          2
     1  C   -1.290905   0.021728
     2  H    0.205725   0.000098
     3  C    1.512875  -0.017671
     4  C   -0.204031   0.007822
     5  O   -0.232588   0.005304
     6  O   -0.049248  -0.012070
     7  C   -0.509748   0.517024
     8  C   -0.373483  -0.016381
     9  H    0.210595  -0.008924
    10  H    0.337557  -0.053024
    11  H    0.213185   0.005826
    12  H    0.150073   0.030477
    13  H    0.176856   0.001034
    14  O   -0.405289   0.527507
    15  H    0.258427  -0.008747
 Sum of Mulliken charges =  -0.00000   1.00000
 Mulliken charges and spin densities with hydrogens summed into heavy atoms:
               1          2
     1  C   -1.085180   0.021825
     3  C    1.512875  -0.017671
     4  C   -0.204031   0.007822
     5  O   -0.232588   0.005304
     6  O   -0.049248  -0.012070
     7  C   -0.299153   0.508099
     8  C    0.166631   0.020955
    14  O    0.190694   0.465736
 APT charges:
               1
     1  C   -0.159598
     2  H    0.236645
     3  C   -0.306199
     4  C    1.599298
     5  O   -0.837976
     6  O   -1.039345
     7  C    0.892610
     8  C   -0.152465
     9  H   -0.043166
    10  H   -0.260147
    11  H    0.040487
    12  H    0.020684
    13  H    0.030919
    14  O   -0.298308
    15  H    0.276561
 Sum of APT charges =  -0.00000
 APT charges with hydrogens summed into heavy atoms:
               1
     1  C    0.077046
     3  C   -0.306199
     4  C    1.599298
     5  O   -0.837976
     6  O   -1.039345
     7  C    0.849444
     8  C   -0.060376
    14  O   -0.281894
 Electronic spatial extent (au):  <R**2>=           1191.1286
 Charge=             -0.0000 electrons
 Dipole moment (field-independent basis, Debye):
    X=              1.8074    Y=              4.1784    Z=             -0.2908  Tot=              4.5618
 Quadrupole moment (field-independent basis, Debye-Ang):
   XX=            -55.4912   YY=            -46.0009   ZZ=            -47.9428
   XY=              8.1715   XZ=             -6.4519   YZ=              0.2268
 Traceless Quadrupole moment (field-independent basis, Debye-Ang):
   XX=             -5.6796   YY=              3.8107   ZZ=              1.8688
   XY=              8.1715   XZ=             -6.4519   YZ=              0.2268
 Octapole moment (field-independent basis, Debye-Ang**2):
  XXX=             41.8767  YYY=              6.7689  ZZZ=              4.1862  XYY=             -9.6067
  XXY=             18.5416  XXZ=              2.9878  XZZ=              1.1631  YZZ=              0.3570
  YYZ=             -7.5166  XYZ=             -3.3930
 Hexadecapole moment (field-independent basis, Debye-Ang**3):
 XXXX=          -1082.5734 YYYY=           -402.7608 ZZZZ=           -157.2825 XXXY=             74.2598
 XXXZ=            -59.2973 YYYX=             47.4277 YYYZ=             -1.3893 ZZZX=             -0.3019
 ZZZY=             -4.2772 XXYY=           -178.6184 XXZZ=           -196.2627 YYZZ=            -91.4047
 XXYZ=            -20.7395 YYXZ=            -14.2720 ZZXY=              2.1268
 N-N= 3.507158774652D+02 E-N=-1.685296883584D+03  KE= 4.187552829524D+02
  Exact polarizability:  97.502  13.493  80.383   1.833  -3.436  54.344
 Approx polarizability:  98.376  15.313  99.321   0.542 -10.560  63.699
                          Isotropic Fermi Contact Couplings
        Atom                 a.u.       MegaHertz       Gauss      10(-4) cm-1
     1  C(13)              0.00239       2.68980       0.95979       0.89722
     2  H(1)              -0.00008      -0.35759      -0.12760      -0.11928
     3  C(13)             -0.00036      -0.40677      -0.14515      -0.13568
     4  C(13)              0.02303      25.89559       9.24019       8.63784
     5  O(17)              0.00021      -0.12597      -0.04495      -0.04202
     6  O(17)              0.03035     -18.40083      -6.56588      -6.13786
     7  C(13)              0.21181     238.11398      84.96499      79.42628
     8  C(13)             -0.00454      -5.10682      -1.82224      -1.70345
     9  H(1)              -0.00105      -4.67152      -1.66692      -1.55825
    10  H(1)              -0.02882    -128.81172     -45.96322     -42.96696
    11  H(1)               0.00318      14.20017       5.06697       4.73667
    12  H(1)               0.01483      66.28012      23.65039      22.10867
    13  H(1)               0.00079       3.51911       1.25571       1.17385
    14  O(17)              0.09508     -57.63785     -20.56662     -19.22592
    15  H(1)              -0.00859     -38.39678     -13.70093     -12.80779
 --------------------------------------------------------
       Center         ----  Spin Dipole Couplings  ----
                      3XX-RR        3YY-RR        3ZZ-RR
 --------------------------------------------------------
     1   Atom        0.008909     -0.005425     -0.003484
     2   Atom        0.001733     -0.000510     -0.001222
     3   Atom        0.005297     -0.001187     -0.004110
     4   Atom        0.017370     -0.004341     -0.013030
     5   Atom        0.000345     -0.009472      0.009126
     6   Atom        0.054345     -0.047105     -0.007240
     7   Atom        0.464122     -0.195581     -0.268541
     8   Atom       -0.007901      0.002355      0.005545
     9   Atom       -0.002034     -0.023481      0.025515
    10   Atom        0.155385     -0.043836     -0.111549
    11   Atom       -0.005050     -0.006193      0.011243
    12   Atom        0.001379     -0.001597      0.000218
    13   Atom       -0.004443      0.008924     -0.004482
    14   Atom        1.375739     -0.340877     -1.034862
    15   Atom       -0.011571      0.074085     -0.062514
 --------------------------------------------------------
                        XY            XZ            YZ
 --------------------------------------------------------
     1   Atom       -0.000627      0.003805     -0.000865
     2   Atom        0.001353     -0.000552     -0.000485
     3   Atom        0.000314     -0.001338     -0.001534
     4   Atom       -0.014849     -0.002785      0.001409
     5   Atom       -0.014307     -0.025210      0.006547
     6   Atom        0.055985      0.046498      0.044929
     7   Atom        0.326412      0.207334      0.086005
     8   Atom        0.014094      0.013649      0.023221
     9   Atom        0.021438     -0.018649     -0.022704
    10   Atom        0.145972      0.062776      0.028292
    11   Atom        0.000648     -0.002182      0.005139
    12   Atom        0.003639      0.003886      0.006381
    13   Atom       -0.002673     -0.000749      0.007423
    14   Atom        1.410063      0.437072      0.254148
    15   Atom       -0.037785      0.028366     -0.043623
 --------------------------------------------------------


 ---------------------------------------------------------------------------------
              Anisotropic Spin Dipole Couplings in Principal Axis System
 ---------------------------------------------------------------------------------

       Atom             a.u.   MegaHertz   Gauss  10(-4) cm-1        Axes

              Baa    -0.0058    -0.781    -0.279    -0.260 -0.0813  0.8839  0.4605
     1 C(13)  Bbb    -0.0042    -0.565    -0.202    -0.189 -0.2671 -0.4644  0.8444
              Bcc     0.0100     1.346     0.480     0.449  0.9602 -0.0543  0.2739
 
              Baa    -0.0015    -0.788    -0.281    -0.263 -0.0806  0.5346  0.8412
     2 H(1)   Bbb    -0.0010    -0.547    -0.195    -0.183 -0.4594  0.7291 -0.5074
              Bcc     0.0025     1.336     0.477     0.445  0.8846  0.4274 -0.1868
 
              Baa    -0.0049    -0.656    -0.234    -0.219  0.1096  0.3725  0.9215
     3 C(13)  Bbb    -0.0006    -0.085    -0.030    -0.028 -0.1298  0.9245 -0.3583
              Bcc     0.0055     0.741     0.265     0.247  0.9855  0.0803 -0.1496
 
              Baa    -0.0133    -1.783    -0.636    -0.595  0.0740 -0.0341  0.9967
     4 C(13)  Bbb    -0.0119    -1.594    -0.569    -0.532  0.4524  0.8918 -0.0031
              Bcc     0.0252     3.377     1.205     1.126  0.8887 -0.4512 -0.0815
 
              Baa    -0.0248     1.792     0.639     0.598  0.7393  0.4975  0.4539
     5 O(17)  Bbb    -0.0102     0.738     0.263     0.246 -0.2092  0.8103 -0.5474
              Bcc     0.0350    -2.530    -0.903    -0.844 -0.6401  0.3097  0.7031
 
              Baa    -0.0815     5.901     2.105     1.968 -0.2322  0.8898 -0.3927
     6 O(17)  Bbb    -0.0295     2.136     0.762     0.712 -0.5741  0.2006  0.7939
              Bcc     0.1111    -8.036    -2.867    -2.681  0.7852  0.4098  0.4643
 
              Baa    -0.3299   -44.263   -15.794   -14.765 -0.3560  0.9292 -0.0995
     7 C(13)  Bbb    -0.3231   -43.363   -15.473   -14.464 -0.2567  0.0052  0.9665
              Bcc     0.6530    87.626    31.267    29.229  0.8985  0.3696  0.2367
 
              Baa    -0.0196    -2.631    -0.939    -0.877 -0.2694  0.7760 -0.5703
     8 C(13)  Bbb    -0.0164    -2.198    -0.784    -0.733  0.8724 -0.0542 -0.4858
              Bcc     0.0360     4.828     1.723     1.610  0.4079  0.6284  0.6624
 
              Baa    -0.0386   -20.590    -7.347    -6.868 -0.4222  0.8861  0.1910
     9 H(1)   Bbb    -0.0092    -4.883    -1.742    -1.629  0.7774  0.2456  0.5791
              Bcc     0.0477    25.473     9.089     8.497 -0.4662 -0.3930  0.7926
 
              Baa    -0.1275   -68.027   -24.274   -22.691 -0.3926  0.4060  0.8253
    10 H(1)   Bbb    -0.1182   -63.076   -22.507   -21.040 -0.3002  0.7916 -0.5322
              Bcc     0.2457   131.102    46.781    43.731  0.8693  0.4567  0.1889
 
              Baa    -0.0081    -4.320    -1.542    -1.441 -0.3858  0.8799 -0.2774
    11 H(1)   Bbb    -0.0048    -2.539    -0.906    -0.847  0.9162  0.4006 -0.0037
              Bcc     0.0129     6.859     2.447     2.288 -0.1079  0.2556  0.9608
 
              Baa    -0.0071    -3.810    -1.360    -1.271 -0.0318  0.7634 -0.6451
    12 H(1)   Bbb    -0.0022    -1.163    -0.415    -0.388  0.8301 -0.3393 -0.4424
              Bcc     0.0093     4.973     1.775     1.659  0.5567  0.5496  0.6229
 
              Baa    -0.0078    -4.180    -1.491    -1.394 -0.1320 -0.4190  0.8984
    13 H(1)   Bbb    -0.0048    -2.577    -0.920    -0.860  0.9785  0.0900  0.1857
              Bcc     0.0127     6.757     2.411     2.254 -0.1586  0.9035  0.3981
 
              Baa    -1.1357    82.176    29.323    27.411 -0.4263  0.8528 -0.3016
    14 O(17)  Bbb    -1.1104    80.348    28.670    26.801 -0.2760  0.1949  0.9412
              Bcc     2.2461  -162.524   -57.993   -54.212  0.8614  0.4845  0.1523
 
              Baa    -0.0801   -42.750   -15.254   -14.260 -0.2801  0.1971  0.9395
    15 H(1)   Bbb    -0.0239   -12.729    -4.542    -4.246  0.8893  0.4218  0.1766
              Bcc     0.1040    55.479    19.796    18.506 -0.3614  0.8850 -0.2935
 

 ---------------------------------------------------------------------------------

 Calling FoFJK, ICntrl=    100127 FMM=F ISym2X=0 I1Cent= 0 IOpClX= 1 NMat=1 NMatS=1 NMatT=0.
 Full mass-weighted force constant matrix:
 Low frequencies ----1802.6865   -0.0006    0.0005    0.0009    9.9653   18.5993
 Low frequencies ---   25.6834   65.1143   73.5196
 ******    1 imaginary frequencies (negative Signs) ****** 
 Diagonal vibrational polarizability:
       42.5346830      23.8886085      57.3137043
 Harmonic frequencies (cm**-1), IR intensities (KM/Mole), Raman scattering
 activities (A**4/AMU), depolarization ratios for plane and unpolarized
 incident light, reduced masses (AMU), force constants (mDyne/A),
 and normal coordinates:
                      1                      2                      3
                      A                      A                      A
 Frequencies --  -1802.6865                62.2300                71.7516
 Red. masses --      1.0757                 4.9382                 5.6772
 Frc consts  --      2.0596                 0.0113                 0.0172
 IR Inten    --   1189.0422                 0.3039                 1.8906
  Atom  AN      X      Y      Z        X      Y      Z        X      Y      Z
     1   6     0.00   0.00  -0.00     0.02  -0.11  -0.24    -0.05  -0.01  -0.17
     2   1    -0.00  -0.00   0.00     0.03  -0.16  -0.35    -0.07  -0.03  -0.28
     3   6     0.00   0.00  -0.00     0.01  -0.05  -0.12    -0.02   0.01  -0.06
     4   6    -0.01   0.00   0.00     0.01   0.01   0.02     0.01   0.03   0.05
     5   8     0.00  -0.00   0.00    -0.00  -0.01  -0.02     0.06   0.14   0.31
     6   8     0.01  -0.01   0.00     0.03   0.09   0.22    -0.01  -0.10  -0.24
     7   6    -0.05  -0.01  -0.02     0.02   0.06   0.16    -0.00  -0.02  -0.01
     8   6     0.01   0.00   0.00    -0.22  -0.01   0.18     0.08  -0.23   0.18
     9   1     0.09   0.04   0.06     0.15   0.13   0.26    -0.04   0.13   0.04
    10   1     0.84   0.50   0.14     0.11   0.02  -0.08    -0.04   0.08  -0.03
    11   1    -0.00   0.00  -0.01    -0.32  -0.07   0.08     0.11  -0.37   0.11
    12   1    -0.01   0.01   0.01    -0.28   0.02   0.34     0.10  -0.31   0.20
    13   1    -0.00  -0.00   0.00    -0.21  -0.02   0.13     0.08  -0.15   0.38
    14   8    -0.04  -0.03  -0.01     0.13   0.00  -0.21    -0.07   0.15  -0.07
    15   1     0.05  -0.00   0.01     0.10   0.01  -0.16    -0.10   0.09  -0.21
                      4                      5                      6
                      A                      A                      A
 Frequencies --    128.3905               142.8329               185.9967
 Red. masses --      4.4652                 4.5105                 2.0768
 Frc consts  --      0.0434                 0.0542                 0.0423
 IR Inten    --      1.4402                 6.2456                 1.2430
  Atom  AN      X      Y      Z        X      Y      Z        X      Y      Z
     1   6     0.34  -0.16   0.04    -0.10   0.00  -0.02     0.10  -0.06   0.01
     2   1     0.56  -0.31   0.09    -0.13   0.02  -0.03     0.21  -0.14   0.02
     3   6     0.07   0.03  -0.02    -0.06  -0.02   0.00    -0.05   0.05  -0.01
     4   6    -0.03   0.08  -0.05    -0.10   0.01  -0.01    -0.03   0.04   0.01
     5   8    -0.07   0.08   0.00    -0.17  -0.01   0.04     0.04   0.06  -0.03
     6   8    -0.03   0.07  -0.15    -0.09   0.06  -0.11    -0.03  -0.02   0.07
     7   6    -0.07   0.08  -0.05    -0.01   0.14   0.02    -0.08  -0.04   0.07
     8   6    -0.18  -0.05   0.05     0.20   0.07   0.11     0.13   0.04   0.03
     9   1    -0.08   0.19  -0.00    -0.05   0.16   0.01    -0.18  -0.10  -0.01
    10   1    -0.06  -0.00  -0.03    -0.02   0.10   0.05    -0.11  -0.06   0.13
    11   1    -0.13  -0.20  -0.01     0.20   0.08   0.11     0.54   0.01   0.27
    12   1    -0.22   0.02   0.09     0.27  -0.10   0.06     0.19   0.28  -0.37
    13   1    -0.27  -0.09   0.14     0.31   0.19   0.22    -0.16  -0.10   0.16
    14   8    -0.01  -0.12   0.15     0.24  -0.22  -0.02    -0.09  -0.05  -0.11
    15   1     0.13  -0.06   0.12     0.56  -0.12  -0.16    -0.10  -0.11  -0.28
                      7                      8                      9
                      A                      A                      A
 Frequencies --    204.5884               232.9225               257.0269
 Red. masses --      1.2835                 1.1539                 4.4975
 Frc consts  --      0.0317                 0.0369                 0.1751
 IR Inten    --      1.7524                99.7696                 1.3066
  Atom  AN      X      Y      Z        X      Y      Z        X      Y      Z
     1   6     0.06  -0.03   0.01     0.01  -0.00   0.02    -0.00  -0.07  -0.21
     2   1     0.13  -0.08   0.03     0.04  -0.00   0.08    -0.03  -0.25  -0.70
     3   6    -0.04   0.04  -0.02    -0.03   0.00  -0.04     0.02   0.16   0.43
     4   6    -0.02   0.03  -0.00    -0.02   0.00  -0.02     0.00   0.06   0.14
     5   8     0.04   0.05  -0.02     0.00   0.02   0.00    -0.01  -0.04  -0.14
     6   8    -0.03  -0.03   0.03    -0.01  -0.00   0.01    -0.01  -0.02  -0.06
     7   6    -0.03  -0.03   0.02    -0.01  -0.00   0.01    -0.00  -0.01  -0.03
     8   6     0.04   0.00   0.00     0.03  -0.01   0.02     0.02  -0.02  -0.01
     9   1    -0.03  -0.06   0.00    -0.00   0.00   0.01    -0.01  -0.00  -0.03
    10   1    -0.05  -0.02   0.03     0.01  -0.01  -0.06    -0.00  -0.01  -0.04
    11   1    -0.41   0.23  -0.15     0.03  -0.00   0.03    -0.00  -0.02  -0.02
    12   1     0.10  -0.45   0.29     0.05  -0.05   0.01     0.02  -0.06   0.01
    13   1     0.53   0.27  -0.15     0.06   0.01   0.04     0.05   0.00   0.00
    14   8    -0.04  -0.02  -0.02     0.02  -0.02  -0.06     0.00  -0.01  -0.02
    15   1    -0.01  -0.05  -0.15    -0.26   0.19   0.93    -0.10   0.07   0.34
                     10                     11                     12
                      A                      A                      A
 Frequencies --    304.4215               411.4574               531.7130
 Red. masses --      4.9513                 3.3794                 6.2958
 Frc consts  --      0.2703                 0.3371                 1.0487
 IR Inten    --      2.4930                11.3710                 1.3266
  Atom  AN      X      Y      Z        X      Y      Z        X      Y      Z
     1   6     0.00   0.11  -0.04    -0.02  -0.04   0.01    -0.16  -0.21   0.09
     2   1    -0.21   0.26  -0.08    -0.05  -0.03  -0.01    -0.13  -0.24   0.09
     3   6     0.29  -0.10   0.02     0.00  -0.05   0.03    -0.17  -0.17   0.07
     4   6     0.13  -0.00  -0.00     0.04  -0.07  -0.03    -0.01  -0.08   0.04
     5   8    -0.12  -0.11   0.05     0.13  -0.02   0.02     0.32   0.03  -0.04
     6   8     0.13   0.16  -0.04    -0.00  -0.12  -0.20     0.02   0.18  -0.01
     7   6    -0.09   0.05   0.03    -0.04   0.02   0.18     0.06   0.27  -0.17
     8   6     0.03   0.04   0.07    -0.09   0.23   0.06     0.01   0.04   0.04
     9   1    -0.29   0.11  -0.05    -0.18   0.11   0.16     0.16   0.28  -0.12
    10   1    -0.16  -0.18   0.14    -0.04   0.03   0.18    -0.09  -0.01  -0.16
    11   1    -0.09   0.12   0.04    -0.20   0.55   0.17     0.06  -0.32  -0.14
    12   1     0.11  -0.22   0.11    -0.14   0.41   0.05     0.01  -0.08   0.16
    13   1     0.25   0.19   0.10    -0.07   0.12  -0.33    -0.03   0.13   0.40
    14   8    -0.24  -0.14  -0.09     0.01  -0.01  -0.03    -0.14  -0.09  -0.01
    15   1    -0.40  -0.17   0.04    -0.02   0.02   0.08    -0.07  -0.06  -0.02
                     13                     14                     15
                      A                      A                      A
 Frequencies --    597.6891               662.9999               738.5300
 Red. masses --      4.3247                 3.8703                 1.3164
 Frc consts  --      0.9102                 1.0024                 0.4230
 IR Inten    --     16.9209                 5.4694                37.6738
  Atom  AN      X      Y      Z        X      Y      Z        X      Y      Z
     1   6     0.03   0.03  -0.01     0.02   0.04  -0.01    -0.12   0.09  -0.03
     2   1     0.30  -0.17   0.04    -0.21   0.20  -0.06     0.80  -0.55   0.18
     3   6    -0.25   0.22  -0.05     0.21  -0.11   0.02     0.06  -0.04   0.01
     4   6     0.05  -0.04  -0.00    -0.13   0.06  -0.03    -0.01  -0.00  -0.00
     5   8    -0.13  -0.10   0.05    -0.01   0.14  -0.04     0.01   0.00   0.00
     6   8     0.12  -0.01  -0.05    -0.17  -0.13   0.03    -0.01  -0.01   0.00
     7   6     0.30   0.04   0.04     0.24   0.04   0.02    -0.00   0.00  -0.00
     8   6     0.04   0.04   0.04     0.04   0.03   0.03    -0.00   0.00   0.00
     9   1     0.37   0.10   0.10     0.66   0.02   0.22     0.02   0.01   0.01
    10   1     0.14  -0.19  -0.01     0.01  -0.04  -0.24    -0.01   0.00  -0.02
    11   1    -0.09  -0.01  -0.07    -0.03  -0.05  -0.06     0.00   0.01   0.01
    12   1    -0.12   0.27   0.26    -0.08   0.23   0.18     0.01  -0.00  -0.01
    13   1    -0.08  -0.09  -0.14    -0.08  -0.08  -0.07     0.00   0.00   0.00
    14   8    -0.12  -0.08  -0.01    -0.11  -0.08  -0.00    -0.00  -0.00   0.00
    15   1    -0.37  -0.22  -0.07    -0.11  -0.09  -0.03     0.01   0.01   0.00
                     16                     17                     18
                      A                      A                      A
 Frequencies --    753.8344               758.4687               778.0093
 Red. masses --      3.4590                11.5478                 1.2847
 Frc consts  --      1.1581                 3.9140                 0.4582
 IR Inten    --     27.4897                23.7148                38.3903
  Atom  AN      X      Y      Z        X      Y      Z        X      Y      Z
     1   6    -0.12  -0.13   0.06     0.05   0.09   0.04    -0.00  -0.05  -0.14
     2   1    -0.10  -0.17   0.05     0.10   0.03  -0.01     0.03   0.35   0.92
     3   6    -0.03  -0.16   0.01    -0.00  -0.06  -0.36     0.00   0.02   0.05
     4   6    -0.03   0.18   0.04     0.07   0.21   0.80     0.00   0.01   0.03
     5   8    -0.08   0.15  -0.08     0.02  -0.14  -0.20    -0.00  -0.00  -0.01
     6   8     0.12   0.09  -0.07    -0.08  -0.10  -0.13    -0.00  -0.00  -0.00
     7   6     0.07  -0.11   0.09    -0.01   0.06  -0.04     0.00   0.00  -0.00
     8   6     0.03  -0.07  -0.02    -0.01   0.02   0.00     0.00   0.00   0.00
     9   1    -0.21  -0.05  -0.02     0.00   0.03  -0.05    -0.01  -0.00  -0.01
    10   1     0.24  -0.21   0.31    -0.09   0.06  -0.08     0.00  -0.00   0.01
    11   1    -0.08   0.09   0.01     0.00  -0.06  -0.04    -0.00  -0.00  -0.00
    12   1    -0.05   0.09   0.02    -0.01   0.02   0.04    -0.00   0.00   0.01
    13   1     0.01  -0.18  -0.31    -0.02   0.05   0.10    -0.00  -0.00   0.00
    14   8     0.07   0.02   0.01    -0.02  -0.01  -0.01     0.00   0.00  -0.00
    15   1    -0.53  -0.28  -0.08     0.13   0.07   0.05    -0.01  -0.00   0.00
                     19                     20                     21
                      A                      A                      A
 Frequencies --    830.5829               851.8516               966.2977
 Red. masses --      1.1221                 1.2921                 2.4720
 Frc consts  --      0.4561                 0.5524                 1.3599
 IR Inten    --     27.3280               170.8575                22.8596
  Atom  AN      X      Y      Z        X      Y      Z        X      Y      Z
     1   6     0.01   0.02  -0.01    -0.02  -0.03   0.01    -0.04  -0.05   0.02
     2   1     0.02   0.01  -0.02    -0.02  -0.04   0.02    -0.04  -0.06   0.03
     3   6     0.02   0.01  -0.00    -0.02  -0.02   0.01    -0.02  -0.03   0.01
     4   6    -0.02  -0.02  -0.01     0.03   0.04  -0.01     0.08   0.09  -0.03
     5   8     0.01  -0.00   0.00    -0.02   0.02  -0.01    -0.08   0.05  -0.02
     6   8    -0.03  -0.03   0.02     0.04   0.02  -0.00     0.11  -0.12   0.01
     7   6     0.03   0.02  -0.02     0.04  -0.04   0.04    -0.01  -0.09  -0.10
     8   6     0.04   0.04   0.00     0.04  -0.03  -0.01    -0.06   0.18   0.07
     9   1    -0.39  -0.28  -0.36    -0.09  -0.08  -0.04     0.15  -0.30  -0.12
    10   1    -0.01   0.06   0.46    -0.24   0.28   0.06     0.00  -0.07  -0.29
    11   1    -0.10  -0.28  -0.27    -0.08  -0.01  -0.06     0.13  -0.13   0.01
    12   1    -0.14   0.14   0.39    -0.07   0.13   0.13     0.04  -0.15   0.11
    13   1    -0.16  -0.04   0.12    -0.05  -0.15  -0.19    -0.04   0.39   0.64
    14   8     0.02   0.00  -0.01    -0.08  -0.02  -0.03    -0.01   0.01   0.00
    15   1    -0.13  -0.06   0.01     0.73   0.40   0.15     0.15   0.08   0.01
                     22                     23                     24
                      A                      A                      A
 Frequencies --   1104.6555              1137.1404              1148.9473
 Red. masses --      1.8440                 2.4585                 2.3747
 Frc consts  --      1.3258                 1.8731                 1.8470
 IR Inten    --     63.5643                52.3629                70.4365
  Atom  AN      X      Y      Z        X      Y      Z        X      Y      Z
     1   6    -0.01  -0.01   0.00     0.02   0.03  -0.01     0.01   0.01  -0.00
     2   1    -0.01  -0.01   0.00     0.02   0.04  -0.02     0.02   0.01  -0.00
     3   6    -0.00  -0.00   0.00     0.01   0.01  -0.00    -0.00   0.01  -0.00
     4   6     0.03   0.02  -0.01    -0.09  -0.06   0.03    -0.01  -0.03   0.01
     5   8    -0.02   0.01  -0.00     0.04  -0.01  -0.00     0.04  -0.02   0.01
     6   8     0.01  -0.06  -0.00    -0.06   0.12  -0.04    -0.07   0.14  -0.08
     7   6     0.08   0.11   0.14     0.18  -0.16  -0.07    -0.01  -0.15   0.19
     8   6    -0.10  -0.02  -0.15    -0.13   0.02   0.09     0.04   0.08  -0.10
     9   1    -0.00   0.12   0.13    -0.02  -0.35  -0.25     0.13  -0.28   0.20
    10   1    -0.06   0.11   0.54     0.03   0.08   0.43     0.17  -0.08  -0.46
    11   1     0.23  -0.26  -0.10     0.13   0.29   0.41     0.08  -0.40  -0.34
    12   1     0.13  -0.46  -0.33     0.08  -0.17  -0.29    -0.01  -0.15   0.26
    13   1     0.08   0.22   0.25     0.17   0.22   0.14    -0.17   0.06   0.30
    14   8    -0.01  -0.01  -0.01    -0.01  -0.00  -0.01    -0.00   0.00   0.01
    15   1     0.05   0.04   0.04     0.11   0.07   0.04     0.01  -0.00  -0.02
                     25                     26                     27
                      A                      A                      A
 Frequencies --   1226.5100              1246.5066              1369.5761
 Red. masses --      1.2806                 6.1762                 1.2039
 Frc consts  --      1.1350                 5.6540                 1.3305
 IR Inten    --     20.9798               645.0580                 7.9885
  Atom  AN      X      Y      Z        X      Y      Z        X      Y      Z
     1   6    -0.01  -0.01   0.00    -0.06  -0.08   0.03     0.01   0.01  -0.00
     2   1    -0.00  -0.02   0.01    -0.03  -0.12   0.04     0.00   0.01  -0.00
     3   6    -0.01   0.00  -0.00    -0.03  -0.01   0.01     0.00  -0.00  -0.00
     4   6     0.07   0.02  -0.01     0.50   0.15  -0.10    -0.03  -0.02   0.01
     5   8     0.00  -0.01   0.00    -0.03  -0.04   0.02     0.00   0.01  -0.00
     6   8    -0.03   0.03  -0.01    -0.34   0.03   0.03    -0.00  -0.01   0.02
     7   6    -0.07  -0.07  -0.06     0.11  -0.01  -0.00     0.04  -0.09  -0.04
     8   6     0.03   0.02  -0.00    -0.03  -0.04   0.02     0.01   0.01  -0.07
     9   1     0.59   0.08   0.34    -0.47   0.08  -0.26    -0.33   0.74   0.16
    10   1    -0.34   0.20   0.54     0.28   0.04  -0.25     0.03  -0.08   0.04
    11   1    -0.05  -0.01  -0.07     0.07   0.15   0.19     0.11   0.17   0.10
    12   1    -0.03   0.07   0.12    -0.02   0.05  -0.08    -0.14   0.07   0.32
    13   1    -0.08  -0.03   0.05     0.13   0.03  -0.07    -0.03   0.11   0.30
    14   8     0.02  -0.00  -0.01     0.00  -0.01   0.01    -0.00   0.00  -0.00
    15   1    -0.13  -0.06   0.01    -0.13  -0.08  -0.04     0.06   0.03   0.01
                     28                     29                     30
                      A                      A                      A
 Frequencies --   1412.3108              1479.8932              1480.9324
 Red. masses --      1.3208                 1.0436                 1.0439
 Frc consts  --      1.5523                 1.3466                 1.3488
 IR Inten    --     35.4681                 3.4858                 1.8114
  Atom  AN      X      Y      Z        X      Y      Z        X      Y      Z
     1   6    -0.00  -0.00   0.00     0.00   0.00  -0.00    -0.00  -0.00   0.00
     2   1    -0.00  -0.00   0.00    -0.00   0.00  -0.00     0.00  -0.00  -0.00
     3   6    -0.00   0.00  -0.00     0.00  -0.00   0.00    -0.00   0.00  -0.00
     4   6     0.00   0.00  -0.00    -0.01  -0.00   0.00    -0.00   0.00  -0.00
     5   8     0.00  -0.00   0.00     0.00  -0.00  -0.00     0.00  -0.00   0.00
     6   8     0.01   0.00  -0.01     0.00   0.00  -0.00     0.01  -0.00   0.00
     7   6    -0.02   0.06   0.04    -0.01  -0.03   0.00    -0.02   0.02  -0.01
     8   6     0.00  -0.11  -0.10    -0.04  -0.01   0.02    -0.04   0.03  -0.02
     9   1     0.16  -0.40  -0.07    -0.01   0.07   0.05     0.04  -0.08  -0.03
    10   1    -0.02   0.08  -0.05    -0.03   0.02  -0.02    -0.05   0.09  -0.04
    11   1     0.05   0.44   0.26     0.20  -0.45  -0.10     0.58  -0.06   0.32
    12   1    -0.26   0.34   0.27    -0.16   0.47  -0.06    -0.09  -0.31   0.49
    13   1     0.15   0.18   0.44     0.59   0.33  -0.17     0.02  -0.09  -0.41
    14   8     0.00  -0.00   0.00     0.00   0.00   0.00     0.00  -0.00   0.00
    15   1    -0.05  -0.03  -0.01    -0.01  -0.00   0.00    -0.04  -0.03  -0.01
                     31                     32                     33
                      A                      A                      A
 Frequencies --   1549.5761              1876.7926              2254.4893
 Red. masses --      1.0556                12.9957                 5.7228
 Frc consts  --      1.4934                26.9701                17.1377
 IR Inten    --     36.2169               481.9887                67.3548
  Atom  AN      X      Y      Z        X      Y      Z        X      Y      Z
     1   6     0.00   0.00  -0.00    -0.03  -0.04   0.02    -0.22  -0.29   0.11
     2   1     0.00   0.00  -0.00    -0.07  -0.05   0.02    -0.45  -0.57   0.23
     3   6     0.00  -0.00   0.00     0.03   0.02  -0.01     0.31   0.40  -0.16
     4   6    -0.01  -0.00   0.00    -0.32   0.72  -0.23    -0.04  -0.07   0.03
     5   8    -0.00   0.00  -0.00     0.22  -0.48   0.15    -0.00   0.00  -0.00
     6   8     0.02  -0.00   0.01     0.01  -0.02   0.01    -0.00   0.00   0.00
     7   6     0.04  -0.02   0.02     0.04  -0.02   0.00    -0.00  -0.00   0.00
     8   6    -0.01   0.00   0.00    -0.00   0.01   0.00    -0.00   0.00  -0.00
     9   1    -0.17   0.06  -0.05    -0.05   0.07   0.00    -0.01   0.00   0.00
    10   1    -0.35   0.78  -0.30    -0.02  -0.03  -0.01    -0.00  -0.00  -0.00
    11   1    -0.05   0.01  -0.03    -0.01  -0.01  -0.01    -0.00  -0.00  -0.00
    12   1     0.03  -0.03  -0.09     0.01  -0.01  -0.02     0.00   0.00   0.00
    13   1    -0.03   0.01   0.04    -0.01   0.01   0.03     0.00   0.00   0.00
    14   8     0.02  -0.02   0.01    -0.00   0.00  -0.00    -0.00   0.00  -0.00
    15   1    -0.30  -0.17  -0.05     0.04   0.02   0.01     0.00   0.00   0.00
                     34                     35                     36
                      A                      A                      A
 Frequencies --   3055.3065              3127.4097              3136.0379
 Red. masses --      1.0401                 1.0869                 1.0943
 Frc consts  --      5.7203                 6.2631                 6.3409
 IR Inten    --      1.9871                 7.0185                 3.9813
  Atom  AN      X      Y      Z        X      Y      Z        X      Y      Z
     1   6    -0.00   0.00   0.00     0.00  -0.00   0.00    -0.00   0.00  -0.00
     2   1     0.00   0.00  -0.00     0.00   0.00  -0.00    -0.00  -0.00   0.00
     3   6    -0.00   0.00   0.00    -0.00  -0.00   0.00    -0.00   0.00   0.00
     4   6    -0.00  -0.00  -0.00     0.00   0.00   0.00    -0.00  -0.00  -0.00
     5   8     0.00  -0.00   0.00    -0.00   0.00  -0.00     0.00  -0.00   0.00
     6   8     0.00   0.00  -0.00    -0.00   0.00   0.00     0.00  -0.00  -0.00
     7   6    -0.00   0.00  -0.00     0.03   0.03  -0.07    -0.01  -0.01   0.02
     8   6    -0.02  -0.03  -0.04    -0.03  -0.01   0.02    -0.08   0.01   0.00
     9   1    -0.00  -0.01   0.01    -0.38  -0.34   0.76     0.14   0.13  -0.29
    10   1     0.01   0.00   0.00     0.01   0.00  -0.01     0.00   0.00   0.00
    11   1    -0.21  -0.19   0.32     0.15   0.15  -0.25     0.22   0.22  -0.37
    12   1     0.73   0.24   0.24     0.18   0.06   0.07     0.49   0.17   0.17
    13   1    -0.22   0.33  -0.12     0.04  -0.07   0.02     0.30  -0.48   0.17
    14   8    -0.00  -0.00  -0.00    -0.00  -0.00   0.00     0.00  -0.00  -0.00
    15   1     0.00  -0.00   0.00    -0.00  -0.00  -0.00     0.00   0.00   0.00
                     37                     38                     39
                      A                      A                      A
 Frequencies --   3165.6543              3485.5379              3819.2137
 Red. masses --      1.1029                 1.1706                 1.0666
 Frc consts  --      6.5120                 8.3792                 9.1663
 IR Inten    --      4.9930                66.4711                60.0929
  Atom  AN      X      Y      Z        X      Y      Z        X      Y      Z
     1   6    -0.00   0.00  -0.00    -0.07  -0.09   0.04     0.00   0.00   0.00
     2   1     0.00  -0.00  -0.00     0.58   0.74  -0.30    -0.00  -0.00   0.00
     3   6     0.00   0.00   0.00     0.02   0.03  -0.01     0.00   0.00  -0.00
     4   6    -0.00   0.00   0.00    -0.00  -0.00   0.00    -0.00   0.00   0.00
     5   8     0.00  -0.00   0.00     0.00  -0.00   0.00     0.00  -0.00   0.00
     6   8     0.00   0.00  -0.00     0.00  -0.00   0.00     0.00  -0.00   0.00
     7   6    -0.01  -0.01   0.01    -0.00   0.00   0.00    -0.00   0.00  -0.00
     8   6     0.00  -0.07   0.06    -0.00  -0.00  -0.00     0.00   0.00   0.00
     9   1     0.08   0.07  -0.16    -0.00   0.00  -0.00     0.00  -0.00   0.00
    10   1    -0.00  -0.00   0.00     0.00   0.00  -0.00     0.02   0.00   0.01
    11   1     0.33   0.30  -0.52     0.00   0.00  -0.00    -0.00  -0.00   0.00
    12   1     0.01  -0.01   0.02     0.00   0.00   0.00    -0.00   0.00   0.00
    13   1    -0.37   0.55  -0.19     0.00  -0.00   0.00    -0.00   0.00  -0.00
    14   8     0.00   0.00  -0.00     0.00  -0.00   0.00     0.02  -0.05   0.02
    15   1     0.00   0.00   0.00    -0.00   0.00  -0.00    -0.39   0.87  -0.30

 -------------------
 - Thermochemistry -
 -------------------
 Temperature   298.150 Kelvin.  Pressure   1.00000 Atm.
 Atom     1 has atomic number  6 and mass  12.00000
 Atom     2 has atomic number  1 and mass   1.00783
 Atom     3 has atomic number  6 and mass  12.00000
 Atom     4 has atomic number  6 and mass  12.00000
 Atom     5 has atomic number  8 and mass  15.99491
 Atom     6 has atomic number  8 and mass  15.99491
 Atom     7 has atomic number  6 and mass  12.00000
 Atom     8 has atomic number  6 and mass  12.00000
 Atom     9 has atomic number  1 and mass   1.00783
 Atom    10 has atomic number  1 and mass   1.00783
 Atom    11 has atomic number  1 and mass   1.00783
 Atom    12 has atomic number  1 and mass   1.00783
 Atom    13 has atomic number  1 and mass   1.00783
 Atom    14 has atomic number  8 and mass  15.99491
 Atom    15 has atomic number  1 and mass   1.00783
 Molecular mass:   115.03952 amu.
 Principal axes and moments of inertia in atomic units:
                           1         2         3
     Eigenvalues --   643.599531464.114851836.64814
           X            0.99981   0.01472  -0.01290
           Y           -0.01433   0.99944   0.03030
           Z            0.01333  -0.03011   0.99946
 This molecule is an asymmetric top.
 Rotational symmetry number  1.
 Warning -- assumption of classical behavior for rotation
           may cause significant error
 Rotational temperatures (Kelvin)      0.13458     0.05916     0.04716
 Rotational constants (GHZ):           2.80414     1.23265     0.98263
    1 imaginary frequencies ignored.
 Zero-point vibrational energy     278419.4 (Joules/Mol)
                                   66.54383 (Kcal/Mol)
 Warning -- explicit consideration of  12 degrees of freedom as
           vibrations may cause significant error
 Vibrational temperatures:     89.54   103.23   184.73   205.50   267.61
          (Kelvin)            294.36   335.12   369.80   437.99   592.00
                              765.02   859.94   953.91  1062.58  1084.60
                             1091.27  1119.38  1195.02  1225.62  1390.29
                             1589.35  1636.09  1653.08  1764.67  1793.44
                             1970.51  2032.00  2129.24  2130.73  2229.49
                             2700.29  3243.71  4395.90  4499.64  4512.06
                             4554.67  5014.91  5495.00
 
 Zero-point correction=                           0.106044 (Hartree/Particle)
 Thermal correction to Energy=                    0.115813
 Thermal correction to Enthalpy=                  0.116758
 Thermal correction to Gibbs Free Energy=         0.070179
 Sum of electronic and zero-point Energies=           -420.087850
 Sum of electronic and thermal Energies=              -420.078081
 Sum of electronic and thermal Enthalpies=            -420.077137
 Sum of electronic and thermal Free Energies=         -420.123715
 
                     E (Thermal)             CV                S
                      KCal/Mol        Cal/Mol-Kelvin    Cal/Mol-Kelvin
 Total                   72.674             33.279             98.032
 Electronic               0.000              0.000              1.377
 Translational            0.889              2.981             40.136
 Rotational               0.889              2.981             28.939
 Vibrational             70.897             27.318             27.581
 Vibration     1          0.597              1.972              4.385
 Vibration     2          0.598              1.967              4.105
 Vibration     3          0.611              1.925              2.970
 Vibration     4          0.616              1.910              2.766
 Vibration     5          0.632              1.859              2.267
 Vibration     6          0.640              1.833              2.091
 Vibration     7          0.654              1.791              1.856
 Vibration     8          0.667              1.751              1.682
 Vibration     9          0.695              1.665              1.392
 Vibration    10          0.775              1.445              0.921
 Vibration    11          0.887              1.180              0.583
 Vibration    12          0.956              1.037              0.454
                       Q            Log10(Q)             Ln(Q)
 Total Bot       0.524539D-32        -32.280222        -74.327959
 Total V=0       0.313867D+17         16.496745         37.985160
 Vib (Bot)       0.114834D-45        -45.939931       -105.780600
 Vib (Bot)    1  0.331750D+01          0.520811          1.199211
 Vib (Bot)    2  0.287370D+01          0.458442          1.055602
 Vib (Bot)    3  0.158849D+01          0.200984          0.462783
 Vib (Bot)    4  0.142249D+01          0.153050          0.352410
 Vib (Bot)    5  0.107759D+01          0.032455          0.074729
 Vib (Bot)    6  0.972889D+00         -0.011937         -0.027485
 Vib (Bot)    7  0.844508D+00         -0.073396         -0.169001
 Vib (Bot)    8  0.756785D+00         -0.121028         -0.278676
 Vib (Bot)    9  0.623151D+00         -0.205407         -0.472966
 Vib (Bot)   10  0.429519D+00         -0.367017         -0.845089
 Vib (Bot)   11  0.300300D+00         -0.522445         -1.202974
 Vib (Bot)   12  0.250422D+00         -0.601328         -1.384609
 Vib (V=0)       0.687127D+03          2.837037          6.532519
 Vib (V=0)    1  0.385497D+01          0.586021          1.349362
 Vib (V=0)    2  0.341688D+01          0.533630          1.228727
 Vib (V=0)    3  0.216532D+01          0.335522          0.772569
 Vib (V=0)    4  0.200781D+01          0.302722          0.697043
 Vib (V=0)    5  0.168794D+01          0.227357          0.523510
 Vib (V=0)    6  0.159385D+01          0.202448          0.466154
 Vib (V=0)    7  0.148142D+01          0.170680          0.393004
 Vib (V=0)    8  0.140704D+01          0.148307          0.341489
 Vib (V=0)    9  0.129895D+01          0.113592          0.261555
 Vib (V=0)   10  0.115916D+01          0.064142          0.147692
 Vib (V=0)   11  0.108325D+01          0.034729          0.079965
 Vib (V=0)   12  0.105921D+01          0.024980          0.057519
 Electronic      0.200000D+01          0.301030          0.693147
 Translational   0.484981D+08          7.685724         17.697035
 Rotational      0.470927D+06          5.672954         13.062459
 ***** Axes restored to original set *****
 -------------------------------------------------------------------
 Center     Atomic                   Forces (Hartrees/Bohr)
 Number     Number              X              Y              Z
 -------------------------------------------------------------------
      1        6          -0.000062130    0.000091881    0.000045046
      2        1           0.000047123    0.000064444   -0.000075363
      3        6          -0.000364833   -0.000235148   -0.000003493
      4        6           0.001642552   -0.000287635   -0.000762882
      5        8          -0.000443877    0.000012098    0.000077091
      6        8          -0.002678145    0.002817684   -0.000385123
      7        6           0.007933753   -0.000504878    0.004443549
      8        6          -0.003399309   -0.001606326   -0.001489278
      9        1          -0.002413414   -0.001042985   -0.001345516
     10        1          -0.015777320   -0.009788900   -0.002168169
     11        1           0.000081176    0.000060077    0.000123604
     12        1           0.000101771   -0.000354064   -0.000371325
     13        1           0.000018479   -0.000062209   -0.000059765
     14        8           0.016142463    0.010732239    0.002251506
     15        1          -0.000828290    0.000103720   -0.000279884
 -------------------------------------------------------------------
 Cartesian Forces:  Max     0.016142463 RMS     0.004367609

 GradGradGradGradGradGradGradGradGradGradGradGradGradGradGradGradGradGrad
 Berny optimization.
 Search for a local minimum.
 Step number   1 out of a maximum of    2
 All quantities printed in internal units (Hartrees-Bohrs-Radians)
 Second derivative matrix not updated -- analytic derivatives used.
 ITU=  0
     Eigenvalues ---   -0.19072   0.00064   0.00131   0.00157   0.00209
     Eigenvalues ---    0.00342   0.00496   0.00811   0.01548   0.02082
     Eigenvalues ---    0.02621   0.02972   0.04152   0.05672   0.06193
     Eigenvalues ---    0.07087   0.07970   0.08234   0.09004   0.09845
     Eigenvalues ---    0.10657   0.11626   0.14417   0.16840   0.20365
     Eigenvalues ---    0.24402   0.27184   0.33846   0.36384   0.53645
     Eigenvalues ---    0.64567   0.73935   0.77792   0.79496   0.82480
     Eigenvalues ---    0.90139   0.96282   1.80258   2.71125
 Eigenvalue     1 is  -1.91D-01 should be greater than     0.000000 Eigenvector:
                          X10       Y10       X14       X7        Y14
   1                    0.72445   0.45514  -0.35043  -0.22894  -0.18506
                          Z10       Z7        X8        X1        Z9
   1                    0.13182  -0.08475   0.06052   0.06000   0.05763
 Angle between quadratic step and forces=  54.86 degrees.
 Linear search not attempted -- first point.
 B after Tr=     0.010160    0.002452    0.001565
         Rot=    0.999999   -0.000490   -0.000341    0.000909 Ang=  -0.12 deg.
 Variable       Old X    -DE/DX   Delta X   Delta X   Delta X     New X
                                 (Linear)    (Quad)   (Total)
    X1        4.66513  -0.00006   0.00000  -0.03224  -0.01855   4.64658
    Y1        2.44666   0.00009   0.00000  -0.01050  -0.01518   2.43148
    Z1       -1.27067   0.00005   0.00000  -0.04794  -0.04715  -1.31783
    X2        5.85333   0.00005   0.00000  -0.03736  -0.02136   5.83197
    Y2        3.95485   0.00006   0.00000  -0.01042  -0.01664   3.93821
    Z2       -1.87658  -0.00008   0.00000  -0.06278  -0.06132  -1.93790
    X3        3.34055  -0.00036   0.00000  -0.01517  -0.00412   3.33643
    Y3        0.73983  -0.00024   0.00000  -0.01643  -0.01942   0.72041
    Z3       -0.58861  -0.00000   0.00000  -0.02889  -0.02889  -0.61750
    X4        1.86459   0.00164   0.00000   0.00587   0.01360   1.87819
    Y4       -1.42679  -0.00029   0.00000  -0.01683  -0.01806  -1.44485
    Z4        0.28319  -0.00076   0.00000   0.00167   0.00054   0.28374
    X5        2.81738  -0.00044   0.00000   0.00675   0.01135   2.82874
    Y5       -3.37128   0.00001   0.00000  -0.01557  -0.01912  -3.39040
    Z5        0.89712   0.00008   0.00000  -0.00629  -0.00997   0.88715
    X6       -0.66197  -0.00268   0.00000   0.00253   0.01095  -0.65102
    Y6       -1.11561   0.00282   0.00000   0.00025   0.00349  -1.11212
    Z6        0.36700  -0.00039   0.00000   0.05541   0.05634   0.42334
    X7       -1.81127   0.00793   0.00000   0.05965   0.07177  -1.73950
    Y7        1.19764  -0.00050   0.00000  -0.00774  -0.00181   1.19583
    Z7       -0.34993   0.00444   0.00000   0.04673   0.05066  -0.29928
    X8       -2.09046  -0.00340   0.00000  -0.06732  -0.05048  -2.14094
    Y8        3.00181  -0.00161   0.00000  -0.01562  -0.01106   2.99075
    Z8        1.82829  -0.00149   0.00000   0.00787   0.01383   1.84212
    X9       -0.95483  -0.00241   0.00000   0.02018   0.03252  -0.92231
    Y9        1.97898  -0.00104   0.00000  -0.02256  -0.01643   1.96256
    Z9       -2.05462  -0.00135   0.00000   0.02843   0.03255  -2.02207
   X10       -4.01090  -0.01578   0.00000  -0.02592  -0.01572  -4.02661
   Y10        0.44669  -0.00979   0.00000  -0.03815  -0.02735   0.41934
   Z10       -1.01815  -0.00217   0.00000  -0.01635  -0.01162  -1.02977
   X11       -3.06730   0.00008   0.00000  -0.07442  -0.05819  -3.12549
   Y11        2.08204   0.00006   0.00000  -0.01877  -0.01394   2.06810
   Z11        3.39269   0.00012   0.00000  -0.00140   0.00433   3.39701
   X12       -0.22604   0.00010   0.00000  -0.08299  -0.06449  -0.29053
   Y12        3.62401  -0.00035   0.00000   0.01885   0.01940   3.64340
   Z12        2.47591  -0.00037   0.00000   0.03478   0.04013   2.51603
   X13       -3.16969   0.00002   0.00000  -0.07609  -0.05669  -3.22639
   Y13        4.65832  -0.00006   0.00000  -0.03539  -0.02824   4.63008
   Z13        1.24622  -0.00006   0.00000  -0.02659  -0.01828   1.22794
   X14       -5.95248   0.01614   0.00000   0.12829   0.13615  -5.81633
   Y14       -0.88314   0.01073   0.00000   0.09671   0.11101  -0.77212
   Z14       -1.28128   0.00225   0.00000  -0.00875  -0.00398  -1.28526
   X15       -5.22980  -0.00083   0.00000   0.00802   0.01326  -5.21655
   Y15       -2.47387   0.00010   0.00000   0.04066   0.05334  -2.42053
   Z15       -0.72964  -0.00028   0.00000  -0.01990  -0.01715  -0.74679
         Item               Value     Threshold  Converged?
 Maximum Force            0.016142     0.000450     NO 
 RMS     Force            0.004368     0.000300     NO 
 Maximum Displacement     0.136152     0.001800     NO 
 RMS     Displacement     0.040910     0.001200     NO 
 Predicted change in Energy=-6.118989D-03
 GradGradGradGradGradGradGradGradGradGradGradGradGradGradGradGradGradGrad


 ----------------------------------------------------------------------

 Electric dipole moment (input orientation):
 (Debye = 10**-18 statcoulomb cm , SI units = C m)
                  (au)            (Debye)         (10**-30 SI)
   Tot        0.179476D+01      0.456184D+01      0.152166D+02
   x          0.712174D+00      0.181017D+01      0.603806D+01
   y          0.164340D+01      0.417710D+01      0.139333D+02
   z         -0.115006D+00     -0.292315D+00     -0.975057D+00

 Dipole polarizability, Alpha (input orientation).
 (esu units = cm**3 , SI units = C**2 m**2 J**-1)
 Alpha(0;0):
               (au)            (10**-24 esu)      (10**-40 SI)
   iso        0.774099D+02      0.114710D+02      0.127632D+02
   aniso      0.448170D+02      0.664119D+01      0.738932D+01
   xx         0.975201D+02      0.144510D+02      0.160789D+02
   yx         0.134825D+02      0.199789D+01      0.222296D+01
   yy         0.803631D+02      0.119086D+02      0.132501D+02
   zx         0.182500D+01      0.270437D+00      0.300902D+00
   zy        -0.344718D+01     -0.510819D+00     -0.568363D+00
   zz         0.543466D+02      0.805333D+01      0.896054D+01

 ----------------------------------------------------------------------

 Dipole orientation:
     6          3.43466842         -0.39273905          4.17289501
     1          4.07788989         -0.14212618          6.06419705
     6          2.72489843         -0.68083402          2.04070551
     6          1.99243693         -1.13178798         -0.58472567
     8          3.29620195         -2.26636397         -2.02648765
     8         -0.26312994         -0.19525769         -1.30771406
     6         -1.83263731          1.14833068          0.40033062
     6         -3.62960499         -0.54987773          1.80198534
     1         -0.74718305          2.45814678          1.56485335
     1         -3.10552744          2.53590932         -1.11728874
     1         -4.70579334         -1.69892217          0.47192313
     1         -2.57736753         -1.80187657          3.07002196
     1         -4.93938896          0.57461212          2.92784343
     8         -4.09979050          3.39208650         -3.08853381
     1         -3.10003546          2.44073406         -4.29369875

 Electric dipole moment (dipole orientation):
 (Debye = 10**-18 statcoulomb cm , SI units = C m)
                  (au)            (Debye)         (10**-30 SI)
   Tot        0.179476D+01      0.456184D+01      0.152166D+02
   x          0.000000D+00      0.000000D+00      0.000000D+00
   y          0.000000D+00      0.000000D+00      0.000000D+00
   z          0.179476D+01      0.456184D+01      0.152166D+02

 Dipole polarizability, Alpha (dipole orientation).
 (esu units = cm**3 , SI units = C**2 m**2 J**-1)
 Alpha(0;0):
               (au)            (10**-24 esu)      (10**-40 SI)
   iso        0.774099D+02      0.114710D+02      0.127632D+02
   aniso      0.448170D+02      0.664119D+01      0.738932D+01
   xx         0.771626D+02      0.114343D+02      0.127224D+02
   yx        -0.139847D+02     -0.207231D+01     -0.230576D+01
   yy         0.620003D+02      0.918749D+01      0.102225D+02
   zx         0.139748D+02      0.207085D+01      0.230413D+01
   zy        -0.610939D+01     -0.905318D+00     -0.100730D+01
   zz         0.930669D+02      0.137911D+02      0.153447D+02

 ----------------------------------------------------------------------
 1\1\GINC-AJ\Freq\UM062X\6-311++G(d,p)\C5H7O3(2)\AAYUSH\29-Mar-2025\0\\
 # freq 6-311++g(d,p) m062x\\Title Card Required\\0,2\C,2.468683,1.2947
 17,-0.672412\H,3.09745,2.092816,-0.993042\C,1.767743,0.391502,-0.31147
 8\C,0.986701,-0.755027,0.149859\O,1.490894,-1.784005,0.474738\O,-0.350
 299,-0.590356,0.194207\C,-0.958483,0.633762,-0.185177\C,-1.106226,1.58
 8491,0.967487\H,-0.505275,1.047232,-1.087258\H,-2.122476,0.23638,-0.53
 8782\H,-1.623144,1.101767,1.795334\H,-0.119614,1.917741,1.310193\H,-1.
 67733,2.465079,0.659471\O,-3.149915,-0.467335,-0.678022\H,-2.767492,-1
 .309117,-0.38611\\Version=ES64L-G16RevA.03\State=2-A\HF=-420.1938942\S
 2=0.760494\S2-1=0.\S2A=0.750044\RMSD=6.736e-09\RMSF=4.368e-03\ZeroPoin
 t=0.1060443\Thermal=0.1158134\Dipole=0.7121742,1.643399,-0.1150055\Dip
 oleDeriv=-0.1769402,-0.0174794,0.0154298,-0.0264081,-0.1802521,0.02604
 92,0.0154482,0.0191938,-0.1216028,0.2531844,0.0201615,-0.0117003,0.037
 2966,0.2496705,-0.0200301,-0.0221369,-0.0197,0.2070793,-0.4216479,-0.2
 165946,0.0974927,-0.2424667,-0.3489771,0.0998375,0.1338571,0.107216,-0
 .1479717,2.5998176,-0.3727734,-0.0606844,-0.254755,1.6390689,-0.432986
 1,-0.1980113,-0.4134434,0.5590068,-0.8880107,0.228483,-0.0285837,0.423
 3291,-1.1875224,0.2641714,-0.0852635,0.2809281,-0.4383942,-2.0307317,0
 .5085505,-0.0602908,0.6559142,-0.7118602,0.1009836,-0.0547442,0.044057
 ,-0.3754418,1.4544659,0.2235682,0.2351857,-0.4100586,0.7615974,0.09038
 64,0.4801839,0.2074809,0.4617678,-0.2489804,-0.1691691,-0.1183881,0.03
 54447,-0.0952463,-0.0792528,-0.0212172,-0.1354548,-0.1131671,-0.052540
 2,-0.0491492,0.0708785,0.0257548,-0.0296836,-0.0097971,-0.0638068,-0.0
 333448,-0.047274,-0.7598318,-0.404451,-0.2400576,-0.4985028,-0.1301112
 ,-0.1397315,-0.158229,-0.0673067,0.109502,0.0722544,-0.0111782,0.05808
 42,-0.0453566,0.0377252,0.0578839,0.0452316,0.0198276,0.0114807,-0.011
 0026,-0.0103737,-0.0229781,-0.0736712,0.0332653,-0.034323,-0.0757685,-
 0.0560571,0.0397883,0.0493453,0.0745133,-0.0119493,0.0739634,-0.012318
 9,0.0190427,-0.0179246,0.0393097,0.0557292,-0.0901531,0.1367647,0.1258
 495,0.0721361,-0.3191274,-0.0223248,0.0895166,-0.01869,-0.4856439,0.25
 07711,0.0591275,-0.0482882,0.2273801,0.2937718,0.0800907,-0.0671354,0.
 0259837,0.2851413\Polar=97.5201073,13.4824577,80.3630735,1.8249991,-3.
 4471798,54.346561\Quadrupole=-4.214751,2.8252761,1.3894749,6.0782415,-
 4.7988101,0.1711432\PG=C01 [X(C5H7O3)]\NImag=1\\0.57252508,0.66437205,
 0.91086871,-0.26606376,-0.34055149,0.19824933,-0.16442660,-0.17545449,
 0.07034238,0.15440513,-0.17478938,-0.24973312,0.08833405,0.17536029,0.
 23959177,0.07019582,0.08846172,-0.06575318,-0.07050947,-0.08912921,0.0
 5382714,-0.40948760,-0.48714762,0.19494665,0.00637161,0.00265681,-0.00
 075628,0.56910496,-0.48957396,-0.66163248,0.25102043,0.00242412,0.0080
 5947,-0.00021805,0.59035856,0.87874501,0.19606995,0.25120761,-0.135262
 40,-0.00064800,-0.00013669,0.00828271,-0.24156162,-0.32571350,0.190708
 13,0.00701845,0.00342217,-0.00133279,0.00371496,-0.00420984,0.00153151
 ,-0.13403254,-0.08805966,0.03577321,0.60505565,0.00214717,0.00296577,0
 .00021048,-0.00228279,0.00159567,0.00171089,-0.07686093,-0.16122013,0.
 03567287,-0.17614685,0.90253107,-0.00141949,-0.00053105,0.00326859,0.0
 0099466,0.00178738,0.00515788,0.03150815,0.03705887,-0.08999888,0.0315
 9497,-0.23583982,0.27865368,-0.00194523,-0.00340934,0.00132661,-0.0004
 9739,0.00085159,-0.00032057,0.02042387,-0.00290050,0.00123866,-0.20134
 489,0.23968862,-0.07577947,0.25374895,-0.00134650,0.00013317,0.0000222
 1,-0.00089303,0.00106447,-0.00070454,0.00154912,-0.06764830,0.03202155
 ,0.24616225,-0.64009951,0.18095332,-0.30920148,0.71782822,0.00073712,0
 .00034060,-0.00004523,0.00026362,-0.00082767,-0.00084336,-0.00047548,0
 .03218155,0.01213799,-0.07746660,0.18083064,-0.13435014,0.09252858,-0.
 21891699,0.10211977,-0.00175652,-0.00444265,0.00166736,0.00078758,0.00
 028482,-0.00011639,-0.04504118,-0.01397119,0.00881484,-0.25758790,-0.0
 2227286,0.02576829,-0.06759474,0.06516649,-0.01682853,0.47429304,0.000
 11433,-0.00087416,0.00039731,0.00072722,-0.00086450,-0.00011207,-0.025
 83784,0.00409051,0.00769389,-0.00364944,-0.09344329,0.01912233,0.07906
 319,-0.01754776,0.00603490,-0.11841622,0.34790173,0.00015117,0.0007923
 0,-0.00003612,-0.00042750,0.00001579,-0.00080691,0.01399485,0.00578667
 ,0.01369578,0.01849094,0.01991260,-0.05450265,-0.02183973,0.00747850,0
 .01501449,0.00219260,-0.09546247,0.09883017,-0.00050814,0.00225985,-0.
 00102098,-0.00039784,-0.00028290,0.00006068,-0.00226516,0.00131670,-0.
 00065052,-0.04112579,0.03848055,-0.00950271,0.00263075,-0.00582182,0.0
 0257350,-0.07308360,0.01752658,-0.00185673,0.30719404,-0.00075856,-0.0
 0280531,0.00102283,0.00010144,0.00021504,0.00002905,-0.00616798,-0.000
 96689,-0.00001247,0.03783886,-0.00846346,-0.00344154,-0.00990333,0.008
 82837,-0.00058847,0.05848682,-0.18366752,0.05047402,-0.02048187,0.4386
 3456,-0.00047024,0.00076351,-0.00085288,-0.00010379,-0.00001766,0.0001
 1023,0.00240486,0.00024608,0.00099761,-0.01652399,-0.00171339,-0.00902
 997,0.00500377,-0.00271305,0.00696425,-0.00469500,0.04543658,-0.079846
 28,-0.10857925,-0.04448491,0.53956296,0.00013759,-0.00018490,0.0000291
 1,0.00005176,0.00002023,0.00004317,-0.00069717,-0.00000153,-0.00018291
 ,0.00671198,0.00098287,0.00136400,-0.00229844,0.00115974,-0.00119434,-
 0.00872007,0.02484759,0.01304296,-0.05789887,0.00194786,0.00753112,0.5
 6074627,-0.00001628,0.00026278,-0.00030807,0.00003797,-0.00006738,0.00
 001924,0.00093125,0.00023366,-0.00026612,-0.00723665,-0.00100357,-0.00
 139847,0.00240981,-0.00098919,0.00125003,0.01534641,-0.03561162,-0.020
 83465,0.01306641,-0.12075990,-0.05999766,-0.00769474,0.54770626,-0.000
 11476,-0.00050436,0.00002607,-0.00006243,0.00000849,0.00003483,0.00042
 172,-0.00020791,-0.00039969,0.00403520,0.00206048,0.00112974,-0.001829
 63,0.00081857,-0.00103935,-0.00652028,0.00718876,0.01397308,0.02167807
 ,-0.06655577,-0.17580230,-0.00117482,-0.05522773,0.52514544,-0.0010529
 3,0.00008453,-0.00021923,-0.00010686,-0.00000961,-0.00001590,-0.003004
 45,0.00059403,-0.00010148,0.00543619,0.00040726,-0.00107176,-0.0014590
 1,0.00060668,0.00005342,0.00382114,0.01302128,-0.01789171,-0.09104984,
 -0.04267716,0.11781136,0.00310280,-0.00204702,-0.00200956,0.09432913,-
 0.00020378,0.00035477,-0.00026920,-0.00007108,0.00004274,-0.00001678,0
 .00044193,0.00042110,-0.00022240,-0.00718494,0.00035935,0.00177664,0.0
 0182344,-0.00087407,-0.00040012,-0.00257873,-0.02268606,0.02703570,-0.
 03331400,-0.08449310,0.08172115,0.00957389,0.01166075,-0.01790914,0.03
 667980,0.09933030,0.00065249,-0.00029715,0.00021586,-0.00001154,-0.000
 02694,0.00006267,-0.00044518,-0.00018763,-0.00010750,0.00396966,-0.000
 03127,0.00061996,-0.00078400,0.00017424,-0.00003706,-0.00125993,0.0089
 2825,-0.00407921,0.09881533,0.08207145,-0.23367214,0.01235838,0.008983
 11,-0.01518002,-0.10813890,-0.09276618,0.25092339,-0.00009228,-0.00003
 274,0.00010941,0.00014822,0.00009793,-0.00012223,-0.00126301,-0.000603
 84,0.00062736,0.01038227,-0.00466817,-0.00375174,-0.00272783,0.0034516
 5,-0.00041041,-0.03559458,0.01884107,-0.00763754,0.05936414,0.01920161
 ,0.03058705,-0.01424527,-0.00722011,-0.00541575,-0.01476048,-0.0064393
 0,-0.00797871,-0.06279762,-0.00004203,0.00008291,-0.00000238,0.0000963
 6,0.00007895,-0.00007851,-0.00088018,-0.00034807,0.00019125,0.00647307
 ,-0.00483090,0.00063484,-0.00035579,0.00110005,-0.00056251,0.00973814,
 0.00584071,0.00412048,0.05641268,-0.00956081,0.02292923,-0.01975045,-0
 .00797984,-0.00799915,-0.01101630,-0.00344599,-0.00584859,-0.07831897,
 0.03085656,0.00021848,-0.00012525,0.00006387,0.00002325,-0.00000622,0.
 00000205,-0.00014639,0.00003826,0.00004892,0.00245095,-0.00054585,-0.0
 0071703,-0.00078250,0.00081624,-0.00010674,-0.01226689,0.00433914,-0.0
 0265806,0.01104241,0.00338262,-0.01940238,-0.01411149,-0.00762783,-0.0
 0734485,0.01068958,0.00336331,0.00130457,-0.01585221,-0.02107127,0.042
 81226,0.00000028,0.00025332,0.00001295,0.00003473,-0.00000837,-0.00001
 861,-0.00004751,0.00004175,0.00017729,-0.00093312,-0.00042327,0.000327
 82,0.00020408,0.00010759,-0.00013408,0.00024439,-0.00019697,-0.0005143
 7,-0.00164651,-0.00058901,0.00078559,-0.10911113,-0.05907806,0.1002062
 0,0.00092315,-0.00001093,0.00006896,0.00038371,0.00042066,-0.00042574,
 0.11345241,0.00000203,0.00000364,0.00005423,0.00003216,-0.00001925,-0.
 00001535,-0.00014239,-0.00000502,0.00006609,0.00078483,0.00001016,0.00
 009933,-0.00023517,0.00014749,-0.00010217,-0.00145079,0.00181456,0.001
 19136,0.01150039,0.01057591,-0.01898364,-0.05950816,-0.10441105,0.0959
 6361,0.00019396,-0.00299201,-0.00349661,0.00047797,0.00058450,0.000024
 93,0.06485547,0.10911070,0.00000309,0.00001643,0.00007999,-0.00000102,
 -0.00001146,-0.00001338,-0.00019753,-0.00006432,0.00004684,0.00042009,
 0.00002011,0.00004565,-0.00004804,0.00001664,-0.00005446,-0.00145894,0
 .00054041,0.00241147,0.01156457,0.01177073,-0.02452801,0.09904825,0.09
 370261,-0.20157063,0.00025522,-0.00404555,-0.00215623,0.00167530,0.001
 06185,-0.00002100,-0.10862266,-0.09982711,0.22212233,-0.00027966,0.000
 19381,0.00019720,-0.00000604,-0.00003225,-0.00000035,-0.00058581,0.000
 20631,0.00055442,-0.00012289,-0.00007700,-0.00033098,0.00010339,-0.000
 21633,0.00012749,0.00142582,-0.00115268,-0.00006874,0.00162582,0.00012
 417,-0.00097067,-0.26195706,-0.06940309,-0.07151369,0.00012903,-0.0004
 5405,-0.00043302,0.00347499,0.00203134,0.00073510,-0.01258145,-0.00292
 079,-0.00510869,0.28356408,0.00000286,0.00005173,0.00019205,-0.0000173
 1,0.00009466,0.00000064,0.00015381,-0.00011658,-0.00023411,0.00019504,
 -0.00096857,-0.00048186,0.00010606,0.00008913,0.00005357,0.00022029,0.
 00270305,0.00149995,-0.01780729,-0.00948130,-0.00934234,-0.07231187,-0
 .06808257,-0.02245233,0.00086402,0.00040205,0.00063595,-0.00094329,-0.
 00197681,-0.00190584,-0.01242054,-0.00458370,-0.00514380,0.07803296,0.
 07199387,0.00007069,0.00029951,0.00002711,0.00012304,0.00001357,-0.000
 03840,0.00020149,-0.00000923,-0.00016486,-0.00069993,-0.00144309,0.000
 44507,0.00030936,0.00035398,-0.00024663,0.00147467,0.00236376,0.001285
 94,-0.02330885,-0.00942580,-0.01250168,-0.07459197,-0.02343043,-0.0683
 5533,0.00092528,0.00054369,0.00101501,-0.00027759,-0.00264840,-0.00168
 282,0.02226882,0.00647264,0.00884463,0.08067480,0.02928116,0.07481526,
 -0.00002546,-0.00001592,0.00007496,-0.00003673,0.00006560,-0.00000302,
 -0.00009928,0.00004312,0.00013330,0.00050023,-0.00064916,-0.00036284,-
 0.00001389,0.00003943,0.00002394,0.00135436,0.00029747,0.00062502,-0.0
 0321786,0.00022111,-0.00151264,-0.12174136,0.11751605,-0.04059354,0.00
 001029,-0.00009189,0.00015325,0.00033282,0.00008943,0.00012453,0.00890
 152,-0.01366751,0.00317263,-0.01377914,0.02372102,-0.00716787,0.127932
 94,0.00004055,0.00011835,-0.00003333,-0.00000255,-0.00000897,0.0000064
 5,0.00013066,0.00011907,0.00003670,-0.00277217,-0.00048121,-0.00051326
 ,0.00088545,-0.00046743,0.00039033,0.00351872,-0.00268577,-0.00398445,
 0.00878068,-0.01543668,0.00928402,0.11601205,-0.22342523,0.06224981,-0
 .00002738,0.00057297,-0.00052031,0.00048147,-0.00005453,0.00026107,0.0
 0681815,-0.01012852,0.00238475,-0.00560980,0.00936271,-0.00276654,-0.1
 2780686,0.24230462,0.00004443,0.00014641,-0.00003086,0.00001606,-0.000
 00901,0.00000221,0.00009573,0.00008158,-0.00002303,-0.00262402,-0.0006
 4214,-0.00055024,0.00106113,-0.00048752,0.00049171,0.00360894,-0.00648
 645,-0.00355802,0.01260754,-0.01803365,0.01085460,-0.04188951,0.064469
 05,-0.07151990,0.00006111,0.00125415,0.00016328,0.00054744,0.00023013,
 0.00058468,-0.01453850,0.01827476,-0.00568669,-0.00384774,0.00803359,-
 0.00349036,0.04517912,-0.06679819,0.07284288,-0.00018270,-0.00015997,0
 .00001515,-0.00000951,0.00003098,0.00001785,0.00011379,0.00003819,-0.0
 0007775,-0.00060927,0.00095641,0.00085130,0.00007751,-0.00039522,-0.00
 003259,0.00548354,-0.00665930,0.00134049,-0.10500974,-0.03365156,-0.03
 409677,0.00730785,0.00351496,0.00324868,0.00434373,0.00175899,0.003782
 02,0.05969296,0.05531887,0.01525085,0.00002093,0.00006061,-0.00075698,
 -0.00125017,0.00033620,0.00016151,-0.00013454,-0.00062793,-0.00043731,
 0.13356103,-0.00008117,0.00014382,-0.00004885,0.00001118,-0.00001353,0
 .00000570,0.00033024,0.00011742,-0.00013790,-0.00216966,0.00087660,0.0
 0040503,0.00018693,0.00003052,0.00006062,0.00554275,-0.00231899,0.0014
 2794,-0.06336523,-0.02133472,-0.01987562,0.00341337,0.00233531,0.00227
 878,0.00234863,0.00106094,0.00179133,0.04315297,-0.00205793,0.01284673
 ,0.00034038,0.00001123,-0.00020987,-0.00058946,0.00012397,0.00004721,0
 .00020879,0.00012160,-0.00003314,-0.17415130,0.41630541,-0.00009854,-0
 .00007227,0.00009558,-0.00000087,-0.00000504,-0.00003393,-0.00014616,-
 0.00002868,0.00000564,0.00053504,-0.00042720,-0.00034416,-0.00013981,0
 .00012965,0.00019302,-0.00016944,-0.00032888,0.00116391,-0.01707935,-0
 .00556304,-0.00410575,0.00123986,0.00102505,0.00111254,-0.00044219,-0.
 00016796,0.00117116,0.01208256,0.01247716,-0.01447199,0.00040056,0.000
 51419,0.00074346,-0.00019364,0.00002629,0.00038243,0.00006699,-0.00013
 750,-0.00008781,0.07297214,-0.13638578,0.06444938,0.00007572,0.0002619
 0,-0.00008503,-0.00003301,-0.00003588,0.00001380,0.00050948,0.00008791
 ,-0.00016676,-0.00306334,0.00071816,-0.00019021,0.00069288,-0.00036858
 ,0.00023437,0.00196873,0.00147371,0.00039828,0.00538859,-0.00369240,0.
 00282858,-0.00138888,-0.00012688,-0.00035541,-0.00066190,0.00007062,-0
 .00074879,-0.00229802,-0.02021683,0.00305009,0.00015452,0.00001739,0.0
 0005472,0.00023910,-0.00013197,-0.00016346,0.00001610,0.00017897,0.000
 11556,-0.10340541,0.18482157,-0.06902716,0.10180544,0.00013269,0.00005
 942,-0.00004026,-0.00006949,-0.00003603,0.00004082,0.00048455,0.000151
 21,-0.00016679,-0.00344702,0.00217202,0.00036828,0.00099052,-0.0015951
 6,0.00025568,0.00482800,-0.00265091,0.00054625,-0.00827073,-0.00128418
 ,-0.00325227,0.00149404,0.00013162,0.00028790,0.00097729,0.00028625,0.
 00059035,0.01252175,-0.00828879,0.00620996,-0.00011018,-0.00011862,-0.
 00021141,-0.00013313,0.00038835,0.00034796,0.00002932,0.00008902,0.000
 00042,0.15363007,-0.39540163,0.12894400,-0.16305770,0.40609744,0.00002
 355,0.00005346,-0.00004573,0.00000160,0.00001061,0.00000945,0.00015520
 ,0.00001589,0.00003275,-0.00015425,0.00022471,0.00017249,0.00005563,0.
 00003720,-0.00019826,-0.00021129,0.00034456,-0.00088760,0.00365628,-0.
 00064507,0.00125174,-0.00151182,-0.00035813,-0.00020962,0.00009475,0.0
 0010269,-0.00024374,-0.00418292,-0.00343413,0.00158854,0.00000577,-0.0
 0023626,-0.00026397,0.00017851,-0.00016289,-0.00033538,0.00008615,0.00
 014044,0.00000756,-0.06223859,0.13782782,-0.05027350,0.06404143,-0.133
 92090,0.04939527\\0.00006213,-0.00009188,-0.00004505,-0.00004712,-0.00
 006444,0.00007536,0.00036483,0.00023515,0.00000349,-0.00164255,0.00028
 763,0.00076288,0.00044388,-0.00001210,-0.00007709,0.00267814,-0.002817
 68,0.00038512,-0.00793375,0.00050488,-0.00444355,0.00339931,0.00160633
 ,0.00148928,0.00241341,0.00104298,0.00134552,0.01577732,0.00978890,0.0
 0216817,-0.00008118,-0.00006008,-0.00012360,-0.00010177,0.00035406,0.0
 0037132,-0.00001848,0.00006221,0.00005976,-0.01614246,-0.01073224,-0.0
 0225151,0.00082829,-0.00010372,0.00027988\\\@


 HERE WE GO......
 SLIDING DOWN THE RAZOR BLADE OF LIFE......
                                 TOM LEHRER
 Job cpu time:       0 days  0 hours 54 minutes 38.3 seconds.
 Elapsed time:       0 days  0 hours  2 minutes 16.9 seconds.
 File lengths (MBytes):  RWF=    153 Int=      0 D2E=      0 Chk=      6 Scr=      1
 Normal termination of Gaussian 16 at Sat Mar 29 04:17:59 2025.
