 Entering Gaussian System, Link 0=g16
 Initial command:
 /opt/g16/l1.exe "/home/aayush/Research/Transition_states/Abstraction/ts9_irc_points/Gau-21572.inp" -scrdir="/home/aayush/Research/Transition_states/Abstraction/ts9_irc_points/"
 Entering Link 1 = /opt/g16/l1.exe PID=     21575.
  
 Copyright (c) 1988,1990,1992,1993,1995,1998,2003,2009,2016,
            Gaussian, Inc.  All Rights Reserved.
  
 This is part of the Gaussian(R) 16 program.  It is based on
 the Gaussian(R) 09 system (copyright 2009, Gaussian, Inc.),
 the Gaussian(R) 03 system (copyright 2003, Gaussian, Inc.),
 the Gaussian(R) 98 system (copyright 1998, Gaussian, Inc.),
 the Gaussian(R) 94 system (copyright 1995, Gaussian, Inc.),
 the Gaussian 92(TM) system (copyright 1992, Gaussian, Inc.),
 the Gaussian 90(TM) system (copyright 1990, Gaussian, Inc.),
 the Gaussian 88(TM) system (copyright 1988, Gaussian, Inc.),
 the Gaussian 86(TM) system (copyright 1986, Carnegie Mellon
 University), and the Gaussian 82(TM) system (copyright 1983,
 Carnegie Mellon University). Gaussian is a federally registered
 trademark of Gaussian, Inc.
  
 This software contains proprietary and confidential information,
 including trade secrets, belonging to Gaussian, Inc.
  
 This software is provided under written license and may be
 used, copied, transmitted, or stored only in accord with that
 written license.
  
 The following legend is applicable only to US Government
 contracts under FAR:
  
                    RESTRICTED RIGHTS LEGEND
  
 Use, reproduction and disclosure by the US Government is
 subject to restrictions as set forth in subparagraphs (a)
 and (c) of the Commercial Computer Software - Restricted
 Rights clause in FAR 52.227-19.
  
 Gaussian, Inc.
 340 Quinnipiac St., Bldg. 40, Wallingford CT 06492
  
  
 ---------------------------------------------------------------
 Warning -- This program may not be used in any manner that
 competes with the business of Gaussian, Inc. or will provide
 assistance to any competitor of Gaussian, Inc.  The licensee
 of this program is prohibited from giving any competitor of
 Gaussian, Inc. access to this program.  By using this program,
 the user acknowledges that Gaussian, Inc. is engaged in the
 business of creating and licensing software in the field of
 computational chemistry and represents and warrants to the
 licensee that it is not a competitor of Gaussian, Inc. and that
 it will not use this program in any manner prohibited above.
 ---------------------------------------------------------------
  

 Cite this work as:
 Gaussian 16, Revision A.03,
 M. J. Frisch, G. W. Trucks, H. B. Schlegel, G. E. Scuseria, 
 M. A. Robb, J. R. Cheeseman, G. Scalmani, V. Barone, 
 G. A. Petersson, H. Nakatsuji, X. Li, M. Caricato, A. V. Marenich, 
 J. Bloino, B. G. Janesko, R. Gomperts, B. Mennucci, H. P. Hratchian, 
 J. V. Ortiz, A. F. Izmaylov, J. L. Sonnenberg, D. Williams-Young, 
 F. Ding, F. Lipparini, F. Egidi, J. Goings, B. Peng, A. Petrone, 
 T. Henderson, D. Ranasinghe, V. G. Zakrzewski, J. Gao, N. Rega, 
 G. Zheng, W. Liang, M. Hada, M. Ehara, K. Toyota, R. Fukuda, 
 J. Hasegawa, M. Ishida, T. Nakajima, Y. Honda, O. Kitao, H. Nakai, 
 T. Vreven, K. Throssell, J. A. Montgomery, Jr., J. E. Peralta, 
 F. Ogliaro, M. J. Bearpark, J. J. Heyd, E. N. Brothers, K. N. Kudin, 
 V. N. Staroverov, T. A. Keith, R. Kobayashi, J. Normand, 
 K. Raghavachari, A. P. Rendell, J. C. Burant, S. S. Iyengar, 
 J. Tomasi, M. Cossi, J. M. Millam, M. Klene, C. Adamo, R. Cammi, 
 J. W. Ochterski, R. L. Martin, K. Morokuma, O. Farkas, 
 J. B. Foresman, and D. J. Fox, Gaussian, Inc., Wallingford CT, 2016.
 
 ******************************************
 Gaussian 16:  ES64L-G16RevA.03 25-Dec-2016
                29-Mar-2025 
 ******************************************
 %chk=ethyl_propiolate.chk
 %nprocshared=24
 Will use up to   24 processors via shared memory.
 %mem=12GB
 --------------------------
 # freq 6-311++g(d,p) m062x
 --------------------------
 1/10=4,30=1,38=1/1,3;
 2/12=2,17=6,18=5,40=1/2;
 3/5=4,6=6,7=1111,11=2,25=1,30=1,71=2,74=-55,140=1/1,2,3;
 4//1;
 5/5=2,38=5,98=1/2;
 8/6=4,10=90,11=11/1;
 11/6=1,8=1,9=11,15=111,16=1/1,2,10;
 10/6=1/2;
 6/7=2,8=2,9=2,10=2,28=1/1;
 7/8=1,10=1,25=1/1,2,3,16;
 1/10=4,30=1/3;
 99//99;
 -------------------
 Title Card Required
 -------------------
 Symbolic Z-matrix:
 Charge =  0 Multiplicity = 2
 C                     2.46936   1.29429  -0.67215 
 H                     3.09804   2.09227  -0.99264 
 C                     1.76871   0.39108  -0.31062 
 C                     0.98351  -0.75502   0.15167 
 O                     1.49182  -1.78436   0.47494 
 O                    -0.34915  -0.59257   0.19245 
 C                    -0.94424   0.65243  -0.19141 
 C                    -1.09601   1.59397   0.97487 
 H                    -0.40769   1.08594  -1.03677 
 H                    -1.9466    0.38753  -0.57582 
 H                    -1.62589   1.10018   1.79061 
 H                    -0.12082   1.9298    1.33489 
 H                    -1.67164   2.46809   0.66524 
 O                    -3.18715  -0.49467  -0.68243 
 H                    -2.75424  -1.31222  -0.379 
 

 GradGradGradGradGradGradGradGradGradGradGradGradGradGradGradGradGradGrad
 Berny optimization.
 Initialization pass.
 Trust Radius=3.00D-01 FncErr=1.00D-07 GrdErr=1.00D-07 EigMax=2.50D+02 EigMin=1.00D-04
 Number of steps in this run=      2 maximum allowed number of steps=      2.
 GradGradGradGradGradGradGradGradGradGradGradGradGradGradGradGradGradGrad

                          Input orientation:                          
 ---------------------------------------------------------------------
 Center     Atomic      Atomic             Coordinates (Angstroms)
 Number     Number       Type             X           Y           Z
 ---------------------------------------------------------------------
      1          6           0        2.469355    1.294293   -0.672148
      2          1           0        3.098039    2.092274   -0.992635
      3          6           0        1.768707    0.391077   -0.310617
      4          6           0        0.983514   -0.755018    0.151667
      5          8           0        1.491818   -1.784355    0.474935
      6          8           0       -0.349150   -0.592566    0.192454
      7          6           0       -0.944244    0.652429   -0.191406
      8          6           0       -1.096009    1.593968    0.974868
      9          1           0       -0.407688    1.085935   -1.036768
     10          1           0       -1.946604    0.387529   -0.575821
     11          1           0       -1.625887    1.100181    1.790608
     12          1           0       -0.120816    1.929797    1.334886
     13          1           0       -1.671644    2.468086    0.665243
     14          8           0       -3.187147   -0.494670   -0.682433
     15          1           0       -2.754240   -1.312218   -0.379001
 ---------------------------------------------------------------------
                    Distance matrix (angstroms):
                    1          2          3          4          5
     1  C    0.000000
     2  H    1.065237   0.000000
     3  C    1.198921   2.264143   0.000000
     4  C    2.661967   3.726622   1.464161   0.000000
     5  O    3.427747   4.445443   2.329434   1.192648   0.000000
     6  O    3.500249   4.527241   2.388714   1.343148   2.211181
     7  C    3.506531   4.365223   2.728116   2.411401   3.509462
     8  C    3.938818   4.659336   3.362442   3.243426   4.284839
     9  H    2.907531   3.647573   2.397252   2.595559   3.759246
    10  H    4.509123   5.341190   3.724766   3.228040   4.200466
    11  H    4.782662   5.571909   4.054780   3.596785   4.446530
    12  H    3.337819   3.975523   2.940346   3.134930   4.139448
    13  H    4.507136   5.063563   4.135491   4.207377   5.303486
    14  O    5.932665   6.803827   5.048097   4.261211   4.989539
    15  H    5.845150   6.798256   4.833523   3.816135   4.356734
                    6          7          8          9         10
     6  O    0.000000
     7  C    1.432305   0.000000
     8  C    2.439447   1.506560   0.000000
     9  H    2.081293   1.091081   2.185992   0.000000
    10  H    2.025510   1.105745   2.140944   1.751715   0.000000
    11  H    2.655098   2.143245   1.090884   3.078679   2.492131
    12  H    2.778417   2.153896   1.092426   2.533602   3.059885
    13  H    3.367508   2.135315   1.091469   2.530764   2.438147
    14  O    2.971403   2.566624   3.388497   3.217026   1.525971
    15  H    2.574668   2.677894   3.609516   3.419079   1.892129
                   11         12         13         14         15
    11  H    0.000000
    12  H    1.777972   0.000000
    13  H    1.771921   1.772920   0.000000
    14  O    3.331218   4.398864   3.590390   0.000000
    15  H    3.435120   4.514753   4.068557   0.973583   0.000000
 Stoichiometry    C5H7O3(2)
 Framework group  C1[X(C5H7O3)]
 Deg. of freedom    39
 Full point group                 C1      NOp   1
 Largest Abelian subgroup         C1      NOp   1
 Largest concise Abelian subgroup C1      NOp   1
                         Standard orientation:                         
 ---------------------------------------------------------------------
 Center     Atomic      Atomic             Coordinates (Angstroms)
 Number     Number       Type             X           Y           Z
 ---------------------------------------------------------------------
      1          6           0        2.518841    1.216867   -0.685243
      2          1           0        3.151085    2.010743   -1.008903
      3          6           0        1.814161    0.318239   -0.320132
      4          6           0        1.023855   -0.822532    0.146585
      5          8           0        1.527452   -1.853332    0.472548
      6          8           0       -0.307952   -0.653415    0.188274
      7          6           0       -0.897346    0.593274   -0.198867
      8          6           0       -1.043237    1.539202    0.964602
      9          1           0       -0.359580    1.021487   -1.046156
     10          1           0       -1.901406    0.332091   -0.581384
     11          1           0       -1.574653    1.050584    1.782451
     12          1           0       -0.066023    1.871370    1.322528
     13          1           0       -1.614911    2.415159    0.652841
     14          8           0       -3.146374   -0.544340   -0.683907
     15          1           0       -2.717156   -1.363046   -0.378366
 ---------------------------------------------------------------------
 Rotational constants (GHZ):           2.7811049           1.2249389           0.9759477
 Standard basis: 6-311++G(d,p) (5D, 7F)
 There are   233 symmetry adapted cartesian basis functions of A   symmetry.
 There are   225 symmetry adapted basis functions of A   symmetry.
   225 basis functions,   351 primitive gaussians,   233 cartesian basis functions
    31 alpha electrons       30 beta electrons
       nuclear repulsion energy       349.9566653346 Hartrees.
 NAtoms=   15 NActive=   15 NUniq=   15 SFac= 1.00D+00 NAtFMM=   60 NAOKFM=F Big=F
 Integral buffers will be    131072 words long.
 Raffenetti 2 integral format.
 Two-electron integral symmetry is turned on.
 One-electron integrals computed using PRISM.
 NBasis=   225 RedAO= T EigKep=  1.49D-06  NBF=   225
 NBsUse=   225 1.00D-06 EigRej= -1.00D+00 NBFU=   225
 ExpMin= 3.60D-02 ExpMax= 8.59D+03 ExpMxC= 1.30D+03 IAcc=3 IRadAn=         5 AccDes= 0.00D+00
 Harris functional with IExCor= 1009 and IRadAn=       5 diagonalized for initial guess.
 HarFok:  IExCor= 1009 AccDes= 0.00D+00 IRadAn=         5 IDoV= 1 UseB2=F ITyADJ=14
 ICtDFT=  3500011 ScaDFX=  1.000000  1.000000  1.000000  1.000000
 FoFCou: FMM=F IPFlag=           0 FMFlag=      100000 FMFlg1=           0
         NFxFlg=           0 DoJE=T BraDBF=F KetDBF=T FulRan=T
         wScrn=  0.000000 ICntrl=       500 IOpCl=  0 I1Cent=   200000004 NGrid=           0
         NMat0=    1 NMatS0=      1 NMatT0=    0 NMatD0=    1 NMtDS0=    0 NMtDT0=    0
 Petite list used in FoFCou.
 Initial guess <Sx>= 0.0000 <Sy>= 0.0000 <Sz>= 0.5000 <S**2>= 0.7500 S= 0.5000
 Requested convergence on RMS density matrix=1.00D-08 within 128 cycles.
 Requested convergence on MAX density matrix=1.00D-06.
 Requested convergence on             energy=1.00D-06.
 No special actions if energy rises.
 Restarting incremental Fock formation.
 SCF Done:  E(UM062X) =  -420.193643626     A.U. after   22 cycles
            NFock= 22  Conv=0.40D-08     -V/T= 2.0031
 <Sx>= 0.0000 <Sy>= 0.0000 <Sz>= 0.5000 <S**2>= 0.7558 S= 0.5029
 <L.S>=  0.00000000000    
 Annihilation of the first spin contaminant:
 S**2 before annihilation     0.7558,   after     0.7500
 DoSCS=F DFT=T ScalE2(SS,OS)=  1.000000  1.000000
 Range of M.O.s used for correlation:     1   225
 NBasis=   225 NAE=    31 NBE=    30 NFC=     0 NFV=     0
 NROrb=    225 NOA=    31 NOB=    30 NVA=   194 NVB=   195

 **** Warning!!: The largest alpha MO coefficient is  0.30525802D+03


 **** Warning!!: The largest beta MO coefficient is  0.28225741D+03

 Symmetrizing basis deriv contribution to polar:
 IMax=3 JMax=2 DiffMx= 0.00D+00
 G2DrvN: will do    16 centers at a time, making    1 passes.
 Calling FoFCou, ICntrl=  3107 FMM=F I1Cent=   0 AccDes= 0.00D+00.
 End of G2Drv F.D. properties file   721 does not exist.
 End of G2Drv F.D. properties file   722 does not exist.
 End of G2Drv F.D. properties file   788 does not exist.
          IDoAtm=111111111111111
          Differentiating once with respect to electric field.
                with respect to dipole field.
          Differentiating once with respect to nuclear coordinates.
 Keep R1 and R2 ints in memory in canonical form, NReq=671901977.
          There are    48 degrees of freedom in the 1st order CPHF.  IDoFFX=6 NUNeed=     3.
     45 vectors produced by pass  0 Test12= 2.47D-14 2.08D-09 XBig12= 8.62D+01 3.50D+00.
 AX will form    45 AO Fock derivatives at one time.
     45 vectors produced by pass  1 Test12= 2.47D-14 2.08D-09 XBig12= 1.72D+01 4.69D-01.
     45 vectors produced by pass  2 Test12= 2.47D-14 2.08D-09 XBig12= 5.05D-01 1.10D-01.
     45 vectors produced by pass  3 Test12= 2.47D-14 2.08D-09 XBig12= 6.74D-03 1.74D-02.
     45 vectors produced by pass  4 Test12= 2.47D-14 2.08D-09 XBig12= 6.31D-05 1.07D-03.
     45 vectors produced by pass  5 Test12= 2.47D-14 2.08D-09 XBig12= 6.06D-07 9.84D-05.
     42 vectors produced by pass  6 Test12= 2.47D-14 2.08D-09 XBig12= 4.36D-09 5.00D-06.
     17 vectors produced by pass  7 Test12= 2.47D-14 2.08D-09 XBig12= 2.43D-11 3.73D-07.
      3 vectors produced by pass  8 Test12= 2.47D-14 2.08D-09 XBig12= 1.73D-13 3.77D-08.
      2 vectors produced by pass  9 Test12= 2.47D-14 2.08D-09 XBig12= 2.39D-15 6.62D-09.
      2 vectors produced by pass 10 Test12= 2.47D-14 2.08D-09 XBig12= 6.94D-16 4.95D-09.
 InvSVY:  IOpt=1 It=  1 EMax= 1.24D-14
 Solved reduced A of dimension   336 with    48 vectors.
 Isotropic polarizability for W=    0.000000       73.72 Bohr**3.
 End of Minotr F.D. properties file   721 does not exist.
 End of Minotr F.D. properties file   722 does not exist.
 End of Minotr F.D. properties file   788 does not exist.

 **********************************************************************

            Population analysis using the SCF density.

 **********************************************************************

 Orbital symmetries:
 Alpha Orbitals:
       Occupied  (A) (A) (A) (A) (A) (A) (A) (A) (A) (A) (A) (A)
                 (A) (A) (A) (A) (A) (A) (A) (A) (A) (A) (A) (A)
                 (A) (A) (A) (A) (A) (A) (A)
       Virtual   (A) (A) (A) (A) (A) (A) (A) (A) (A) (A) (A) (A)
                 (A) (A) (A) (A) (A) (A) (A) (A) (A) (A) (A) (A)
                 (A) (A) (A) (A) (A) (A) (A) (A) (A) (A) (A) (A)
                 (A) (A) (A) (A) (A) (A) (A) (A) (A) (A) (A) (A)
                 (A) (A) (A) (A) (A) (A) (A) (A) (A) (A) (A) (A)
                 (A) (A) (A) (A) (A) (A) (A) (A) (A) (A) (A) (A)
                 (A) (A) (A) (A) (A) (A) (A) (A) (A) (A) (A) (A)
                 (A) (A) (A) (A) (A) (A) (A) (A) (A) (A) (A) (A)
                 (A) (A) (A) (A) (A) (A) (A) (A) (A) (A) (A) (A)
                 (A) (A) (A) (A) (A) (A) (A) (A) (A) (A) (A) (A)
                 (A) (A) (A) (A) (A) (A) (A) (A) (A) (A) (A) (A)
                 (A) (A) (A) (A) (A) (A) (A) (A) (A) (A) (A) (A)
                 (A) (A) (A) (A) (A) (A) (A) (A) (A) (A) (A) (A)
                 (A) (A) (A) (A) (A) (A) (A) (A) (A) (A) (A) (A)
                 (A) (A) (A) (A) (A) (A) (A) (A) (A) (A) (A) (A)
                 (A) (A) (A) (A) (A) (A) (A) (A) (A) (A) (A) (A)
                 (A) (A)
 Beta  Orbitals:
       Occupied  (A) (A) (A) (A) (A) (A) (A) (A) (A) (A) (A) (A)
                 (A) (A) (A) (A) (A) (A) (A) (A) (A) (A) (A) (A)
                 (A) (A) (A) (A) (A) (A)
       Virtual   (A) (A) (A) (A) (A) (A) (A) (A) (A) (A) (A) (A)
                 (A) (A) (A) (A) (A) (A) (A) (A) (A) (A) (A) (A)
                 (A) (A) (A) (A) (A) (A) (A) (A) (A) (A) (A) (A)
                 (A) (A) (A) (A) (A) (A) (A) (A) (A) (A) (A) (A)
                 (A) (A) (A) (A) (A) (A) (A) (A) (A) (A) (A) (A)
                 (A) (A) (A) (A) (A) (A) (A) (A) (A) (A) (A) (A)
                 (A) (A) (A) (A) (A) (A) (A) (A) (A) (A) (A) (A)
                 (A) (A) (A) (A) (A) (A) (A) (A) (A) (A) (A) (A)
                 (A) (A) (A) (A) (A) (A) (A) (A) (A) (A) (A) (A)
                 (A) (A) (A) (A) (A) (A) (A) (A) (A) (A) (A) (A)
                 (A) (A) (A) (A) (A) (A) (A) (A) (A) (A) (A) (A)
                 (A) (A) (A) (A) (A) (A) (A) (A) (A) (A) (A) (A)
                 (A) (A) (A) (A) (A) (A) (A) (A) (A) (A) (A) (A)
                 (A) (A) (A) (A) (A) (A) (A) (A) (A) (A) (A) (A)
                 (A) (A) (A) (A) (A) (A) (A) (A) (A) (A) (A) (A)
                 (A) (A) (A) (A) (A) (A) (A) (A) (A) (A) (A) (A)
                 (A) (A) (A)
 The electronic state is 2-A.
 Alpha  occ. eigenvalues --  -19.69246 -19.68493 -19.63650 -10.71580 -10.61979
 Alpha  occ. eigenvalues --  -10.58498 -10.58080 -10.54901  -1.26103  -1.17654
 Alpha  occ. eigenvalues --   -1.14625  -0.90150  -0.89444  -0.78117  -0.74535
 Alpha  occ. eigenvalues --   -0.65585  -0.62496  -0.60699  -0.57679  -0.56693
 Alpha  occ. eigenvalues --   -0.54659  -0.50488  -0.50162  -0.47919  -0.45740
 Alpha  occ. eigenvalues --   -0.43718  -0.41289  -0.40508  -0.38605  -0.38050
 Alpha  occ. eigenvalues --   -0.36770
 Alpha virt. eigenvalues --   -0.02797  -0.00842   0.00377   0.01243   0.01513
 Alpha virt. eigenvalues --    0.02940   0.03574   0.04407   0.05442   0.06039
 Alpha virt. eigenvalues --    0.06728   0.07488   0.08608   0.09429   0.09978
 Alpha virt. eigenvalues --    0.10728   0.10950   0.11666   0.12133   0.12981
 Alpha virt. eigenvalues --    0.13462   0.13909   0.14292   0.14653   0.16406
 Alpha virt. eigenvalues --    0.16692   0.17089   0.17345   0.18222   0.19657
 Alpha virt. eigenvalues --    0.20551   0.22304   0.22507   0.24022   0.24225
 Alpha virt. eigenvalues --    0.25246   0.25347   0.27114   0.28332   0.29799
 Alpha virt. eigenvalues --    0.30398   0.30926   0.31988   0.32669   0.32952
 Alpha virt. eigenvalues --    0.33865   0.34286   0.35907   0.36660   0.37485
 Alpha virt. eigenvalues --    0.39145   0.43876   0.45205   0.46435   0.49526
 Alpha virt. eigenvalues --    0.50664   0.51260   0.53075   0.56791   0.57742
 Alpha virt. eigenvalues --    0.60767   0.61506   0.62862   0.63962   0.66348
 Alpha virt. eigenvalues --    0.67886   0.68407   0.69824   0.70869   0.71912
 Alpha virt. eigenvalues --    0.72831   0.74568   0.76951   0.79616   0.81739
 Alpha virt. eigenvalues --    0.85930   0.87122   0.90860   0.97774   0.99856
 Alpha virt. eigenvalues --    1.04283   1.05857   1.07990   1.09914   1.11012
 Alpha virt. eigenvalues --    1.12744   1.16465   1.17576   1.18544   1.19876
 Alpha virt. eigenvalues --    1.21822   1.23946   1.27986   1.28950   1.31199
 Alpha virt. eigenvalues --    1.32830   1.33528   1.36410   1.39124   1.41079
 Alpha virt. eigenvalues --    1.43071   1.47569   1.48550   1.49724   1.53484
 Alpha virt. eigenvalues --    1.58765   1.60124   1.61281   1.62093   1.63570
 Alpha virt. eigenvalues --    1.64705   1.67719   1.69415   1.70301   1.76547
 Alpha virt. eigenvalues --    1.78562   1.79949   1.81741   1.82565   1.87437
 Alpha virt. eigenvalues --    1.90990   1.94032   2.00208   2.00865   2.03460
 Alpha virt. eigenvalues --    2.08718   2.10124   2.13628   2.20477   2.28769
 Alpha virt. eigenvalues --    2.33002   2.41281   2.48140   2.49388   2.50513
 Alpha virt. eigenvalues --    2.54388   2.57298   2.58215   2.61011   2.62644
 Alpha virt. eigenvalues --    2.63952   2.64673   2.67778   2.72035   2.73339
 Alpha virt. eigenvalues --    2.79783   2.80824   2.82381   2.86309   2.91613
 Alpha virt. eigenvalues --    2.94406   2.97612   3.00606   3.02703   3.05951
 Alpha virt. eigenvalues --    3.07817   3.12260   3.14294   3.15651   3.21236
 Alpha virt. eigenvalues --    3.24547   3.32296   3.33647   3.35966   3.41344
 Alpha virt. eigenvalues --    3.43118   3.53358   3.64106   3.75875   3.80295
 Alpha virt. eigenvalues --    3.85155   3.85567   3.91446   4.05574   4.14860
 Alpha virt. eigenvalues --    4.15732   4.30316   5.05560   5.13027   5.14832
 Alpha virt. eigenvalues --    5.15587   5.28102   5.43518   5.54628   5.68814
 Alpha virt. eigenvalues --    5.97790  23.61581  23.92103  23.94472  24.04177
 Alpha virt. eigenvalues --   25.15328  49.94050  49.98511  50.12319
  Beta  occ. eigenvalues --  -19.69250 -19.66996 -19.63648 -10.71574 -10.61763
  Beta  occ. eigenvalues --  -10.58495 -10.58080 -10.54904  -1.26064  -1.17582
  Beta  occ. eigenvalues --   -1.07697  -0.90091  -0.88953  -0.77906  -0.74311
  Beta  occ. eigenvalues --   -0.65147  -0.62371  -0.58957  -0.57479  -0.54707
  Beta  occ. eigenvalues --   -0.52610  -0.50220  -0.48039  -0.46611  -0.42945
  Beta  occ. eigenvalues --   -0.40539  -0.40314  -0.39382  -0.38138  -0.37069
  Beta virt. eigenvalues --   -0.10942  -0.02775  -0.00804   0.00597   0.01381
  Beta virt. eigenvalues --    0.01567   0.02998   0.03675   0.04558   0.05485
  Beta virt. eigenvalues --    0.06126   0.06788   0.07630   0.08731   0.09456
  Beta virt. eigenvalues --    0.10146   0.10744   0.11094   0.11779   0.12328
  Beta virt. eigenvalues --    0.13170   0.13633   0.14163   0.14348   0.14902
  Beta virt. eigenvalues --    0.16583   0.16769   0.17181   0.17382   0.18323
  Beta virt. eigenvalues --    0.19729   0.20924   0.21996   0.22575   0.23873
  Beta virt. eigenvalues --    0.24205   0.25008   0.25383   0.27150   0.28595
  Beta virt. eigenvalues --    0.29985   0.30542   0.31076   0.32168   0.32743
  Beta virt. eigenvalues --    0.33127   0.34071   0.34543   0.35944   0.36825
  Beta virt. eigenvalues --    0.38411   0.39551   0.43947   0.45328   0.46482
  Beta virt. eigenvalues --    0.49600   0.50727   0.51398   0.53140   0.56894
  Beta virt. eigenvalues --    0.58335   0.60856   0.61622   0.62920   0.64141
  Beta virt. eigenvalues --    0.66890   0.68178   0.68504   0.69855   0.70903
  Beta virt. eigenvalues --    0.71965   0.72907   0.74636   0.76999   0.79880
  Beta virt. eigenvalues --    0.81843   0.85976   0.87215   0.90933   0.97866
  Beta virt. eigenvalues --    1.00481   1.04661   1.06015   1.08938   1.10445
  Beta virt. eigenvalues --    1.11186   1.13901   1.17268   1.18527   1.18717
  Beta virt. eigenvalues --    1.20908   1.22195   1.24024   1.28153   1.29065
  Beta virt. eigenvalues --    1.31279   1.33042   1.33724   1.36626   1.39522
  Beta virt. eigenvalues --    1.41530   1.43140   1.48051   1.49067   1.49891
  Beta virt. eigenvalues --    1.55039   1.58842   1.60224   1.61565   1.62142
  Beta virt. eigenvalues --    1.63929   1.64883   1.67838   1.69792   1.70357
  Beta virt. eigenvalues --    1.76586   1.78417   1.80187   1.81857   1.82722
  Beta virt. eigenvalues --    1.87832   1.91282   1.94105   2.00184   2.01130
  Beta virt. eigenvalues --    2.03444   2.09438   2.10578   2.13784   2.20674
  Beta virt. eigenvalues --    2.29093   2.33035   2.41282   2.48399   2.49502
  Beta virt. eigenvalues --    2.50586   2.54470   2.57300   2.58244   2.61291
  Beta virt. eigenvalues --    2.62895   2.64055   2.64846   2.67886   2.72057
  Beta virt. eigenvalues --    2.73306   2.79830   2.80863   2.82673   2.88686
  Beta virt. eigenvalues --    2.92997   2.95635   2.97677   3.00970   3.02727
  Beta virt. eigenvalues --    3.06001   3.07941   3.12537   3.17365   3.18573
  Beta virt. eigenvalues --    3.21980   3.24622   3.32503   3.33794   3.37320
  Beta virt. eigenvalues --    3.42099   3.43153   3.53362   3.64143   3.75930
  Beta virt. eigenvalues --    3.81375   3.85265   3.86359   3.93094   4.05786
  Beta virt. eigenvalues --    4.15137   4.15792   4.30545   5.07271   5.14750
  Beta virt. eigenvalues --    5.15579   5.21310   5.28111   5.43728   5.56911
  Beta virt. eigenvalues --    5.68842   5.97804  23.61581  23.92160  23.94502
  Beta virt. eigenvalues --   24.04181  25.15331  49.93575  49.98515  50.12318
          Condensed to atoms (all electrons):
               1          2          3          4          5          6
     1  C   25.869186   0.858915 -11.019493  -7.871817  -0.185432  -0.073824
     2  H    0.858915   0.439166  -0.386367  -0.093569  -0.005402  -0.004725
     3  C  -11.019493  -0.386367  13.932392   1.964763   0.023063  -0.262819
     4  C   -7.871817  -0.093569   1.964763  11.612495   0.508920   0.182972
     5  O   -0.185432  -0.005402   0.023063   0.508920   7.978173  -0.078074
     6  O   -0.073824  -0.004725  -0.262819   0.182972  -0.078074   8.245437
     7  C   -0.096494  -0.007784   0.236453  -0.324523  -0.003174   0.231525
     8  C   -0.052609   0.003806  -0.120254   0.233080   0.005277  -0.101711
     9  H    0.057539  -0.001817   0.023460  -0.098216   0.002050  -0.013420
    10  H   -0.098910  -0.001539   0.036216   0.047512   0.001708  -0.081220
    11  H    0.016419   0.000578  -0.007632  -0.005737   0.000681  -0.008360
    12  H   -0.108517  -0.004122   0.091699   0.026047  -0.001488  -0.011117
    13  H    0.019369   0.000312  -0.010611  -0.013189   0.000574   0.016456
    14  O    0.003050   0.000152  -0.001911   0.003835   0.000359   0.015412
    15  H   -0.006356  -0.000062  -0.011413   0.014758  -0.000856   0.005681
               7          8          9         10         11         12
     1  C   -0.096494  -0.052609   0.057539  -0.098910   0.016419  -0.108517
     2  H   -0.007784   0.003806  -0.001817  -0.001539   0.000578  -0.004122
     3  C    0.236453  -0.120254   0.023460   0.036216  -0.007632   0.091699
     4  C   -0.324523   0.233080  -0.098216   0.047512  -0.005737   0.026047
     5  O   -0.003174   0.005277   0.002050   0.001708   0.000681  -0.001488
     6  O    0.231525  -0.101711  -0.013420  -0.081220  -0.008360  -0.011117
     7  C    6.098352  -0.432835   0.438799   0.425908  -0.062088   0.039407
     8  C   -0.432835   5.876056  -0.100637  -0.128053   0.445454   0.316283
     9  H    0.438799  -0.100637   0.575123  -0.054350   0.005979  -0.012118
    10  H    0.425908  -0.128053  -0.054350   0.633620  -0.021128   0.027249
    11  H   -0.062088   0.445454   0.005979  -0.021128   0.518098  -0.051553
    12  H    0.039407   0.316283  -0.012118   0.027249  -0.051553   0.582629
    13  H   -0.064505   0.431320  -0.004757  -0.014856  -0.030475  -0.034991
    14  O    0.010280  -0.006273  -0.004927  -0.008642   0.002449  -0.003962
    15  H    0.011219   0.008382  -0.000569  -0.034073  -0.001254   0.000315
              13         14         15
     1  C    0.019369   0.003050  -0.006356
     2  H    0.000312   0.000152  -0.000062
     3  C   -0.010611  -0.001911  -0.011413
     4  C   -0.013189   0.003835   0.014758
     5  O    0.000574   0.000359  -0.000856
     6  O    0.016456   0.015412   0.005681
     7  C   -0.064505   0.010280   0.011219
     8  C    0.431320  -0.006273   0.008382
     9  H   -0.004757  -0.004927  -0.000569
    10  H   -0.014856  -0.008642  -0.034073
    11  H   -0.030475   0.002449  -0.001254
    12  H   -0.034991  -0.003962   0.000315
    13  H    0.535558   0.000097   0.001786
    14  O    0.000097   7.979262   0.275659
    15  H    0.001786   0.275659   0.471206
          Atomic-Atomic Spin Densities.
               1          2          3          4          5          6
     1  C   -0.152496   0.003086   0.100554   0.069800   0.001688  -0.006301
     2  H    0.003086   0.000352  -0.002774  -0.000673   0.000076  -0.000288
     3  C    0.100554  -0.002774  -0.074892  -0.022889  -0.000743   0.004617
     4  C    0.069800  -0.000673  -0.022889  -0.063088   0.001102   0.005484
     5  O    0.001688   0.000076  -0.000743   0.001102   0.000241   0.000144
     6  O   -0.006301  -0.000288   0.004617   0.005484   0.000144   0.011047
     7  C   -0.036473  -0.000062  -0.004993   0.037666  -0.001162  -0.034983
     8  C    0.043036   0.000481  -0.009230  -0.033675   0.001122   0.003696
     9  H    0.000728  -0.000164  -0.000141  -0.000530   0.000165   0.000982
    10  H   -0.006109   0.000042  -0.004123   0.003329  -0.001295  -0.011064
    11  H   -0.000565  -0.000006   0.000236   0.001072   0.000093   0.000396
    12  H   -0.006693  -0.000085   0.002543   0.003014  -0.000318   0.000797
    13  H   -0.001340  -0.000015   0.000399   0.001300  -0.000015   0.000227
    14  O    0.006846   0.000076   0.003300  -0.004878   0.000203   0.024425
    15  H   -0.001098  -0.000016  -0.000642   0.000341  -0.000062  -0.001924
               7          8          9         10         11         12
     1  C   -0.036473   0.043036   0.000728  -0.006109  -0.000565  -0.006693
     2  H   -0.000062   0.000481  -0.000164   0.000042  -0.000006  -0.000085
     3  C   -0.004993  -0.009230  -0.000141  -0.004123   0.000236   0.002543
     4  C    0.037666  -0.033675  -0.000530   0.003329   0.001072   0.003014
     5  O   -0.001162   0.001122   0.000165  -0.001295   0.000093  -0.000318
     6  O   -0.034983   0.003696   0.000982  -0.011064   0.000396   0.000797
     7  C    0.243125  -0.006067  -0.012458   0.066297  -0.004515   0.001212
     8  C   -0.006067  -0.015885   0.003038  -0.007719   0.001884   0.000717
     9  H   -0.012458   0.003038   0.000778   0.006307  -0.000409  -0.000401
    10  H    0.066297  -0.007719   0.006307  -0.029244   0.001484  -0.001838
    11  H   -0.004515   0.001884  -0.000409   0.001484   0.000681  -0.000296
    12  H    0.001212   0.000717  -0.000401  -0.001838  -0.000296   0.010443
    13  H   -0.002981   0.003338  -0.000230  -0.001083  -0.000371   0.000040
    14  O   -0.080390   0.020920   0.001884  -0.053658   0.001249  -0.001348
    15  H    0.007401  -0.002452   0.000003   0.002361  -0.000266   0.000158
              13         14         15
     1  C   -0.001340   0.006846  -0.001098
     2  H   -0.000015   0.000076  -0.000016
     3  C    0.000399   0.003300  -0.000642
     4  C    0.001300  -0.004878   0.000341
     5  O   -0.000015   0.000203  -0.000062
     6  O    0.000227   0.024425  -0.001924
     7  C   -0.002981  -0.080390   0.007401
     8  C    0.003338   0.020920  -0.002452
     9  H   -0.000230   0.001884   0.000003
    10  H   -0.001083  -0.053658   0.002361
    11  H   -0.000371   0.001249  -0.000266
    12  H    0.000040  -0.001348   0.000158
    13  H    0.000226   0.000338   0.000026
    14  O    0.000338   0.941258   0.009188
    15  H    0.000026   0.009188  -0.030741
 Mulliken charges and spin densities:
               1          2
     1  C   -1.311027   0.014664
     2  H    0.202457   0.000031
     3  C    1.512453  -0.008777
     4  C   -0.187331  -0.002626
     5  O   -0.246379   0.001238
     6  O   -0.062214  -0.002745
     7  C   -0.500542   0.171617
     8  C   -0.377286   0.003203
     9  H    0.187858  -0.000449
    10  H    0.270556  -0.036313
    11  H    0.198569   0.000666
    12  H    0.144239   0.007944
    13  H    0.167909  -0.000143
    14  O   -0.264840   0.869414
    15  H    0.265577  -0.017723
 Sum of Mulliken charges =  -0.00000   1.00000
 Mulliken charges and spin densities with hydrogens summed into heavy atoms:
               1          2
     1  C   -1.108570   0.014695
     3  C    1.512453  -0.008777
     4  C   -0.187331  -0.002626
     5  O   -0.246379   0.001238
     6  O   -0.062214  -0.002745
     7  C   -0.042127   0.134855
     8  C    0.133430   0.011669
    14  O    0.000737   0.851691
 APT charges:
               1
     1  C   -0.171397
     2  H    0.234442
     3  C   -0.290953
     4  C    1.568854
     5  O   -0.845369
     6  O   -0.982177
     7  C    0.706545
     8  C   -0.102574
     9  H   -0.047242
    10  H   -0.282591
    11  H    0.025715
    12  H    0.010945
    13  H    0.020896
    14  O   -0.170869
    15  H    0.325776
 Sum of APT charges =   0.00000
 APT charges with hydrogens summed into heavy atoms:
               1
     1  C    0.063045
     3  C   -0.290953
     4  C    1.568854
     5  O   -0.845369
     6  O   -0.982177
     7  C    0.376711
     8  C   -0.045018
    14  O    0.154907
 Electronic spatial extent (au):  <R**2>=           1193.9415
 Charge=             -0.0000 electrons
 Dipole moment (field-independent basis, Debye):
    X=              0.4528    Y=              3.6045    Z=             -0.6904  Tot=              3.6978
 Quadrupole moment (field-independent basis, Debye-Ang):
   XX=            -50.9507   YY=            -46.6299   ZZ=            -48.0862
   XY=              9.7603   XZ=             -5.1806   YZ=              0.3802
 Traceless Quadrupole moment (field-independent basis, Debye-Ang):
   XX=             -2.3950   YY=              1.9257   ZZ=              0.4694
   XY=              9.7603   XZ=             -5.1806   YZ=              0.3802
 Octapole moment (field-independent basis, Debye-Ang**2):
  XXX=             20.7634  YYY=              5.4924  ZZZ=              3.1930  XYY=            -11.3553
  XXY=             13.2986  XXZ=             -1.3299  XZZ=             -0.0842  YZZ=             -0.4682
  YYZ=             -8.3012  XYZ=             -3.8325
 Hexadecapole moment (field-independent basis, Debye-Ang**3):
 XXXX=          -1011.9118 YYYY=           -411.8643 ZZZZ=           -159.1153 XXXY=             90.8165
 XXXZ=            -42.9482 YYYX=             50.2474 YYYZ=             -1.5697 ZZZX=              2.6375
 ZZZY=             -4.3422 XXYY=           -178.0413 XXZZ=           -192.6000 YYZZ=            -93.1555
 XXYZ=            -17.9460 YYXZ=            -12.6935 ZZXY=              3.9300
 N-N= 3.499566653346D+02 E-N=-1.684105403075D+03  KE= 4.188825825077D+02
  Exact polarizability:  89.384  10.265  78.274  -0.530  -4.710  53.497
 Approx polarizability:  89.503  11.469  95.951  -2.183 -12.079  62.531
                          Isotropic Fermi Contact Couplings
        Atom                 a.u.       MegaHertz       Gauss      10(-4) cm-1
     1  C(13)              0.00082       0.91771       0.32746       0.30611
     2  H(1)              -0.00005      -0.21330      -0.07611      -0.07115
     3  C(13)             -0.00040      -0.45331      -0.16175      -0.15121
     4  C(13)              0.00545       6.12398       2.18519       2.04274
     5  O(17)             -0.00004       0.02632       0.00939       0.00878
     6  O(17)             -0.00078       0.47255       0.16862       0.15762
     7  C(13)              0.09023     101.43354      36.19401      33.83459
     8  C(13)             -0.00234      -2.63320      -0.93959      -0.87834
     9  H(1)               0.00070       3.14875       1.12355       1.05031
    10  H(1)              -0.00528     -23.60209      -8.42181      -7.87281
    11  H(1)               0.00060       2.70159       0.96399       0.90115
    12  H(1)               0.00438      19.57023       6.98315       6.52793
    13  H(1)               0.00036       1.61410       0.57595       0.53840
    14  O(17)              0.12485     -75.68191     -27.00519     -25.24477
    15  H(1)              -0.01448     -64.70887     -23.08973     -21.58455
 --------------------------------------------------------
       Center         ----  Spin Dipole Couplings  ----
                      3XX-RR        3YY-RR        3ZZ-RR
 --------------------------------------------------------
     1   Atom        0.004387     -0.002389     -0.001999
     2   Atom        0.001116     -0.000336     -0.000780
     3   Atom        0.003475     -0.001306     -0.002168
     4   Atom        0.005755     -0.001462     -0.004293
     5   Atom        0.000148     -0.001502      0.001354
     6   Atom        0.017417     -0.017643      0.000226
     7   Atom        0.183157     -0.086789     -0.096367
     8   Atom       -0.003249      0.000013      0.003236
     9   Atom        0.004092     -0.009120      0.005028
    10   Atom        0.094546     -0.024450     -0.070096
    11   Atom       -0.002554     -0.002919      0.005473
    12   Atom        0.000886     -0.000721     -0.000165
    13   Atom       -0.002589      0.005263     -0.002674
    14   Atom        2.065920     -0.438689     -1.627230
    15   Atom       -0.009031      0.100098     -0.091067
 --------------------------------------------------------
                        XY            XZ            YZ
 --------------------------------------------------------
     1   Atom       -0.000827      0.001456     -0.000440
     2   Atom        0.000814     -0.000247     -0.000215
     3   Atom        0.000506     -0.000217     -0.000302
     4   Atom       -0.004293      0.000556      0.000133
     5   Atom       -0.004523     -0.003914      0.002290
     6   Atom        0.007192      0.012654      0.009840
     7   Atom        0.113904      0.096512      0.035440
     8   Atom        0.006391      0.006855      0.010414
     9   Atom        0.011567     -0.008393     -0.008466
    10   Atom        0.091821      0.036430      0.013386
    11   Atom        0.002015      0.002072      0.004648
    12   Atom        0.002653      0.002380      0.003059
    13   Atom        0.001219      0.000604      0.004702
    14   Atom        2.203573      0.573921      0.336455
    15   Atom       -0.068085      0.046608     -0.068574
 --------------------------------------------------------


 ---------------------------------------------------------------------------------
              Anisotropic Spin Dipole Couplings in Principal Axis System
 ---------------------------------------------------------------------------------

       Atom             a.u.   MegaHertz   Gauss  10(-4) cm-1        Axes

              Baa    -0.0027    -0.359    -0.128    -0.120 -0.0242  0.8142  0.5800
     1 C(13)  Bbb    -0.0021    -0.287    -0.102    -0.096 -0.2471 -0.5671  0.7857
              Bcc     0.0048     0.646     0.231     0.216  0.9687 -0.1243  0.2149
 
              Baa    -0.0009    -0.467    -0.166    -0.156 -0.0899  0.4839  0.8705
     2 H(1)   Bbb    -0.0006    -0.346    -0.124    -0.116 -0.4226  0.7729 -0.4733
              Bcc     0.0015     0.813     0.290     0.271  0.9018  0.4104 -0.1350
 
              Baa    -0.0023    -0.304    -0.108    -0.101  0.0100  0.2957  0.9552
     3 C(13)  Bbb    -0.0013    -0.171    -0.061    -0.057 -0.1144  0.9493 -0.2927
              Bcc     0.0035     0.475     0.169     0.158  0.9934  0.1064 -0.0433
 
              Baa    -0.0044    -0.596    -0.213    -0.199 -0.1756 -0.2953  0.9391
     4 C(13)  Bbb    -0.0033    -0.447    -0.160    -0.149  0.3843  0.8577  0.3416
              Bcc     0.0078     1.043     0.372     0.348  0.9064 -0.4209  0.0371
 
              Baa    -0.0054     0.390     0.139     0.130  0.6894  0.7065  0.1601
     5 O(17)  Bbb    -0.0019     0.138     0.049     0.046  0.3488 -0.5175  0.7814
              Bcc     0.0073    -0.529    -0.189    -0.176  0.6349 -0.4828 -0.6032
 
              Baa    -0.0221     1.597     0.570     0.533 -0.0459  0.9232 -0.3815
     6 O(17)  Bbb    -0.0048     0.348     0.124     0.116 -0.5433  0.2974  0.7851
              Bcc     0.0269    -1.944    -0.694    -0.649  0.8383  0.2433  0.4880
 
              Baa    -0.1284   -17.235    -6.150    -5.749 -0.3235  0.9437 -0.0692
     7 C(13)  Bbb    -0.1265   -16.968    -6.055    -5.660 -0.2879 -0.0285  0.9572
              Bcc     0.2549    34.204    12.205    11.409  0.9014  0.3296  0.2809
 
              Baa    -0.0090    -1.209    -0.431    -0.403 -0.2336  0.8013 -0.5508
     8 C(13)  Bbb    -0.0076    -1.017    -0.363    -0.339  0.8735 -0.0759 -0.4808
              Bcc     0.0166     2.225     0.794     0.742  0.4270  0.5934  0.6823
 
              Baa    -0.0164    -8.759    -3.126    -2.922 -0.4248  0.8865  0.1837
     9 H(1)   Bbb    -0.0035    -1.851    -0.660    -0.617  0.6291  0.1431  0.7640
              Bcc     0.0199    10.610     3.786     3.539  0.6510  0.4401 -0.6185
 
              Baa    -0.0812   -43.350   -15.468   -14.460 -0.4147  0.4897  0.7670
    10 H(1)   Bbb    -0.0699   -37.286   -13.305   -12.437 -0.2742  0.7364 -0.6184
              Bcc     0.1511    80.636    28.773    26.897  0.8677  0.4668  0.1711
 
              Baa    -0.0054    -2.892    -1.032    -0.965 -0.3975  0.8689 -0.2951
    11 H(1)   Bbb    -0.0028    -1.497    -0.534    -0.499  0.8841  0.2766 -0.3766
              Bcc     0.0082     4.389     1.566     1.464  0.2456  0.4106  0.8781
 
              Baa    -0.0036    -1.903    -0.679    -0.635 -0.1443  0.7839 -0.6039
    12 H(1)   Bbb    -0.0018    -0.986    -0.352    -0.329  0.7732 -0.2916 -0.5632
              Bcc     0.0054     2.889     1.031     0.964  0.6176  0.5482  0.5640
 
              Baa    -0.0049    -2.593    -0.925    -0.865 -0.0163 -0.4196  0.9076
    13 H(1)   Bbb    -0.0028    -1.478    -0.527    -0.493  0.9911 -0.1266 -0.0407
              Bcc     0.0076     4.070     1.452     1.358  0.1320  0.8988  0.4180
 
              Baa    -1.7216   124.574    44.451    41.553 -0.4478  0.8455 -0.2910
    14 O(17)  Bbb    -1.7140   124.023    44.255    41.370 -0.2553  0.1910  0.9478
              Bcc     3.4356  -248.597   -88.706   -82.923  0.8569  0.4987  0.1303
 
              Baa    -0.1197   -63.840   -22.780   -21.295 -0.2664  0.2109  0.9405
    15 H(1)   Bbb    -0.0400   -21.356    -7.620    -7.124  0.8634  0.4859  0.1356
              Bcc     0.1597    85.196    30.400    28.418 -0.4284  0.8482 -0.3116
 

 ---------------------------------------------------------------------------------

 Calling FoFJK, ICntrl=    100127 FMM=F ISym2X=0 I1Cent= 0 IOpClX= 1 NMat=1 NMatS=1 NMatT=0.
 Full mass-weighted force constant matrix:
 Low frequencies --- -240.9649 -108.8461  -53.3074  -35.6078   -9.7782    0.0005
 Low frequencies ---    0.0007    0.0010   38.9394
 ******    2 imaginary frequencies (negative Signs) ****** 
 Diagonal vibrational polarizability:
     1854.1071763     645.5200902     184.1627355
 Harmonic frequencies (cm**-1), IR intensities (KM/Mole), Raman scattering
 activities (A**4/AMU), depolarization ratios for plane and unpolarized
 incident light, reduced masses (AMU), force constants (mDyne/A),
 and normal coordinates:
                      1                      2                      3
                      A                      A                      A
 Frequencies --   -240.9548              -106.6192                14.4975
 Red. masses --      2.7250                 3.8911                 5.8800
 Frc consts  --      0.0932                 0.0261                 0.0007
 IR Inten    --     36.0114                 0.2717                19.4373
  Atom  AN      X      Y      Z        X      Y      Z        X      Y      Z
     1   6    -0.04   0.02  -0.02     0.05   0.03   0.07     0.01   0.02   0.20
     2   1    -0.06   0.03  -0.02     0.04   0.05   0.11     0.05   0.03   0.32
     3   6    -0.04   0.01  -0.02     0.06   0.01   0.04    -0.03  -0.00   0.08
     4   6     0.01  -0.01   0.01     0.06  -0.02  -0.01    -0.09  -0.02  -0.06
     5   8     0.04   0.01  -0.01     0.06  -0.01   0.00    -0.15  -0.08  -0.17
     6   8     0.01  -0.05   0.08     0.06  -0.04  -0.06    -0.08   0.06  -0.04
     7   6    -0.13  -0.16   0.06     0.05  -0.07  -0.14    -0.04   0.05  -0.09
     8   6    -0.01  -0.01  -0.05    -0.22  -0.12  -0.13     0.00   0.13  -0.15
     9   1    -0.45  -0.26  -0.20     0.18  -0.00  -0.02    -0.09  -0.03  -0.17
    10   1    -0.35  -0.39   0.39     0.14  -0.14  -0.37    -0.11   0.03  -0.02
    11   1     0.13   0.06   0.09    -0.32  -0.19  -0.24     0.01   0.19  -0.11
    12   1     0.03   0.07  -0.23    -0.30  -0.07   0.04     0.02   0.14  -0.20
    13   1    -0.09  -0.07  -0.08    -0.24  -0.15  -0.19     0.01   0.12  -0.20
    14   8     0.17   0.19  -0.05    -0.07   0.20   0.21     0.31  -0.14   0.23
    15   1    -0.14   0.01  -0.11    -0.20   0.15   0.27     0.52  -0.03   0.24
                      4                      5                      6
                      A                      A                      A
 Frequencies --     44.0523                87.6328               159.2621
 Red. masses --      3.6033                 6.0694                 3.1615
 Frc consts  --      0.0041                 0.0275                 0.0472
 IR Inten    --      3.4090                 6.6167                 2.7225
  Atom  AN      X      Y      Z        X      Y      Z        X      Y      Z
     1   6    -0.06   0.11   0.17     0.07  -0.02   0.05     0.32  -0.14   0.05
     2   1    -0.09   0.17   0.25     0.09  -0.02   0.07     0.56  -0.31   0.12
     3   6    -0.02   0.04   0.09     0.06  -0.02   0.02     0.00   0.07  -0.03
     4   6     0.01  -0.01   0.00     0.06  -0.03  -0.00    -0.03   0.09  -0.04
     5   8     0.05  -0.00  -0.01     0.05  -0.12  -0.27     0.02   0.11  -0.02
     6   8     0.00  -0.08  -0.06     0.09   0.08   0.35    -0.03   0.01  -0.05
     7   6    -0.01  -0.08  -0.06     0.03  -0.02   0.08    -0.13  -0.03   0.02
     8   6     0.26   0.05  -0.13    -0.14   0.19  -0.10    -0.04  -0.02   0.02
     9   1    -0.13  -0.19  -0.20     0.11  -0.11   0.09    -0.27  -0.02  -0.07
    10   1    -0.08  -0.06   0.16     0.13  -0.13   0.01    -0.19  -0.09   0.17
    11   1     0.38   0.17   0.01    -0.18   0.31  -0.05     0.20  -0.09   0.14
    12   1     0.33   0.05  -0.34    -0.20   0.34  -0.09    -0.02   0.14  -0.18
    13   1     0.24   0.05  -0.13    -0.19   0.08  -0.33    -0.24  -0.12   0.12
    14   8    -0.22  -0.01   0.05    -0.16  -0.07  -0.10    -0.07  -0.06   0.04
    15   1    -0.26  -0.07  -0.05    -0.31  -0.07   0.13    -0.06  -0.12  -0.14
                      7                      8                      9
                      A                      A                      A
 Frequencies --    221.5073               229.3541               260.1190
 Red. masses --      1.1622                 1.1299                 4.6346
 Frc consts  --      0.0336                 0.0350                 0.1848
 IR Inten    --      2.9592               107.1472                 0.8539
  Atom  AN      X      Y      Z        X      Y      Z        X      Y      Z
     1   6     0.03  -0.02   0.01     0.02  -0.00   0.03     0.00  -0.08  -0.21
     2   1     0.09  -0.06   0.02     0.05  -0.01   0.08    -0.01  -0.28  -0.70
     3   6    -0.04   0.03  -0.02    -0.03   0.01  -0.04     0.00   0.17   0.43
     4   6    -0.02   0.02  -0.00    -0.01   0.00  -0.02    -0.01   0.06   0.14
     5   8     0.03   0.04  -0.02     0.01   0.02   0.00    -0.00  -0.02  -0.14
     6   8    -0.03  -0.03   0.03    -0.02  -0.01   0.00    -0.03  -0.03  -0.05
     7   6    -0.01  -0.03   0.01    -0.01  -0.01   0.00    -0.01  -0.02  -0.03
     8   6     0.01  -0.01  -0.01     0.02  -0.02   0.01     0.03  -0.03  -0.02
     9   1    -0.01  -0.05   0.00    -0.01  -0.01   0.00    -0.01  -0.02  -0.03
    10   1    -0.03  -0.01   0.01    -0.00  -0.01  -0.03    -0.01  -0.00  -0.03
    11   1    -0.46   0.21  -0.19    -0.00   0.00   0.01     0.03  -0.04  -0.02
    12   1     0.05  -0.45   0.30     0.04  -0.08   0.02     0.04  -0.05  -0.02
    13   1     0.51   0.26  -0.18     0.07   0.02   0.02     0.04  -0.01   0.01
    14   8     0.00   0.00   0.01     0.02  -0.01  -0.06     0.01   0.00  -0.02
    15   1     0.04  -0.04  -0.14    -0.25   0.21   0.93    -0.07   0.07   0.29
                     10                     11                     12
                      A                      A                      A
 Frequencies --    330.1781               401.8602               553.0735
 Red. masses --      2.9867                 3.4698                 5.0654
 Frc consts  --      0.1918                 0.3301                 0.9129
 IR Inten    --      8.5875                 7.7154                 5.6826
  Atom  AN      X      Y      Z        X      Y      Z        X      Y      Z
     1   6     0.03   0.07  -0.03     0.03   0.06  -0.01    -0.14  -0.19   0.08
     2   1    -0.13   0.18  -0.08     0.03   0.07  -0.00    -0.23  -0.13   0.06
     3   6     0.23  -0.06   0.04     0.04   0.04  -0.03    -0.04  -0.22   0.08
     4   6     0.10   0.01  -0.01    -0.02   0.08   0.03     0.01  -0.05   0.03
     5   8    -0.12  -0.08   0.04    -0.15   0.01  -0.02     0.29   0.05  -0.04
     6   8     0.10   0.10  -0.11     0.01   0.14   0.20     0.01   0.18   0.01
     7   6    -0.14   0.00   0.03    -0.01  -0.04  -0.16    -0.16   0.18  -0.16
     8   6    -0.05   0.03   0.03     0.10  -0.23  -0.05    -0.02  -0.00   0.00
     9   1    -0.45   0.06  -0.15     0.04  -0.11  -0.17    -0.32   0.14  -0.27
    10   1    -0.25  -0.22   0.34    -0.00  -0.11  -0.17    -0.23  -0.01   0.07
    11   1    -0.26   0.17  -0.02     0.23  -0.49  -0.12     0.07  -0.25  -0.09
    12   1    -0.00  -0.22   0.13     0.19  -0.45  -0.08     0.08  -0.27  -0.01
    13   1     0.22   0.17  -0.04     0.11  -0.08   0.36     0.04   0.17   0.40
    14   8    -0.04  -0.05   0.01    -0.00  -0.01   0.00    -0.01  -0.00  -0.00
    15   1    -0.25  -0.10   0.14    -0.04  -0.07  -0.10     0.05   0.04   0.01
                     13                     14                     15
                      A                      A                      A
 Frequencies --    607.3136               653.5984               734.7244
 Red. masses --      2.1791                 1.7756                 1.3190
 Frc consts  --      0.4735                 0.4469                 0.4195
 IR Inten    --     52.2209               162.3610                35.1071
  Atom  AN      X      Y      Z        X      Y      Z        X      Y      Z
     1   6     0.03   0.05  -0.02     0.01   0.01  -0.00    -0.12   0.09  -0.03
     2   1    -0.17   0.19  -0.06     0.17  -0.10   0.02     0.79  -0.55   0.19
     3   6     0.21  -0.09   0.02    -0.12   0.10  -0.02     0.06  -0.04   0.01
     4   6    -0.03   0.03  -0.01     0.08  -0.05   0.01    -0.01  -0.00  -0.00
     5   8     0.03   0.06  -0.03    -0.01  -0.10   0.04     0.01   0.00   0.00
     6   8    -0.11  -0.07   0.05     0.08   0.04  -0.00    -0.01  -0.00   0.00
     7   6    -0.09  -0.04   0.02    -0.04  -0.00  -0.01    -0.01   0.00  -0.00
     8   6    -0.01  -0.01  -0.01    -0.01  -0.01  -0.01    -0.00   0.00   0.00
     9   1     0.08  -0.07   0.11    -0.17   0.00  -0.09     0.02   0.01   0.03
    10   1    -0.05   0.17  -0.16    -0.08   0.02   0.10     0.00   0.00  -0.04
    11   1     0.05   0.07   0.08    -0.01  -0.02  -0.02     0.01   0.02   0.02
    12   1     0.05  -0.04  -0.13    -0.00  -0.04  -0.00     0.02  -0.01  -0.03
    13   1     0.02   0.01  -0.01     0.00   0.01   0.01     0.01   0.01   0.01
    14   8    -0.04   0.02  -0.02    -0.06   0.01  -0.02     0.00   0.00   0.00
    15   1     0.72   0.45   0.09     0.77   0.49   0.11    -0.02  -0.01  -0.01
                     16                     17                     18
                      A                      A                      A
 Frequencies --    757.0674               765.2657               776.9305
 Red. masses --      2.0983                10.4309                 1.2935
 Frc consts  --      0.7086                 3.5991                 0.4600
 IR Inten    --     25.0044                16.7675                42.3813
  Atom  AN      X      Y      Z        X      Y      Z        X      Y      Z
     1   6    -0.07  -0.07   0.03     0.03   0.06   0.07     0.00  -0.04  -0.14
     2   1    -0.02  -0.11   0.05     0.05  -0.04  -0.14     0.03   0.36   0.91
     3   6     0.00  -0.10   0.01    -0.02  -0.08  -0.34     0.00   0.02   0.04
     4   6    -0.02   0.12   0.03     0.07   0.22   0.75     0.00   0.01   0.04
     5   8    -0.06   0.11  -0.05     0.01  -0.12  -0.19     0.00  -0.01  -0.01
     6   8     0.05   0.03  -0.03    -0.04  -0.06  -0.14    -0.01  -0.01  -0.00
     7   6     0.15  -0.05   0.05    -0.06   0.02  -0.02     0.00   0.01  -0.01
     8   6     0.04  -0.04  -0.02    -0.02   0.00   0.00     0.00   0.00   0.00
     9   1    -0.19  -0.19  -0.23     0.04   0.12   0.09    -0.02  -0.02  -0.03
    10   1    -0.05  -0.01   0.50     0.03   0.00  -0.20    -0.01   0.01   0.03
    11   1    -0.17  -0.16  -0.23     0.06   0.10   0.11    -0.01  -0.03  -0.02
    12   1    -0.18   0.22   0.33     0.07  -0.07  -0.17    -0.01   0.01   0.03
    13   1    -0.13  -0.23  -0.23     0.07   0.08   0.05    -0.01   0.00   0.02
    14   8    -0.03  -0.01  -0.01     0.01   0.01   0.00     0.00  -0.00  -0.00
    15   1     0.25   0.17   0.07    -0.07  -0.04   0.00    -0.01  -0.00   0.00
                     19                     20                     21
                      A                      A                      A
 Frequencies --    782.6004               961.4005              1115.6190
 Red. masses --      1.8394                 2.2345                 3.2675
 Frc consts  --      0.6637                 1.2168                 2.3960
 IR Inten    --      4.9795                19.7639                33.1411
  Atom  AN      X      Y      Z        X      Y      Z        X      Y      Z
     1   6    -0.06  -0.09   0.02    -0.03  -0.04   0.02    -0.03  -0.04   0.02
     2   1    -0.08  -0.03   0.14    -0.03  -0.05   0.02    -0.03  -0.06   0.02
     3   6    -0.05  -0.05   0.03    -0.02  -0.03   0.01    -0.02  -0.02   0.01
     4   6     0.02   0.08  -0.03     0.06   0.08  -0.03     0.15   0.09  -0.04
     5   8    -0.05   0.06  -0.02    -0.07   0.05  -0.01    -0.06   0.02  -0.00
     6   8     0.11   0.07  -0.04     0.09  -0.12   0.01     0.07  -0.16   0.05
     7   6    -0.04  -0.09   0.07     0.01  -0.07  -0.09    -0.14   0.20   0.14
     8   6    -0.01  -0.06  -0.00    -0.06   0.19   0.06     0.04  -0.04  -0.19
     9   1     0.17   0.22   0.35     0.07  -0.28  -0.16     0.05   0.28   0.32
    10   1     0.16  -0.14  -0.39     0.08  -0.20  -0.19    -0.12   0.44   0.08
    11   1     0.10   0.36   0.31     0.13  -0.16  -0.00     0.01  -0.41  -0.42
    12   1     0.15  -0.11  -0.40     0.04  -0.16   0.13     0.01  -0.17  -0.01
    13   1     0.17  -0.00  -0.20    -0.03   0.41   0.67    -0.11  -0.07   0.02
    14   8     0.00   0.00  -0.00    -0.00   0.00  -0.00     0.01   0.01   0.00
    15   1     0.08   0.04  -0.02     0.07   0.04  -0.00    -0.11  -0.06   0.00
                     22                     23                     24
                      A                      A                      A
 Frequencies --   1127.5924              1161.9194              1246.0613
 Red. masses --      2.1111                 2.1851                 3.1974
 Frc consts  --      1.5815                 1.7381                 2.9250
 IR Inten    --     40.9263                44.7482               418.4262
  Atom  AN      X      Y      Z        X      Y      Z        X      Y      Z
     1   6     0.01   0.02  -0.01     0.00   0.00  -0.00    -0.04  -0.05   0.02
     2   1     0.01   0.03  -0.01    -0.01   0.01  -0.00    -0.02  -0.08   0.03
     3   6     0.01   0.01  -0.00     0.01  -0.00   0.00    -0.03  -0.00   0.00
     4   6    -0.07  -0.04   0.01    -0.05   0.01   0.00     0.31   0.10  -0.06
     5   8     0.02  -0.00   0.00    -0.03   0.03  -0.01    -0.01  -0.03   0.01
     6   8    -0.04   0.05  -0.05     0.05  -0.13   0.06    -0.19   0.05   0.01
     7   6     0.13  -0.01   0.18     0.10   0.18  -0.10     0.11  -0.07  -0.04
     8   6    -0.10   0.02  -0.14    -0.10  -0.08   0.05    -0.09  -0.04   0.02
     9   1     0.00  -0.03   0.09    -0.24   0.29  -0.25     0.07  -0.14  -0.11
    10   1     0.13  -0.23   0.28     0.00  -0.19   0.38    -0.22   0.62   0.31
    11   1     0.27  -0.29  -0.08     0.05   0.29   0.35     0.12   0.19   0.29
    12   1     0.15  -0.51  -0.31     0.09  -0.08  -0.44     0.02  -0.08  -0.22
    13   1     0.07   0.28   0.35     0.24   0.07  -0.16     0.15   0.12   0.01
    14   8    -0.01  -0.01  -0.00    -0.01  -0.00  -0.00     0.00  -0.00   0.00
    15   1     0.06   0.04   0.02     0.05   0.04   0.02    -0.13  -0.07  -0.00
                     25                     26                     27
                      A                      A                      A
 Frequencies --   1316.9923              1379.3068              1420.6744
 Red. masses --      1.3870                 1.2288                 1.3456
 Frc consts  --      1.4174                 1.3774                 1.6002
 IR Inten    --    272.7935                 6.9758                24.0853
  Atom  AN      X      Y      Z        X      Y      Z        X      Y      Z
     1   6     0.01   0.01  -0.01     0.00   0.01  -0.00    -0.00  -0.00   0.00
     2   1     0.01   0.02  -0.01     0.00   0.01  -0.00    -0.00  -0.00  -0.00
     3   6     0.00   0.00  -0.00     0.00  -0.00  -0.00    -0.00   0.00  -0.00
     4   6    -0.11  -0.03   0.02    -0.02  -0.01   0.01    -0.00   0.00  -0.00
     5   8     0.01   0.01  -0.00     0.00   0.01  -0.00     0.00  -0.00   0.00
     6   8     0.11   0.01  -0.01     0.00  -0.00   0.02     0.01   0.00  -0.01
     7   6    -0.03  -0.03  -0.03     0.02  -0.10  -0.07    -0.01   0.06   0.06
     8   6    -0.05  -0.01   0.00     0.01   0.00  -0.07     0.01  -0.11  -0.10
     9   1     0.38  -0.38   0.08    -0.04   0.72   0.32    -0.07  -0.33  -0.18
    10   1    -0.29   0.67   0.31    -0.15   0.08   0.28     0.11  -0.01  -0.17
    11   1     0.02   0.07   0.09     0.06   0.17   0.08    -0.01   0.48   0.24
    12   1     0.02  -0.08  -0.12    -0.13   0.08   0.27    -0.25   0.31   0.25
    13   1     0.02   0.05   0.04    -0.04   0.11   0.32     0.08   0.16   0.50
    14   8     0.01   0.00   0.00     0.00   0.00   0.00    -0.00  -0.00   0.00
    15   1    -0.06  -0.03   0.01     0.01   0.01   0.01    -0.00  -0.01  -0.01
                     28                     29                     30
                      A                      A                      A
 Frequencies --   1473.3177              1487.6386              1501.8235
 Red. masses --      1.0902                 1.0386                 1.0703
 Frc consts  --      1.3943                 1.3542                 1.4223
 IR Inten    --     41.4853                 9.8500                16.9164
  Atom  AN      X      Y      Z        X      Y      Z        X      Y      Z
     1   6    -0.00  -0.01   0.00     0.00  -0.00   0.00    -0.00  -0.00   0.00
     2   1    -0.00  -0.01   0.00    -0.00   0.00   0.00    -0.00  -0.00   0.00
     3   6    -0.00   0.00  -0.00    -0.00   0.00  -0.00    -0.00   0.00  -0.00
     4   6     0.03   0.01  -0.01    -0.00   0.00  -0.00     0.01   0.01  -0.00
     5   8    -0.00  -0.01   0.00     0.00  -0.00   0.00    -0.00  -0.00   0.00
     6   8    -0.03   0.01  -0.01     0.00   0.00  -0.00    -0.01   0.00  -0.00
     7   6    -0.03   0.03  -0.03    -0.03  -0.00  -0.00    -0.03   0.05  -0.03
     8   6     0.03  -0.02   0.01    -0.04  -0.02   0.01    -0.01   0.02  -0.03
     9   1     0.52  -0.12   0.26     0.12  -0.01   0.10     0.30  -0.14   0.09
    10   1    -0.08  -0.46   0.36    -0.03  -0.10   0.05    -0.04  -0.27   0.16
    11   1    -0.34   0.10  -0.16     0.27  -0.39  -0.03     0.45   0.08   0.32
    12   1     0.06   0.16  -0.23    -0.20   0.47   0.05    -0.08  -0.33   0.49
    13   1    -0.07  -0.01   0.21     0.58   0.32  -0.17    -0.10  -0.14  -0.28
    14   8    -0.00   0.00  -0.00    -0.00   0.00  -0.00    -0.00   0.00  -0.00
    15   1     0.05   0.03   0.01     0.01   0.01   0.00     0.03   0.02   0.00
                     31                     32                     33
                      A                      A                      A
 Frequencies --   1871.7795              2253.1138              2511.6799
 Red. masses --     12.8696                 5.7246                 1.1015
 Frc consts  --     26.5658                17.1224                 4.0941
 IR Inten    --    493.1579                62.9733               847.0892
  Atom  AN      X      Y      Z        X      Y      Z        X      Y      Z
     1   6    -0.03  -0.04   0.02    -0.22  -0.29   0.12     0.00   0.00  -0.00
     2   1    -0.07  -0.04   0.02    -0.45  -0.56   0.23     0.00   0.00  -0.00
     3   6     0.03   0.01  -0.01     0.31   0.40  -0.16    -0.00  -0.00   0.00
     4   6    -0.33   0.71  -0.23    -0.04  -0.07   0.03     0.01  -0.00   0.00
     5   8     0.22  -0.48   0.15    -0.00   0.00  -0.00    -0.00   0.00  -0.00
     6   8     0.01  -0.03   0.01    -0.00  -0.00   0.00    -0.01   0.00  -0.00
     7   6     0.02  -0.02  -0.00    -0.00  -0.00  -0.00    -0.08  -0.02  -0.03
     8   6    -0.00   0.01  -0.00    -0.00   0.00  -0.00    -0.00  -0.00   0.00
     9   1    -0.07   0.06  -0.00    -0.01   0.00   0.00    -0.06  -0.04   0.01
    10   1     0.10   0.01   0.04     0.01   0.00   0.01     0.90   0.16   0.39
    11   1    -0.00  -0.01  -0.01    -0.00  -0.00  -0.00     0.00  -0.01   0.01
    12   1     0.01  -0.01  -0.02    -0.00   0.00   0.00    -0.02  -0.01  -0.01
    13   1    -0.00   0.01   0.03     0.00   0.00   0.00    -0.00   0.01  -0.01
    14   8     0.00   0.00  -0.00     0.00   0.00   0.00     0.01   0.01   0.00
    15   1     0.03   0.02   0.01     0.00   0.00   0.00     0.01  -0.01   0.01
                     34                     35                     36
                      A                      A                      A
 Frequencies --   3068.2958              3119.9176              3145.0362
 Red. masses --      1.0355                 1.0849                 1.1022
 Frc consts  --      5.7436                 6.2220                 6.4235
 IR Inten    --      6.3685                 7.4565                10.5626
  Atom  AN      X      Y      Z        X      Y      Z        X      Y      Z
     1   6    -0.00   0.00   0.00     0.00  -0.00   0.00    -0.00   0.00   0.00
     2   1     0.00   0.00  -0.00     0.00   0.00  -0.00    -0.00  -0.00   0.00
     3   6    -0.00   0.00   0.00     0.00  -0.00   0.00    -0.00   0.00   0.00
     4   6    -0.00  -0.00  -0.00     0.00   0.00   0.00    -0.00  -0.00  -0.00
     5   8     0.00  -0.00   0.00    -0.00   0.00  -0.00     0.00   0.00   0.00
     6   8     0.00   0.00  -0.00    -0.00   0.00  -0.00     0.00  -0.00   0.00
     7   6    -0.00   0.00   0.00     0.04   0.03  -0.06    -0.01  -0.00   0.00
     8   6    -0.00  -0.03  -0.04    -0.01  -0.01   0.01    -0.09   0.01  -0.02
     9   1    -0.00  -0.00  -0.00    -0.49  -0.38   0.74     0.05   0.04  -0.07
    10   1     0.01   0.00   0.00    -0.01  -0.00  -0.02     0.02   0.01   0.01
    11   1    -0.26  -0.24   0.39     0.10   0.09  -0.15     0.12   0.13  -0.21
    12   1     0.59   0.20   0.21     0.10   0.03   0.04     0.64   0.22   0.23
    13   1    -0.28   0.43  -0.16    -0.04   0.04  -0.02     0.32  -0.51   0.18
    14   8    -0.00   0.00  -0.00    -0.00  -0.00   0.00     0.00   0.00  -0.00
    15   1     0.00  -0.00   0.00    -0.00  -0.00  -0.00     0.00  -0.00   0.00
                     37                     38                     39
                      A                      A                      A
 Frequencies --   3158.1701              3486.8016              3769.9290
 Red. masses --      1.1024                 1.1702                 1.0670
 Frc consts  --      6.4785                 8.3825                 8.9346
 IR Inten    --      9.2052                63.8295                39.3799
  Atom  AN      X      Y      Z        X      Y      Z        X      Y      Z
     1   6     0.00  -0.00   0.00    -0.07  -0.09   0.04     0.00  -0.00   0.00
     2   1     0.00   0.00   0.00     0.59   0.74  -0.30    -0.00  -0.00   0.00
     3   6     0.00  -0.00  -0.00     0.02   0.03  -0.01    -0.00   0.00   0.00
     4   6     0.00   0.00  -0.00    -0.00  -0.00   0.00    -0.00   0.00   0.00
     5   8    -0.00   0.00   0.00     0.00  -0.00   0.00     0.00  -0.00   0.00
     6   8    -0.00  -0.00   0.00     0.00  -0.00   0.00     0.00  -0.00   0.00
     7   6     0.01   0.01  -0.01    -0.00   0.00   0.00    -0.00   0.00  -0.00
     8   6     0.02   0.07  -0.06    -0.00  -0.00   0.00     0.00  -0.00   0.00
     9   1    -0.11  -0.08   0.17     0.00   0.00  -0.00     0.00  -0.00   0.00
    10   1    -0.01  -0.00  -0.01     0.00   0.00   0.00     0.02   0.00   0.01
    11   1    -0.39  -0.35   0.59     0.00   0.00  -0.00    -0.00  -0.00   0.00
    12   1    -0.15  -0.04  -0.06     0.00   0.00   0.00     0.00   0.00   0.00
    13   1     0.30  -0.44   0.15     0.00  -0.00   0.00    -0.00  -0.00  -0.00
    14   8    -0.00  -0.00   0.00     0.00  -0.00   0.00     0.03  -0.05   0.02
    15   1    -0.00  -0.00  -0.00    -0.00  -0.00  -0.00    -0.44   0.84  -0.31

 -------------------
 - Thermochemistry -
 -------------------
 Temperature   298.150 Kelvin.  Pressure   1.00000 Atm.
 Atom     1 has atomic number  6 and mass  12.00000
 Atom     2 has atomic number  1 and mass   1.00783
 Atom     3 has atomic number  6 and mass  12.00000
 Atom     4 has atomic number  6 and mass  12.00000
 Atom     5 has atomic number  8 and mass  15.99491
 Atom     6 has atomic number  8 and mass  15.99491
 Atom     7 has atomic number  6 and mass  12.00000
 Atom     8 has atomic number  6 and mass  12.00000
 Atom     9 has atomic number  1 and mass   1.00783
 Atom    10 has atomic number  1 and mass   1.00783
 Atom    11 has atomic number  1 and mass   1.00783
 Atom    12 has atomic number  1 and mass   1.00783
 Atom    13 has atomic number  1 and mass   1.00783
 Atom    14 has atomic number  8 and mass  15.99491
 Atom    15 has atomic number  1 and mass   1.00783
 Molecular mass:   115.03952 amu.
 Principal axes and moments of inertia in atomic units:
                           1         2         3
     Eigenvalues --   648.929561473.331671849.21912
           X            0.99982   0.01364  -0.01342
           Y           -0.01323   0.99947   0.02972
           Z            0.01381  -0.02953   0.99947
 This molecule is an asymmetric top.
 Rotational symmetry number  1.
 Warning -- assumption of classical behavior for rotation
           may cause significant error
 Rotational temperatures (Kelvin)      0.13347     0.05879     0.04684
 Rotational constants (GHZ):           2.78110     1.22494     0.97595
    2 imaginary frequencies ignored.
 Zero-point vibrational energy     286841.2 (Joules/Mol)
                                   68.55670 (Kcal/Mol)
 Warning -- explicit consideration of  11 degrees of freedom as
           vibrations may cause significant error
 Vibrational temperatures:     20.86    63.38   126.08   229.14   318.70
          (Kelvin)            329.99   374.25   475.05   578.19   795.75
                              873.79   940.38  1057.10  1089.25  1101.05
                             1117.83  1125.99  1383.24  1605.13  1622.35
                             1671.74  1792.80  1894.86  1984.51  2044.03
                             2119.78  2140.38  2160.79  2693.07  3241.73
                             3613.75  4414.59  4488.87  4525.01  4543.90
                             5016.73  5424.09
 
 Zero-point correction=                           0.109252 (Hartree/Particle)
 Thermal correction to Energy=                    0.118527
 Thermal correction to Enthalpy=                  0.119471
 Thermal correction to Gibbs Free Energy=         0.072082
 Sum of electronic and zero-point Energies=           -420.084392
 Sum of electronic and thermal Energies=              -420.075117
 Sum of electronic and thermal Enthalpies=            -420.074173
 Sum of electronic and thermal Free Energies=         -420.121562
 
                     E (Thermal)             CV                S
                      KCal/Mol        Cal/Mol-Kelvin    Cal/Mol-Kelvin
 Total                   74.377             30.813             99.740
 Electronic               0.000              0.000              1.377
 Translational            0.889              2.981             40.136
 Rotational               0.889              2.981             28.960
 Vibrational             72.599             24.851             29.267
 Vibration     1          0.593              1.986              7.273
 Vibration     2          0.595              1.980              5.068
 Vibration     3          0.601              1.958              3.712
 Vibration     4          0.621              1.892              2.559
 Vibration     5          0.648              1.808              1.947
 Vibration     6          0.652              1.796              1.884
 Vibration     7          0.668              1.746              1.661
 Vibration     8          0.713              1.615              1.259
 Vibration     9          0.767              1.466              0.956
 Vibration    10          0.908              1.133              0.538
 Vibration    11          0.966              1.016              0.437
                       Q            Log10(Q)             Ln(Q)
 Total Bot       0.699502D-33        -33.155211        -76.342694
 Total V=0       0.125083D+18         17.097199         39.367756
 Vib (Bot)       0.151512D-46        -46.819554       -107.806007
 Vib (Bot)    1  0.142909D+02          1.155058          2.659620
 Vib (Bot)    2  0.469521D+01          0.671655          1.546544
 Vib (Bot)    3  0.234716D+01          0.370544          0.853208
 Vib (Bot)    4  0.126967D+01          0.103692          0.238761
 Vib (Bot)    5  0.892423D+00         -0.049429         -0.113815
 Vib (Bot)    6  0.858994D+00         -0.066010         -0.151994
 Vib (Bot)    7  0.746659D+00         -0.126878         -0.292147
 Vib (Bot)    8  0.565833D+00         -0.247312         -0.569457
 Vib (Bot)    9  0.442923D+00         -0.353672         -0.814359
 Vib (Bot)   10  0.282908D+00         -0.548355         -1.262634
 Vib (Bot)   11  0.244018D+00         -0.612579         -1.410515
 Vib (V=0)       0.270929D+04          3.432856          7.904443
 Vib (V=0)    1  0.147996D+02          1.170250          2.694600
 Vib (V=0)    2  0.522176D+01          0.717817          1.652835
 Vib (V=0)    3  0.289983D+01          0.462372          1.064652
 Vib (V=0)    4  0.186458D+01          0.270581          0.623035
 Vib (V=0)    5  0.152295D+01          0.182684          0.420647
 Vib (V=0)    6  0.149392D+01          0.174326          0.401401
 Vib (V=0)    7  0.139861D+01          0.145696          0.335479
 Vib (V=0)    8  0.125509D+01          0.098676          0.227210
 Vib (V=0)    9  0.116797D+01          0.067431          0.155265
 Vib (V=0)   10  0.107449D+01          0.031202          0.071845
 Vib (V=0)   11  0.105637D+01          0.023815          0.054836
 Electronic      0.200000D+01          0.301030          0.693147
 Translational   0.484981D+08          7.685724         17.697035
 Rotational      0.475980D+06          5.677589         13.073131
 ***** Axes restored to original set *****
 -------------------------------------------------------------------
 Center     Atomic                   Forces (Hartrees/Bohr)
 Number     Number              X              Y              Z
 -------------------------------------------------------------------
      1        6           0.000281198   -0.000132883    0.000166154
      2        1           0.000080837    0.000032647   -0.000056985
      3        6           0.000193672   -0.000464811    0.000366358
      4        6          -0.000308722    0.000088872    0.000142419
      5        8           0.000077029   -0.000322066    0.000249811
      6        8          -0.000398308    0.000551409   -0.001104022
      7        6           0.005491298    0.005027484   -0.001211444
      8        6           0.001835349    0.001157067    0.001943161
      9        1           0.001492736    0.000539063    0.000924999
     10        1           0.001185572    0.001338821   -0.001178932
     11        1          -0.000058383   -0.000004617   -0.000162132
     12        1          -0.000023392    0.000095043    0.000506434
     13        1           0.000223104    0.000041944    0.000138401
     14        8          -0.010294953   -0.007956810   -0.000864849
     15        1           0.000222960    0.000008839    0.000140628
 -------------------------------------------------------------------
 Cartesian Forces:  Max     0.010294953 RMS     0.002339630

 GradGradGradGradGradGradGradGradGradGradGradGradGradGradGradGradGradGrad
 Berny optimization.
 Search for a local minimum.
 Step number   1 out of a maximum of    2
 All quantities printed in internal units (Hartrees-Bohrs-Radians)
 Second derivative matrix not updated -- analytic derivatives used.
 ITU=  0
     Eigenvalues ---   -0.01163  -0.00269   0.00009   0.00032   0.00181
     Eigenvalues ---    0.00210   0.00289   0.00408   0.01567   0.02028
     Eigenvalues ---    0.02564   0.03005   0.03523   0.06006   0.06217
     Eigenvalues ---    0.07610   0.08277   0.08698   0.09038   0.09954
     Eigenvalues ---    0.11140   0.13592   0.15761   0.17351   0.22287
     Eigenvalues ---    0.25017   0.27656   0.35557   0.51002   0.60531
     Eigenvalues ---    0.69928   0.75700   0.78390   0.82117   0.84507
     Eigenvalues ---    0.90286   0.93460   1.79283   2.70884
 Eigenvalue     1 is  -1.16D-02 should be greater than     0.000000 Eigenvector:
                          Y14       X14       Y10       X9        X10
   1                    0.44511   0.43138  -0.39556  -0.27927  -0.26326
                          Y9        Z10       Y15       Y7        Z6
   1                   -0.22047   0.21294   0.19650  -0.16753   0.15120
 Eigenvalue     2 is  -2.69D-03 should be greater than     0.000000 Eigenvector:
                          Z14       Z10       Y14       Z11       Y11
   1                    0.46987  -0.33222   0.28356  -0.22471  -0.19299
                          X15       X11       X12       Z7        Z13
   1                   -0.18430  -0.17890  -0.17701  -0.17202  -0.16676
 Quadratic step=3.036D+01 exceeds max=3.000D-01 adjusted using Lamda=-3.216D-02.
 Angle between NR and scaled steps=  70.28 degrees.
 Angle between quadratic step and forces=  30.35 degrees.
 Linear search not attempted -- first point.
 B after Tr=    -0.008616   -0.006386   -0.001111
         Rot=    0.999999    0.000705   -0.000144   -0.000741 Ang=   0.12 deg.
 Variable       Old X    -DE/DX   Delta X   Delta X   Delta X     New X
                                 (Linear)    (Quad)   (Total)
    X1        4.66640   0.00028   0.00000   0.02375   0.01115   4.67755
    Y1        2.44586  -0.00013   0.00000  -0.00148  -0.00270   2.44316
    Z1       -1.27018   0.00017   0.00000   0.00985   0.00394  -1.26624
    X2        5.85445   0.00008   0.00000   0.01213  -0.00289   5.85155
    Y2        3.95382   0.00003   0.00000   0.00358   0.00323   3.95706
    Z2       -1.87581  -0.00006   0.00000   0.00086  -0.00753  -1.88334
    X3        3.34237   0.00019   0.00000   0.02631   0.01643   3.35880
    Y3        0.73903  -0.00046   0.00000  -0.00212  -0.00433   0.73470
    Z3       -0.58698   0.00037   0.00000   0.01314   0.01002  -0.57696
    X4        1.85857  -0.00031   0.00000   0.01031   0.00389   1.86246
    Y4       -1.42678   0.00009   0.00000   0.00421   0.00100  -1.42578
    Z4        0.28661   0.00014   0.00000   0.00324   0.00359   0.29020
    X5        2.81913   0.00008   0.00000   0.00302  -0.00034   2.81878
    Y5       -3.37194  -0.00032   0.00000  -0.00195  -0.00288  -3.37482
    Z5        0.89750   0.00025   0.00000   0.00121   0.00404   0.90154
    X6       -0.65980  -0.00040   0.00000   0.01358   0.00670  -0.65310
    Y6       -1.11979   0.00055   0.00000   0.01755   0.01069  -1.10910
    Z6        0.36369  -0.00110   0.00000  -0.01748  -0.01685   0.34683
    X7       -1.78436   0.00549   0.00000   0.03004   0.01942  -1.76494
    Y7        1.23291   0.00503   0.00000   0.04508   0.03557   1.26848
    Z7       -0.36170  -0.00121   0.00000  -0.00946  -0.01187  -0.37357
    X8       -2.07116   0.00184   0.00000   0.03775   0.02517  -2.04599
    Y8        3.01216   0.00116   0.00000   0.02335   0.01656   3.02873
    Z8        1.84223   0.00194   0.00000   0.01672   0.01191   1.85414
    X9       -0.77042   0.00149   0.00000   0.06477   0.05249  -0.71793
    Y9        2.05212   0.00054   0.00000   0.04017   0.02999   2.08211
    Z9       -1.95921   0.00092   0.00000   0.01761   0.01375  -1.94546
   X10       -3.67855   0.00119   0.00000   0.08304   0.07291  -3.60564
   Y10        0.73232   0.00134   0.00000   0.08231   0.06905   0.80137
   Z10       -1.08814  -0.00118   0.00000  -0.01186  -0.01308  -1.10122
   X11       -3.07248  -0.00006   0.00000   0.01994   0.00920  -3.06328
   Y11        2.07904  -0.00000   0.00000   0.00827   0.00213   2.08117
   Z11        3.38376  -0.00016   0.00000  -0.00181  -0.00498   3.37877
   X12       -0.22831  -0.00002   0.00000   0.02670   0.01338  -0.21493
   Y12        3.64679   0.00010   0.00000   0.02212   0.01903   3.66581
   Z12        2.52257   0.00051   0.00000   0.02939   0.02316   2.54573
   X13       -3.15895   0.00022   0.00000   0.02338   0.00820  -3.15075
   Y13        4.66401   0.00004   0.00000   0.01444   0.00520   4.66920
   Z13        1.25713   0.00014   0.00000   0.01559   0.00878   1.26591
   X14       -6.02283  -0.01029   0.00000  -0.20107  -0.20849  -6.23132
   Y14       -0.93479  -0.00796   0.00000  -0.12806  -0.14553  -1.08032
   Z14       -1.28961  -0.00086   0.00000  -0.02996  -0.02778  -1.31739
   X15       -5.20476   0.00022   0.00000  -0.02210  -0.02721  -5.23197
   Y15       -2.47973   0.00001   0.00000  -0.02187  -0.03701  -2.51674
   Z15       -0.71621   0.00014   0.00000  -0.00104   0.00288  -0.71332
         Item               Value     Threshold  Converged?
 Maximum Force            0.010295     0.000450     NO 
 RMS     Force            0.002340     0.000300     NO 
 Maximum Displacement     0.208485     0.001800     NO 
 RMS     Displacement     0.043954     0.001200     NO 
 Predicted change in Energy=-4.296109D-03
 GradGradGradGradGradGradGradGradGradGradGradGradGradGradGradGradGradGrad


 ----------------------------------------------------------------------

 Electric dipole moment (input orientation):
 (Debye = 10**-18 statcoulomb cm , SI units = C m)
                  (au)            (Debye)         (10**-30 SI)
   Tot        0.145484D+01      0.369783D+01      0.123346D+02
   x          0.171469D+00      0.435830D+00      0.145377D+01
   y          0.141981D+01      0.360881D+01      0.120377D+02
   z         -0.266996D+00     -0.678637D+00     -0.226369D+01

 Dipole polarizability, Alpha (input orientation).
 (esu units = cm**3 , SI units = C**2 m**2 J**-1)
 Alpha(0;0):
               (au)            (10**-24 esu)      (10**-40 SI)
   iso        0.737184D+02      0.109239D+02      0.121545D+02
   aniso      0.373640D+02      0.553678D+01      0.616049D+01
   xx         0.892836D+02      0.132305D+02      0.147209D+02
   yx         0.103256D+02      0.153010D+01      0.170247D+01
   yy         0.784044D+02      0.116183D+02      0.129271D+02
   zx        -0.436872D+00     -0.647377D-01     -0.720304D-01
   zy        -0.462302D+01     -0.685060D+00     -0.762232D+00
   zz         0.534671D+02      0.792301D+01      0.881554D+01

[...]
 3968,0.974868\H,-0.407688,1.085935,-1.036768\H,-1.946604,0.387529,-0.5
 75821\H,-1.625887,1.100181,1.790608\H,-0.120816,1.929797,1.334886\H,-1
 .671644,2.468086,0.665243\O,-3.187147,-0.49467,-0.682433\H,-2.75424,-1
 .312218,-0.379001\\Version=ES64L-G16RevA.03\State=2-A\HF=-420.1936436\
 S2=0.755791\S2-1=0.\S2A=0.750022\RMSD=4.038e-09\RMSF=2.340e-03\ZeroPoi
 nt=0.109252\Thermal=0.1185269\Dipole=0.1714689,1.4198138,-0.2669963\Di
 poleDeriv=-0.1914515,-0.0231609,0.0184089,-0.0275552,-0.1911556,0.0281
 102,0.0156722,0.021496,-0.1315835,0.2504087,0.0165576,-0.0108142,0.031
 9157,0.2459724,-0.0187917,-0.0187418,-0.0181167,0.2069439,-0.3850306,-
 0.2079026,0.0961952,-0.2299731,-0.3417479,0.0988525,0.1195501,0.104277
 5,-0.1460794,2.4926593,-0.3964823,-0.0781944,-0.1848709,1.6529831,-0.4
 196888,-0.1599189,-0.4206967,0.5609199,-0.8740076,0.2398078,-0.0251979
 ,0.3856657,-1.215638,0.2586764,-0.084457,0.2869507,-0.4464624,-1.85444
 2,0.5279547,-0.0265371,0.47391,-0.7200146,0.0655354,-0.0302538,0.04856
 63,-0.3720753,1.0670801,0.0885252,0.1381133,-0.5066059,0.648883,0.0412
 483,0.415032,0.1754576,0.4036722,-0.1609989,-0.0831742,-0.057143,0.050
 64,-0.0705413,-0.0655445,-0.0293322,-0.1133725,-0.0761824,-0.0546517,-
 0.0470925,0.0750426,0.0313356,-0.0318497,0.000675,-0.0276187,-0.012091
 1,-0.0552259,-0.7322749,-0.3822098,-0.2231975,-0.3611115,-0.1599503,-0
 .1253969,-0.1850554,-0.0952105,0.0444507,0.0596569,-0.0230501,0.060907
 7,-0.0538798,0.0301146,0.0619684,0.0475407,0.0124407,-0.0126255,-0.036
 9069,-0.0374905,-0.0483971,-0.0604378,0.0380684,-0.0290438,-0.0672663,
 -0.0492397,0.0316728,0.0398795,0.078304,-0.0161081,0.0868349,-0.026883
 9,0.0195918,-0.0209785,0.0426919,0.0496934,0.0064152,0.1685565,0.11106
 67,0.1559948,-0.1514371,0.0072394,0.0569255,-0.0201187,-0.367586,0.373
 6643,0.0808571,-0.0141451,0.2081375,0.2931968,0.0765683,-0.031098,0.03
 69651,0.3104675\Polar=89.2836326,10.3256318,78.4043659,-0.4368718,-4.6
 230152,53.4671159\Quadrupole=-1.8436292,1.5011176,0.3425116,7.2522421,
 -3.8325371,0.2750774\PG=C01 [X(C5H7O3)]\NImag=2\\0.57282731,0.66431815
 ,0.91020929,-0.26632379,-0.34069781,0.19831890,-0.16443143,-0.17583851
 ,0.07051655,0.15444883,-0.17495920,-0.24966260,0.08833744,0.17561310,0
 .23971407,0.07027516,0.08842886,-0.06562689,-0.07061827,-0.08917276,0.
 05379183,-0.40957414,-0.48731246,0.19539269,0.00633608,0.00249934,-0.0
 0069260,0.57102194,-0.48931270,-0.66114290,0.25112915,0.00251561,0.007
 88022,-0.00014983,0.58823987,0.87527331,0.19635427,0.25134542,-0.13560
 994,-0.00068239,-0.00009667,0.00820054,-0.24093211,-0.32463187,0.19081
 582,0.00714060,0.00341119,-0.00134358,0.00378453,-0.00416020,0.0015037
 3,-0.13351042,-0.08694486,0.03557996,0.62145954,0.00254110,0.00345893,
 0.00004372,-0.00220623,0.00160351,0.00173030,-0.07448839,-0.15757541,0
 .03389568,-0.18065921,0.89714283,-0.00153365,-0.00049267,0.00342619,0.
 00095078,0.00176710,0.00514309,0.03071489,0.03563356,-0.08988853,0.031
 94766,-0.23193167,0.28104293,-0.00188587,-0.00333194,0.00129253,-0.000
 51558,0.00085360,-0.00031711,0.02033478,-0.00279251,0.00117219,-0.2033
 2549,0.23850652,-0.07437814,0.25518668,-0.00173882,-0.00020464,0.00016
 445,-0.00092666,0.00106699,-0.00071615,0.00162416,-0.06785811,0.032177
 43,0.24676980,-0.63356880,0.17742983,-0.30881787,0.71113778,0.00081836
 ,0.00036565,-0.00010766,0.00027269,-0.00082130,-0.00084138,-0.00043374
 ,0.03219033,0.01211111,-0.07694875,0.17778599,-0.13362036,0.09178100,-
 0.21573062,0.10084589,-0.00157751,-0.00422810,0.00157558,0.00072702,0.
 00023024,-0.00008036,-0.04487765,-0.01369374,0.00849128,-0.27479000,-0
 .02101590,0.02736669,-0.06596118,0.06378675,-0.01684018,0.49637136,-0.
 00007195,-0.00134324,0.00063020,0.00073933,-0.00084375,-0.00014886,-0.
 02641778,0.00325527,0.00851866,0.00537280,-0.10271760,0.01857748,0.079
 17611,-0.01580265,0.00552138,-0.11946820,0.36283532,0.00025103,0.00094
 428,-0.00012348,-0.00041010,0.00001202,-0.00079973,0.01365221,0.006057
 86,0.01368421,0.01549624,0.02087829,-0.05714346,-0.02176664,0.00691665
 ,0.01565140,0.00459724,-0.09666000,0.09929444,-0.00040589,0.00226292,-
 0.00093274,-0.00032123,-0.00021602,-0.00001255,-0.00418799,0.00133260,
 -0.00044319,-0.03454919,0.03594703,-0.01229906,0.00090485,-0.00377269,
 0.00246866,-0.08997017,0.01796961,-0.00422801,0.55346087,-0.00051010,-
 0.00261779,0.00102680,0.00013263,0.00019386,0.00002106,-0.00616132,-0.
 00068765,-0.00019602,0.03629039,-0.00463268,-0.00396498,-0.01132297,0.
 00946335,-0.00034431,0.04217076,-0.18216698,0.04599893,0.05872613,0.46
 401042,-0.00101840,0.00077647,-0.00086592,-0.00008720,0.00001019,0.000
 07673,0.00242726,-0.00010313,0.00130892,-0.01682954,-0.00197818,-0.008
 43462,0.00518118,-0.00251450,0.00676501,-0.00731408,0.04422019,-0.0768
 3567,-0.03815582,-0.01414016,0.55246918,0.00001491,-0.00022982,-0.0000
 7188,0.00002415,0.00004521,0.00006505,-0.00069259,-0.00010153,-0.00018
 876,0.00625807,0.00140602,0.00198406,-0.00228226,0.00117514,-0.0012657
 5,-0.00788052,0.02295564,0.01271262,-0.07201560,-0.00218743,0.00784561
 ,0.57582235,-0.00004644,0.00024962,-0.00035502,0.00003197,-0.00004967,
 0.00003022,0.00086715,0.00020485,-0.00031581,-0.00672313,-0.00127299,-
 0.00145808,0.00237369,-0.00087845,0.00129305,0.01571119,-0.03519367,-0
 .02085820,0.00344313,-0.12111299,-0.06266385,0.00526463,0.55082408,-0.
 00011865,-0.00049342,0.00002648,-0.00006782,0.00003250,0.00005293,0.00
 020016,-0.00022054,-0.00042278,0.00505368,0.00145405,0.00091421,-0.001
 98971,0.00106641,-0.00106583,-0.00585035,0.00900521,0.01409238,0.01361
 258,-0.07271253,-0.18091738,0.00903516,-0.04494463,0.53728761,-0.00160
 926,0.00021750,-0.00035390,-0.00012370,-0.00000727,-0.00001604,-0.0041
 4393,0.00082902,-0.00029861,0.00517709,0.00138301,-0.00184757,-0.00148
 404,0.00034631,0.00013749,0.00468854,0.01266901,-0.01596893,-0.1184764
 6,-0.05664054,0.11548447,0.00043720,-0.00113229,-0.00057911,0.12914989
 ,-0.00036083,0.00038377,-0.00030613,-0.00007378,0.00004970,-0.00000694
 ,0.00068703,0.00046433,-0.00022330,-0.00758067,0.00073233,0.00143747,0
 .00174650,-0.00080177,-0.00031317,-0.00546166,-0.02603708,0.02641975,-
 0.04602511,-0.08866125,0.07642207,0.01131380,0.01175672,-0.01732443,0.
 05179916,0.10576585,0.00083278,-0.00044014,0.00031475,-0.00002529,-0.0
 0003649,0.00007339,-0.00050210,-0.00004505,-0.00007336,0.00493077,0.00
 029347,0.00000893,-0.00113605,0.00025869,0.00007289,-0.00204560,0.0096
 6414,-0.00516373,0.10561394,0.07823435,-0.20630785,0.01364994,0.009109
 98,-0.01688030,-0.11591026,-0.08935170,0.22219865,-0.00035810,0.000205
 12,-0.00004009,0.00013733,0.00015462,-0.00011673,-0.00085116,-0.000683
 53,0.00030212,0.00812887,-0.00181269,-0.00326311,-0.00272796,0.0030179
 2,-0.00029320,-0.02447835,0.01317088,-0.00506796,-0.18273177,-0.050369
 97,-0.04793893,-0.00553601,-0.00304516,-0.00149783,-0.01752783,-0.0067
 2436,-0.00842978,0.18761356,-0.00008064,0.00048320,-0.00017394,0.00008
 182,0.00006656,-0.00005968,-0.00032977,-0.00015021,-0.00013932,0.00096
 140,-0.00420705,0.00319432,0.00151143,-0.00049073,-0.00059544,0.033496
 95,0.00123185,0.01068120,-0.03477021,-0.05383443,-0.00625196,-0.023053
 94,-0.00758682,-0.00938298,-0.01330791,-0.00252787,-0.00683591,0.02082
 699,0.06361256,0.00034088,-0.00021682,0.00015138,0.00002892,-0.0000175
 9,-0.00000363,-0.00002476,0.00013772,-0.00000901,0.00384786,-0.0002731
 9,-0.00133001,-0.00129934,0.00115663,-0.00000265,-0.01337289,0.0044309
 2,-0.00266706,-0.06212684,-0.01877104,-0.06268029,-0.02316872,-0.01051
 622,-0.01065488,0.01969453,0.00552274,0.00671097,0.06457923,0.01059813
 ,0.06963639,0.00001806,0.00026287,0.00001708,0.00003966,-0.00001231,-0
 .00002349,0.00001429,0.00004436,0.00016606,-0.00107082,-0.00042512,0.0
 0037629,0.00024944,0.00008586,-0.00014072,0.00042225,-0.00047656,-0.00
 056550,-0.00213315,-0.00013454,0.00188542,-0.11294102,-0.06245396,0.09
 932831,0.00099678,0.00013579,0.00032848,0.00068428,0.00082822,-0.00028
 178,0.11718970,0.00001400,-0.00000736,0.00006944,0.00003231,-0.0000206
 7,-0.00001755,-0.00013245,-0.00000042,0.00008718,0.00098914,-0.0000938
 0,0.00004113,-0.00027039,0.00019398,-0.00011266,-0.00147815,0.00238613
 ,0.00115525,0.01243335,0.00971545,-0.01914539,-0.06287054,-0.10534675,
 0.09557309,0.00042266,-0.00290572,-0.00362579,0.00001898,0.00070603,0.
 00079820,0.06746127,0.11100114,0.00003401,0.00000979,0.00009094,-0.000
 00423,-0.00001738,-0.00001705,-0.00018701,-0.00005324,0.00004978,0.000
 36151,0.00004767,-0.00000974,-0.00000839,-0.00004491,-0.00003391,-0.00
 127843,0.00070747,0.00264176,0.01350360,0.01319064,-0.02328806,0.09861
 853,0.09255520,-0.19736014,-0.00025628,-0.00413041,-0.00250617,0.00008
 120,0.00047068,0.00049611,-0.10902231,-0.09950474,0.21625084,-0.000225
 04,0.00021385,0.00022964,0.00000232,-0.00004224,-0.00002064,-0.0004451
 9,0.00022229,0.00059642,-0.00052924,-0.00014626,-0.00034253,0.00022668
 ,-0.00027257,0.00015530,0.00163948,-0.00146011,-0.00027558,0.00321770,
 0.00215373,0.00063119,-0.26421317,-0.07311090,-0.07757509,0.00039670,-
 0.00042249,-0.00042193,0.00285960,0.00182463,0.00121595,-0.01252187,-0
 .00292549,-0.00530069,0.28429723,0.00000673,0.00003045,0.00019173,-0.0
 0002119,0.00008643,-0.00000315,0.00018745,-0.00011385,-0.00024314,0.00
 003732,-0.00080297,-0.00043920,0.00010435,0.00008528,0.00005966,-0.000
 02738,0.00227661,0.00147829,-0.01914251,-0.00840340,-0.00812755,-0.073
 53872,-0.07207471,-0.02496129,0.00066083,0.00048747,0.00077878,-0.0002
 9140,-0.00219769,-0.00324087,-0.01251287,-0.00492825,-0.00585382,0.080
 42705,0.07513361,0.00006713,0.00031722,0.00001678,0.00011389,0.0000119
 0,-0.00004001,0.00020865,-0.00004133,-0.00017069,-0.00097454,-0.001321
 93,0.00051105,0.00037519,0.00029887,-0.00023375,0.00173257,0.00196259,
 0.00134343,-0.02553898,-0.00802079,-0.01091845,-0.07668746,-0.02574382
 ,-0.07467777,-0.00006131,0.00065668,0.00090166,-0.00013329,-0.00433519
 ,-0.00327790,0.02196809,0.00640480,0.00937847,0.08528165,0.03194145,0.
 08088629,-0.00002264,-0.00000725,0.00008382,-0.00003435,0.00006401,-0.
 00000557,-0.00008265,0.00004739,0.00012534,0.00046989,-0.00061945,-0.0
 0033164,-0.00001417,0.00004624,0.00001525,0.00124896,0.00008308,0.0007
 0934,-0.00354888,0.00116281,-0.00153513,-0.12233285,0.11662643,-0.0414
 7997,0.00002784,-0.00012174,0.00023458,0.00047419,0.00012277,0.0001861
 3,0.00909041,-0.01387606,0.00346870,-0.01375367,0.02366668,-0.00707443
 ,0.12861411,0.00004799,0.00012796,-0.00003676,-0.00000299,-0.00001576,
 0.00000817,0.00014920,0.00013583,0.00003227,-0.00303643,-0.00033250,-0
 .00049707,0.00093656,-0.00053697,0.00041276,0.00333761,-0.00322251,-0.
 00415623,0.00929846,-0.01480786,0.00975668,0.11522117,-0.22093766,0.06
 118487,0.00017455,0.00050411,-0.00037991,-0.00013042,0.00026884,0.0003
 0388,0.00720427,-0.01071526,0.00262987,-0.00574697,0.00979190,-0.00297
 365,-0.12729339,0.23959016,0.00004167,0.00014670,-0.00002814,0.0000169
 2,-0.00000859,0.00000009,0.00009161,0.00008450,-0.00001974,-0.00260893
 ,-0.00066812,-0.00057948,0.00106848,-0.00049187,0.00050625,0.00347415,
 -0.00642157,-0.00368092,0.01314735,-0.01802510,0.01037954,-0.04233690,
 0.06353796,-0.07071732,0.00025765,0.00122224,0.00025895,-0.00008465,0.
 00031842,0.00096528,-0.01431503,0.01816379,-0.00596435,-0.00411810,0.0
 0850401,-0.00378699,0.04546297,-0.06635382,0.07269063,-0.00004295,-0.0
 0021676,0.00005442,-0.00002227,-0.00001091,0.00003143,0.00008683,0.000
 12289,-0.00001451,-0.00070712,0.00054375,0.00065066,0.00028085,-0.0005
 8368,-0.00000826,0.00115043,-0.00470192,0.00014227,-0.05156688,-0.0097
 8376,-0.02198979,0.00583071,0.00222283,0.00225862,0.00268820,0.0008295
 0,0.00326550,0.03623029,0.01879748,0.00961593,-0.00016023,0.00015876,-
 0.00009208,-0.00104558,0.00042249,0.00068836,-0.00011620,-0.00032844,-
 0.00017682,0.11888221,0.00001710,0.00001751,-0.00000034,-0.00001032,-0
 .00003856,0.00002250,0.00020270,0.00018936,-0.00010923,-0.00179427,0.0
 0046975,0.00048329,0.00040938,-0.00031127,0.00004977,0.00295531,-0.002
 45462,0.00077067,-0.03269643,-0.00660048,-0.01369734,0.00354665,0.0015
 2451,0.00154806,0.00165154,0.00060296,0.00188340,0.02148889,0.00767669
 ,0.00731713,0.00011314,0.00010315,0.00015548,-0.00068825,0.00029638,0.
 00051530,0.00009981,0.00010621,0.00001122,-0.18710610,0.35927284,-0.00
 005504,-0.00006010,0.00007520,0.00000020,-0.00000608,-0.00002592,-0.00
 012592,-0.00003185,0.00000682,0.00045646,-0.00036940,-0.00026553,-0.00
 012880,0.00011833,0.00014230,-0.00087586,0.00009790,0.00065934,-0.0064
 5926,-0.00129096,-0.00170897,0.00084891,0.00057545,0.00040835,-0.00045
 820,-0.00015933,0.00056304,0.00401657,0.00295622,0.00149019,0.00024814
 ,0.00032366,0.00062055,-0.00018950,-0.00001185,0.00035853,0.00007330,-
 0.00005772,-0.00002345,0.07613642,-0.13250956,0.04929414,0.00013196,0.
 00027322,-0.00009632,-0.00005137,-0.00005197,0.00002799,0.00057181,0.0
 0017483,-0.00022806,-0.00393630,0.00104581,0.00000467,0.00101328,-0.00
 073988,0.00028185,0.00328734,0.00046008,0.00072178,0.00232379,-0.00352
 582,0.00141376,-0.00049336,-0.00002913,-0.00032998,-0.00019702,0.00025
 883,-0.00038497,-0.00191693,-0.00690924,0.00076488,0.00012223,0.000022
 61,0.00008185,0.00009404,0.00002119,0.00003448,-0.00002000,0.00016883,
 0.00007962,-0.11148829,0.19181085,-0.07348741,0.11055882,0.00013561,0.
 00001781,-0.00002294,-0.00006708,-0.00003032,0.00003378,0.00038526,0.0
 0012538,-0.00010127,-0.00293327,0.00179646,0.00021948,0.00091754,-0.00
 149397,0.00023889,0.00368432,-0.00220308,0.00036124,-0.00479027,0.0001
 4244,-0.00256354,0.00105372,-0.00010608,0.00017563,0.00093442,0.000186
 45,0.00049220,0.00417412,-0.00305093,0.00277039,-0.00012041,-0.0000876
 4,-0.00016230,-0.00002628,0.00033274,0.00032788,-0.00000132,0.00004350
 ,-0.00001976,0.17963386,-0.36085442,0.13042530,-0.18298022,0.36518168,
 0.00003423,0.00006656,-0.00005858,-0.00000466,0.00000572,0.00001599,0.
 00021078,0.00004373,0.00001685,-0.00047254,0.00041333,0.00022532,0.000
 15360,-0.00008923,-0.00018932,0.00042024,-0.00010571,-0.00095293,0.001
 85032,-0.00100590,0.00095782,-0.00104041,-0.00024625,-0.00008556,0.000
 17609,0.00013446,-0.00017181,-0.00211354,-0.00044456,0.00117509,0.0000
 3095,-0.00021041,-0.00034904,0.00013390,-0.00007308,-0.00029066,0.0000
 6732,0.00012666,-0.00000036,-0.07056215,0.13355966,-0.05159460,0.07111
 588,-0.13217498,0.05130178\\-0.00028120,0.00013288,-0.00016615,-0.0000
 8084,-0.00003265,0.00005698,-0.00019367,0.00046481,-0.00036636,0.00030
 872,-0.00008887,-0.00014242,-0.00007703,0.00032207,-0.00024981,0.00039
 831,-0.00055141,0.00110402,-0.00549130,-0.00502748,0.00121144,-0.00183
 535,-0.00115707,-0.00194316,-0.00149274,-0.00053906,-0.00092500,-0.001
 18557,-0.00133882,0.00117893,0.00005838,0.00000462,0.00016213,0.000023
 39,-0.00009504,-0.00050643,-0.00022310,-0.00004194,-0.00013840,0.01029
 495,0.00795681,0.00086485,-0.00022296,-0.00000884,-0.00014063\\\@


                                                                                    A
                                                                                  AA
                                                                                 AAA
                                                                                AAAA
                                                                               AAAAA
                                                                              AAAAAA   KKKKKKKK
                                                                             AAAAAAA   KKKKKKKK
                                                                            AAAAAAAA   KKKKKKKK
                                       ZZZZZZZZZZZZZZZZZZZZ                AAAA  AAA   KKKKKKKK
                                       ZZZZZZZZZZZZZZZZZZZ                AAAA   AAA   KKKKKKKK          K
                                       ZZZZZZZZZZZZZZZZZZ                AAAA    AAA   KKKKKKKK         KKK
                                       ZZZZZZZZZZZZZZZZZ                AAAA     AAA   KKKKKKKK        KKKKK
                                       ZZZZZZZZZZZZZZZZ                AAAA      AAA   KKKKKKKK       KKKKKKK
                                                ZZZZZZ                AAAA       AAA   KKKKKKKK      KKKKKKK
                                               ZZZZZZ                AAAA        AAA   KKKKKKKK     KKKKKKK
                                              ZZZZZZ                AAAA         AAA   KKKKKKKK    KKKKKKK
                                             ZZZZZZ                AAAA          AAA   KKKKKKKK   KKKKKKK
                                            ZZZZZZ                AAAAAAAAAAAAAAAAAA   KKKKKKKK  KKKKKKK
                                           ZZZZZZ                AAAAAAAAAAAAAAAAAAA   KKKKKKKK KKKKKKK
                                          ZZZZZZ                AAAAAAAAAAAAAAAAAAAA   KKKKKKKKKKKKKKK
                                         ZZZZZZ                AAAAAAAAAAAAAAAAAAAAA   KKKKKKKKKKKKKK
                                        ZZZZZZ                AAAAAA        AAAAAAAA   KKKKKKKKKKKKK
                                       ZZZZZZ                AAAAAA         AAAAAAAA   KKKKKKKKKKKK
                                      ZZZZZZ                AAAAAA          AAAAAAAA   KKKKKKKKKKK
                                     ZZZZZZ                AAAAAA           AAAAAAAA   KKKKKKKKKKKK
                                    ZZZZZZ                AAAAAA            AAAAAAAA   KKKKKKKKKKKKK
                                   ZZZZZZ                AAAAAA             AAAAAAAA   KKKKKKKKKKKKKK
                                  ZZZZZZ                AAAAAA              AAAAAAAA   KKKKKKKKKKKKKKK
                                 ZZZZZZ                AAAAAA               AAAAAAAA   KKKKK KKKKKKKKKK
                                ZZZZZZ                AAAAAA                AAAAAAAA   KKKKK  KKKKKKKKKK
                               ZZZZZZ                AAAAAA                            KKKKK   KKKKKKKKKK
                              ZZZZZZ                AAAAAA                             KKKKK    KKKKKKKKKK
                             ZZZZZZ                                                    KKKKK     KKKKKKKKKK
                            ZZZZZZ                                                     KKKKK      KKKKKKKKKK
                           ZZZZZZ                                                      KKKKK       KKKKKKKKKK
                          ZZZZZZ                                                       KKKKK        KKKKKKKKKK
                         ZZZZZZZZZZZZZZZZZZZZZZZZZZZZZZZZZZZZZZZZ                      KKKKK         KKKKKKKKKK
                        ZZZZZZZZZZZZZZZZZZZZZZZZZZZZZZZZZZZZZZZZZ                      KKKKK          KKKKKKKKKK
                       ZZZZZZZZZZZZZZZZZZZZZZZZZZZZZZZZZZZZZZZZZZ                      KKKKK           KKKKKKKKKK
                       ZZZZZZZZZZZZZZZZZZZZZZZZZZZZZZZZZZZZZZZZZZ                      KKKKK            KKKKKKKKKK
                       ZZZZZZZZZZZZZZZZZZZZZZZZZZZZZZZZZZZZZZZZZZ                      KKKKK             KKKKKKKKKK
                       ZZZZZZZZZZZZZZZZZZZZZZZZZZZZZZZZZZZZZZZZZZ                      KKKKK              KKKKKKKKKK
                       ZZZZZZZZZZZZZZZZZZZZZZZZZZZZZZZZZZZZZZZZZZ                      KKKKK               KKKKKKKKKK
                       ZZZZZZZZZZZZZZZZZZZZZZZZZZZZZZZZZZZZZZZZZZ                      KKKKK                KKKKKKKKKK
                       ZZZZZZZZZZZZZZZZZZZZZZZZZZZZZZZZZZZZZZZZZZ                      KKKKK
                                                                                       KKKKK
                                                                                          (J.P.)
 Job cpu time:       0 days  0 hours 55 minutes 15.6 seconds.
 Elapsed time:       0 days  0 hours  2 minutes 18.2 seconds.
 File lengths (MBytes):  RWF=    153 Int=      0 D2E=      0 Chk=      6 Scr=      1
 Normal termination of Gaussian 16 at Sat Mar 29 03:50:22 2025.
