 Entering Gaussian System, Link 0=g16
 Initial command:
 /opt/g16/l1.exe "/home/aayush/Research/Transition_states/Abstraction/ts9_irc_points/Gau-25010.inp" -scrdir="/home/aayush/Research/Transition_states/Abstraction/ts9_irc_points/"
 Entering Link 1 = /opt/g16/l1.exe PID=     25013.
  
 Copyright (c) 1988,1990,1992,1993,1995,1998,2003,2009,2016,
            Gaussian, Inc.  All Rights Reserved.
  
 This is part of the Gaussian(R) 16 program.  It is based on
 the Gaussian(R) 09 system (copyright 2009, Gaussian, Inc.),
 the Gaussian(R) 03 system (copyright 2003, Gaussian, Inc.),
 the Gaussian(R) 98 system (copyright 1998, Gaussian, Inc.),
 the Gaussian(R) 94 system (copyright 1995, Gaussian, Inc.),
 the Gaussian 92(TM) system (copyright 1992, Gaussian, Inc.),
 the Gaussian 90(TM) system (copyright 1990, Gaussian, Inc.),
 the Gaussian 88(TM) system (copyright 1988, Gaussian, Inc.),
 the Gaussian 86(TM) system (copyright 1986, Carnegie Mellon
 University), and the Gaussian 82(TM) system (copyright 1983,
 Carnegie Mellon University). Gaussian is a federally registered
 trademark of Gaussian, Inc.
  
 This software contains proprietary and confidential information,
 including trade secrets, belonging to Gaussian, Inc.
  
 This software is provided under written license and may be
 used, copied, transmitted, or stored only in accord with that
 written license.
  
 The following legend is applicable only to US Government
 contracts under FAR:
  
                    RESTRICTED RIGHTS LEGEND
  
 Use, reproduction and disclosure by the US Government is
 subject to restrictions as set forth in subparagraphs (a)
 and (c) of the Commercial Computer Software - Restricted
 Rights clause in FAR 52.227-19.
  
 Gaussian, Inc.
 340 Quinnipiac St., Bldg. 40, Wallingford CT 06492
  
  
 ---------------------------------------------------------------
 Warning -- This program may not be used in any manner that
 competes with the business of Gaussian, Inc. or will provide
 assistance to any competitor of Gaussian, Inc.  The licensee
 of this program is prohibited from giving any competitor of
 Gaussian, Inc. access to this program.  By using this program,
 the user acknowledges that Gaussian, Inc. is engaged in the
 business of creating and licensing software in the field of
 computational chemistry and represents and warrants to the
 licensee that it is not a competitor of Gaussian, Inc. and that
 it will not use this program in any manner prohibited above.
 ---------------------------------------------------------------
  

 Cite this work as:
 Gaussian 16, Revision A.03,
 M. J. Frisch, G. W. Trucks, H. B. Schlegel, G. E. Scuseria, 
 M. A. Robb, J. R. Cheeseman, G. Scalmani, V. Barone, 
 G. A. Petersson, H. Nakatsuji, X. Li, M. Caricato, A. V. Marenich, 
 J. Bloino, B. G. Janesko, R. Gomperts, B. Mennucci, H. P. Hratchian, 
 J. V. Ortiz, A. F. Izmaylov, J. L. Sonnenberg, D. Williams-Young, 
 F. Ding, F. Lipparini, F. Egidi, J. Goings, B. Peng, A. Petrone, 
 T. Henderson, D. Ranasinghe, V. G. Zakrzewski, J. Gao, N. Rega, 
 G. Zheng, W. Liang, M. Hada, M. Ehara, K. Toyota, R. Fukuda, 
 J. Hasegawa, M. Ishida, T. Nakajima, Y. Honda, O. Kitao, H. Nakai, 
 T. Vreven, K. Throssell, J. A. Montgomery, Jr., J. E. Peralta, 
 F. Ogliaro, M. J. Bearpark, J. J. Heyd, E. N. Brothers, K. N. Kudin, 
 V. N. Staroverov, T. A. Keith, R. Kobayashi, J. Normand, 
 K. Raghavachari, A. P. Rendell, J. C. Burant, S. S. Iyengar, 
 J. Tomasi, M. Cossi, J. M. Millam, M. Klene, C. Adamo, R. Cammi, 
 J. W. Ochterski, R. L. Martin, K. Morokuma, O. Farkas, 
 J. B. Foresman, and D. J. Fox, Gaussian, Inc., Wallingford CT, 2016.
 
 ******************************************
 Gaussian 16:  ES64L-G16RevA.03 25-Dec-2016
                29-Mar-2025 
 ******************************************
 %chk=ethyl_propiolate.chk
 %nprocshared=24
 Will use up to   24 processors via shared memory.
 %mem=12GB
 --------------------------
 # freq 6-311++g(d,p) m062x
 --------------------------
 1/10=4,30=1,38=1/1,3;
 2/12=2,17=6,18=5,40=1/2;
 3/5=4,6=6,7=1111,11=2,25=1,30=1,71=2,74=-55,140=1/1,2,3;
 4//1;
 5/5=2,38=5,98=1/2;
 8/6=4,10=90,11=11/1;
 11/6=1,8=1,9=11,15=111,16=1/1,2,10;
 10/6=1/2;
 6/7=2,8=2,9=2,10=2,28=1/1;
 7/8=1,10=1,25=1/1,2,3,16;
 1/10=4,30=1/3;
 99//99;
 -------------------
 Title Card Required
 -------------------
 Symbolic Z-matrix:
 Charge =  0 Multiplicity = 2
 C                     2.46881   1.29465  -0.67241 
 H                     3.0977    2.09253  -0.99293 
 C                     1.76792   0.39147  -0.31139 
 C                     0.98533  -0.75473   0.15048 
 O                     1.49125  -1.78416   0.47478 
 O                    -0.34898  -0.59202   0.19423 
 C                    -0.95993   0.63695  -0.18806 
 C                    -1.10303   1.59007   0.96915 
 H                    -0.47643   1.05864  -1.071 
 H                    -2.01582   0.31318  -0.53323 
 H                    -1.62385   1.10191   1.79385 
 H                    -0.12065   1.92212   1.31593 
 H                    -1.6765    2.46529   0.66012 
 O                    -3.16093  -0.47496  -0.67953 
 H                    -2.76169  -1.31066  -0.38376 
 

 GradGradGradGradGradGradGradGradGradGradGradGradGradGradGradGradGradGrad
 Berny optimization.
 Initialization pass.
 Trust Radius=3.00D-01 FncErr=1.00D-07 GrdErr=1.00D-07 EigMax=2.50D+02 EigMin=1.00D-04
 Number of steps in this run=      2 maximum allowed number of steps=      2.
 GradGradGradGradGradGradGradGradGradGradGradGradGradGradGradGradGradGrad

                          Input orientation:                          
 ---------------------------------------------------------------------
 Center     Atomic      Atomic             Coordinates (Angstroms)
 Number     Number       Type             X           Y           Z
 ---------------------------------------------------------------------
      1          6           0        2.468810    1.294648   -0.672408
      2          1           0        3.097696    2.092532   -0.992933
      3          6           0        1.767919    0.391474   -0.311388
      4          6           0        0.985328   -0.754725    0.150476
      5          8           0        1.491252   -1.784159    0.474775
      6          8           0       -0.348977   -0.592019    0.194227
      7          6           0       -0.959927    0.636948   -0.188059
      8          6           0       -1.103035    1.590067    0.969149
      9          1           0       -0.476428    1.058639   -1.070997
     10          1           0       -2.015817    0.313180   -0.533226
     11          1           0       -1.623847    1.101914    1.793849
     12          1           0       -0.120646    1.922118    1.315930
     13          1           0       -1.676498    2.465289    0.660119
     14          8           0       -3.160932   -0.474962   -0.679530
     15          1           0       -2.761693   -1.310661   -0.383758
 ---------------------------------------------------------------------
                    Distance matrix (angstroms):
                    1          2          3          4          5
     1  C    0.000000
     2  H    1.065295   0.000000
     3  C    1.198877   2.264157   0.000000
     4  C    2.660411   3.725098   1.462716   0.000000
     5  O    3.427930   4.445623   2.329802   1.192000   0.000000
     6  O    3.500070   4.527220   2.388337   1.344900   2.210508
     7  C    3.524684   4.385299   2.741644   2.415652   3.508474
     8  C    3.942088   4.663516   3.364339   3.244925   4.284872
     9  H    2.981443   3.721477   2.461546   2.630022   3.787173
    10  H    4.592878   5.433732   3.791042   3.258027   4.208851
    11  H    4.782197   5.571395   4.054729   3.599386   4.446708
    12  H    3.324528   3.964545   2.925357   3.122011   4.128226
    13  H    4.508837   5.066010   4.136247   4.208746   5.303471
    14  O    5.901319   6.772051   5.017949   4.237765   4.968826
    15  H    5.850565   6.803327   4.839410   3.825524   4.364495
                    6          7          8          9         10
     6  O    0.000000
     7  C    1.424697   0.000000
     8  C    2.435284   1.506003   0.000000
     9  H    2.083676   1.091409   2.199374   0.000000
    10  H    2.031484   1.157095   2.172727   1.792938   0.000000
    11  H    2.655841   2.141248   1.090719   3.086387   2.488176
    12  H    2.762469   2.148962   1.093436   2.563123   3.098344
    13  H    3.365487   2.139091   1.091042   2.532902   2.484106
    14  O    2.946904   2.514421   3.349243   3.116367   1.397806
    15  H    2.582966   2.660421   3.604959   3.362784   1.793190
                   11         12         13         14         15
    11  H    0.000000
    12  H    1.777851   0.000000
    13  H    1.773952   1.773640   0.000000
    14  O    3.311612   4.355593   3.555739   0.000000
    15  H    3.443426   4.507209   4.065111   0.972248   0.000000
 Stoichiometry    C5H7O3(2)
 Framework group  C1[X(C5H7O3)]
 Deg. of freedom    39
 Full point group                 C1      NOp   1
 Largest Abelian subgroup         C1      NOp   1
 Largest concise Abelian subgroup C1      NOp   1
                         Standard orientation:                         
 ---------------------------------------------------------------------
 Center     Atomic      Atomic             Coordinates (Angstroms)
 Number     Number       Type             X           Y           Z
 ---------------------------------------------------------------------
      1          6           0        2.514645    1.231805   -0.678824
      2          1           0        3.143786    2.029488   -0.999349
      3          6           0        1.813466    0.328855   -0.317804
      4          6           0        1.030508   -0.817093    0.144060
      5          8           0        1.536103   -1.846689    0.468359
      6          8           0       -0.303745   -0.653961    0.187811
      7          6           0       -0.914302    0.575202   -0.194475
      8          6           0       -1.057105    1.528366    0.962733
      9          1           0       -0.430668    0.996738   -1.077413
     10          1           0       -1.970295    0.251771   -0.539642
     11          1           0       -1.578073    1.040380    1.787433
     12          1           0       -0.074610    1.860103    1.309514
     13          1           0       -1.630288    2.403772    0.653703
     14          8           0       -3.115662   -0.536005   -0.685946
     15          1           0       -2.716690   -1.371831   -0.390174
 ---------------------------------------------------------------------
 Rotational constants (GHZ):           2.7978668           1.2308787           0.9809424
 Standard basis: 6-311++G(d,p) (5D, 7F)
 There are   233 symmetry adapted cartesian basis functions of A   symmetry.
 There are   225 symmetry adapted basis functions of A   symmetry.
   225 basis functions,   351 primitive gaussians,   233 cartesian basis functions
    31 alpha electrons       30 beta electrons
       nuclear repulsion energy       350.5606693332 Hartrees.
 NAtoms=   15 NActive=   15 NUniq=   15 SFac= 1.00D+00 NAtFMM=   60 NAOKFM=F Big=F
 Integral buffers will be    131072 words long.
 Raffenetti 2 integral format.
 Two-electron integral symmetry is turned on.
 One-electron integrals computed using PRISM.
 NBasis=   225 RedAO= T EigKep=  1.51D-06  NBF=   225
 NBsUse=   225 1.00D-06 EigRej= -1.00D+00 NBFU=   225
 ExpMin= 3.60D-02 ExpMax= 8.59D+03 ExpMxC= 1.30D+03 IAcc=3 IRadAn=         5 AccDes= 0.00D+00
 Harris functional with IExCor= 1009 and IRadAn=       5 diagonalized for initial guess.
 HarFok:  IExCor= 1009 AccDes= 0.00D+00 IRadAn=         5 IDoV= 1 UseB2=F ITyADJ=14
 ICtDFT=  3500011 ScaDFX=  1.000000  1.000000  1.000000  1.000000
 FoFCou: FMM=F IPFlag=           0 FMFlag=      100000 FMFlg1=           0
         NFxFlg=           0 DoJE=T BraDBF=F KetDBF=T FulRan=T
         wScrn=  0.000000 ICntrl=       500 IOpCl=  0 I1Cent=   200000004 NGrid=           0
         NMat0=    1 NMatS0=      1 NMatT0=    0 NMatD0=    1 NMtDS0=    0 NMtDT0=    0
 Petite list used in FoFCou.
 Initial guess <Sx>= 0.0000 <Sy>= 0.0000 <Sz>= 0.5000 <S**2>= 0.7500 S= 0.5000
 Requested convergence on RMS density matrix=1.00D-08 within 128 cycles.
 Requested convergence on MAX density matrix=1.00D-06.
 Requested convergence on             energy=1.00D-06.
 No special actions if energy rises.
 Restarting incremental Fock formation.
 SCF Done:  E(UM062X) =  -420.192083143     A.U. after   21 cycles
            NFock= 21  Conv=0.65D-08     -V/T= 2.0032
 <Sx>= 0.0000 <Sy>= 0.0000 <Sz>= 0.5000 <S**2>= 0.7579 S= 0.5039
 <L.S>=  0.00000000000    
 Annihilation of the first spin contaminant:
 S**2 before annihilation     0.7579,   after     0.7500
 DoSCS=F DFT=T ScalE2(SS,OS)=  1.000000  1.000000
 Range of M.O.s used for correlation:     1   225
 NBasis=   225 NAE=    31 NBE=    30 NFC=     0 NFV=     0
 NROrb=    225 NOA=    31 NOB=    30 NVA=   194 NVB=   195

 **** Warning!!: The largest alpha MO coefficient is  0.30931124D+03


 **** Warning!!: The largest beta MO coefficient is  0.27650670D+03

 Symmetrizing basis deriv contribution to polar:
 IMax=3 JMax=2 DiffMx= 0.00D+00
 G2DrvN: will do    16 centers at a time, making    1 passes.
 Calling FoFCou, ICntrl=  3107 FMM=F I1Cent=   0 AccDes= 0.00D+00.
 End of G2Drv F.D. properties file   721 does not exist.
 End of G2Drv F.D. properties file   722 does not exist.
 End of G2Drv F.D. properties file   788 does not exist.
          IDoAtm=111111111111111
          Differentiating once with respect to electric field.
                with respect to dipole field.
          Differentiating once with respect to nuclear coordinates.
 Keep R1 and R2 ints in memory in canonical form, NReq=671901977.
          There are    48 degrees of freedom in the 1st order CPHF.  IDoFFX=6 NUNeed=     3.
     45 vectors produced by pass  0 Test12= 2.47D-14 2.08D-09 XBig12= 9.40D+01 3.50D+00.
 AX will form    45 AO Fock derivatives at one time.
     45 vectors produced by pass  1 Test12= 2.47D-14 2.08D-09 XBig12= 1.75D+01 4.68D-01.
     45 vectors produced by pass  2 Test12= 2.47D-14 2.08D-09 XBig12= 6.07D-01 1.06D-01.
     45 vectors produced by pass  3 Test12= 2.47D-14 2.08D-09 XBig12= 8.76D-03 1.68D-02.
     45 vectors produced by pass  4 Test12= 2.47D-14 2.08D-09 XBig12= 1.02D-04 1.16D-03.
     45 vectors produced by pass  5 Test12= 2.47D-14 2.08D-09 XBig12= 8.90D-07 1.05D-04.
     44 vectors produced by pass  6 Test12= 2.47D-14 2.08D-09 XBig12= 6.43D-09 6.52D-06.
     21 vectors produced by pass  7 Test12= 2.47D-14 2.08D-09 XBig12= 3.77D-11 4.45D-07.
      3 vectors produced by pass  8 Test12= 2.47D-14 2.08D-09 XBig12= 2.79D-13 3.76D-08.
      2 vectors produced by pass  9 Test12= 2.47D-14 2.08D-09 XBig12= 4.83D-15 8.41D-09.
      1 vectors produced by pass 10 Test12= 2.47D-14 2.08D-09 XBig12= 2.57D-16 3.14D-09.
 InvSVY:  IOpt=1 It=  1 EMax= 8.88D-15
 Solved reduced A of dimension   341 with    48 vectors.
 Isotropic polarizability for W=    0.000000       77.31 Bohr**3.
 End of Minotr F.D. properties file   721 does not exist.
 End of Minotr F.D. properties file   722 does not exist.
 End of Minotr F.D. properties file   788 does not exist.

 **********************************************************************

            Population analysis using the SCF density.

 **********************************************************************

 Orbital symmetries:
 Alpha Orbitals:
       Occupied  (A) (A) (A) (A) (A) (A) (A) (A) (A) (A) (A) (A)
                 (A) (A) (A) (A) (A) (A) (A) (A) (A) (A) (A) (A)
                 (A) (A) (A) (A) (A) (A) (A)
       Virtual   (A) (A) (A) (A) (A) (A) (A) (A) (A) (A) (A) (A)
                 (A) (A) (A) (A) (A) (A) (A) (A) (A) (A) (A) (A)
                 (A) (A) (A) (A) (A) (A) (A) (A) (A) (A) (A) (A)
                 (A) (A) (A) (A) (A) (A) (A) (A) (A) (A) (A) (A)
                 (A) (A) (A) (A) (A) (A) (A) (A) (A) (A) (A) (A)
                 (A) (A) (A) (A) (A) (A) (A) (A) (A) (A) (A) (A)
                 (A) (A) (A) (A) (A) (A) (A) (A) (A) (A) (A) (A)
                 (A) (A) (A) (A) (A) (A) (A) (A) (A) (A) (A) (A)
                 (A) (A) (A) (A) (A) (A) (A) (A) (A) (A) (A) (A)
                 (A) (A) (A) (A) (A) (A) (A) (A) (A) (A) (A) (A)
                 (A) (A) (A) (A) (A) (A) (A) (A) (A) (A) (A) (A)
                 (A) (A) (A) (A) (A) (A) (A) (A) (A) (A) (A) (A)
                 (A) (A) (A) (A) (A) (A) (A) (A) (A) (A) (A) (A)
                 (A) (A) (A) (A) (A) (A) (A) (A) (A) (A) (A) (A)
                 (A) (A) (A) (A) (A) (A) (A) (A) (A) (A) (A) (A)
                 (A) (A) (A) (A) (A) (A) (A) (A) (A) (A) (A) (A)
                 (A) (A)
 Beta  Orbitals:
       Occupied  (A) (A) (A) (A) (A) (A) (A) (A) (A) (A) (A) (A)
                 (A) (A) (A) (A) (A) (A) (A) (A) (A) (A) (A) (A)
                 (A) (A) (A) (A) (A) (A)
       Virtual   (A) (A) (A) (A) (A) (A) (A) (A) (A) (A) (A) (A)
                 (A) (A) (A) (A) (A) (A) (A) (A) (A) (A) (A) (A)
                 (A) (A) (A) (A) (A) (A) (A) (A) (A) (A) (A) (A)
                 (A) (A) (A) (A) (A) (A) (A) (A) (A) (A) (A) (A)
                 (A) (A) (A) (A) (A) (A) (A) (A) (A) (A) (A) (A)
                 (A) (A) (A) (A) (A) (A) (A) (A) (A) (A) (A) (A)
                 (A) (A) (A) (A) (A) (A) (A) (A) (A) (A) (A) (A)
                 (A) (A) (A) (A) (A) (A) (A) (A) (A) (A) (A) (A)
                 (A) (A) (A) (A) (A) (A) (A) (A) (A) (A) (A) (A)
                 (A) (A) (A) (A) (A) (A) (A) (A) (A) (A) (A) (A)
                 (A) (A) (A) (A) (A) (A) (A) (A) (A) (A) (A) (A)
                 (A) (A) (A) (A) (A) (A) (A) (A) (A) (A) (A) (A)
                 (A) (A) (A) (A) (A) (A) (A) (A) (A) (A) (A) (A)
                 (A) (A) (A) (A) (A) (A) (A) (A) (A) (A) (A) (A)
                 (A) (A) (A) (A) (A) (A) (A) (A) (A) (A) (A) (A)
                 (A) (A) (A) (A) (A) (A) (A) (A) (A) (A) (A) (A)
                 (A) (A) (A)
 The electronic state is 2-A.
 Alpha  occ. eigenvalues --  -19.69610 -19.66966 -19.63973 -10.71906 -10.63066
 Alpha  occ. eigenvalues --  -10.58792 -10.58337 -10.55386  -1.26528  -1.18079
 Alpha  occ. eigenvalues --   -1.13557  -0.90497  -0.89808  -0.78654  -0.74835
 Alpha  occ. eigenvalues --   -0.65978  -0.62782  -0.61231  -0.58048  -0.56482
 Alpha  occ. eigenvalues --   -0.54095  -0.50890  -0.50181  -0.48296  -0.45956
 Alpha  occ. eigenvalues --   -0.42438  -0.41130  -0.40768  -0.38546  -0.37923
 Alpha  occ. eigenvalues --   -0.36128
 Alpha virt. eigenvalues --   -0.03088  -0.00941   0.00460   0.01224   0.01423
 Alpha virt. eigenvalues --    0.02830   0.03457   0.04375   0.05373   0.05984
 Alpha virt. eigenvalues --    0.06652   0.07436   0.08503   0.09305   0.09901
 Alpha virt. eigenvalues --    0.10594   0.10871   0.11602   0.12061   0.12918
 Alpha virt. eigenvalues --    0.13477   0.13827   0.14220   0.14550   0.16272
 Alpha virt. eigenvalues --    0.16581   0.16959   0.17198   0.18163   0.19490
 Alpha virt. eigenvalues --    0.20580   0.22090   0.22344   0.23893   0.24268
 Alpha virt. eigenvalues --    0.25301   0.25793   0.27496   0.28862   0.29608
 Alpha virt. eigenvalues --    0.30404   0.30873   0.31883   0.32564   0.32897
 Alpha virt. eigenvalues --    0.33860   0.34209   0.35775   0.36732   0.37667
 Alpha virt. eigenvalues --    0.38968   0.43589   0.45172   0.46009   0.49368
 Alpha virt. eigenvalues --    0.50422   0.51057   0.53091   0.56470   0.57764
 Alpha virt. eigenvalues --    0.60546   0.61333   0.62726   0.63728   0.65735
 Alpha virt. eigenvalues --    0.67479   0.68141   0.69646   0.70646   0.71537
 Alpha virt. eigenvalues --    0.72375   0.74032   0.76638   0.79629   0.81449
 Alpha virt. eigenvalues --    0.85685   0.87336   0.90531   0.97409   0.99960
 Alpha virt. eigenvalues --    1.04269   1.05960   1.08788   1.09844   1.10767
 Alpha virt. eigenvalues --    1.13156   1.16370   1.17096   1.18196   1.19567
 Alpha virt. eigenvalues --    1.21590   1.23719   1.27709   1.28717   1.30710
 Alpha virt. eigenvalues --    1.32489   1.33408   1.35893   1.39890   1.41748
 Alpha virt. eigenvalues --    1.43015   1.47554   1.48579   1.49348   1.55135
 Alpha virt. eigenvalues --    1.58698   1.59876   1.60732   1.61767   1.63145
 Alpha virt. eigenvalues --    1.64265   1.66958   1.68963   1.69994   1.76474
 Alpha virt. eigenvalues --    1.77474   1.78859   1.81520   1.82402   1.86476
 Alpha virt. eigenvalues --    1.90205   1.93559   1.98549   2.00357   2.02846
 Alpha virt. eigenvalues --    2.09034   2.10630   2.13579   2.17790   2.26290
 Alpha virt. eigenvalues --    2.31352   2.40870   2.45241   2.49390   2.50362
 Alpha virt. eigenvalues --    2.54596   2.57418   2.57801   2.60068   2.61561
 Alpha virt. eigenvalues --    2.63369   2.64758   2.67419   2.71651   2.74071
 Alpha virt. eigenvalues --    2.80253   2.81392   2.82270   2.87941   2.92856
 Alpha virt. eigenvalues --    2.96096   2.97441   3.00821   3.02488   3.05742
 Alpha virt. eigenvalues --    3.07380   3.12501   3.16921   3.17378   3.21740
 Alpha virt. eigenvalues --    3.24530   3.32758   3.33629   3.38212   3.42930
 Alpha virt. eigenvalues --    3.47304   3.53257   3.63873   3.75473   3.79909
 Alpha virt. eigenvalues --    3.84501   3.85323   3.93812   4.05969   4.14036
 Alpha virt. eigenvalues --    4.15499   4.30225   5.06885   5.14631   5.15288
 Alpha virt. eigenvalues --    5.24030   5.27879   5.43080   5.57623   5.69046
 Alpha virt. eigenvalues --    5.97733  23.61342  23.89303  23.93737  24.03463
 Alpha virt. eigenvalues --   25.15141  49.95840  49.98142  50.12092
  Beta  occ. eigenvalues --  -19.69605 -19.65600 -19.63970 -10.71893 -10.62725
  Beta  occ. eigenvalues --  -10.58788 -10.58337 -10.55390  -1.26442  -1.17976
  Beta  occ. eigenvalues --   -1.07947  -0.90378  -0.89075  -0.78312  -0.74503
  Beta  occ. eigenvalues --   -0.65344  -0.62620  -0.59028  -0.57816  -0.54822
  Beta  occ. eigenvalues --   -0.51994  -0.50622  -0.48317  -0.46931  -0.43190
  Beta  occ. eigenvalues --   -0.40762  -0.39750  -0.39213  -0.38417  -0.37404
  Beta virt. eigenvalues --   -0.11432  -0.03043  -0.00908   0.00621   0.01365
  Beta virt. eigenvalues --    0.01502   0.02895   0.03546   0.04531   0.05423
  Beta virt. eigenvalues --    0.06102   0.06731   0.07553   0.08625   0.09338
  Beta virt. eigenvalues --    0.10037   0.10626   0.10999   0.11721   0.12224
  Beta virt. eigenvalues --    0.13078   0.13625   0.14114   0.14279   0.14821
  Beta virt. eigenvalues --    0.16505   0.16656   0.17082   0.17238   0.18295
  Beta virt. eigenvalues --    0.19651   0.20958   0.22028   0.22398   0.23938
  Beta virt. eigenvalues --    0.24297   0.25311   0.25533   0.27552   0.29211
  Beta virt. eigenvalues --    0.29862   0.30535   0.31028   0.32034   0.32663
  Beta virt. eigenvalues --    0.33035   0.34026   0.34599   0.35818   0.36869
  Beta virt. eigenvalues --    0.38720   0.39654   0.43665   0.45292   0.46118
  Beta virt. eigenvalues --    0.49478   0.50494   0.51240   0.53205   0.56632
  Beta virt. eigenvalues --    0.58311   0.60708   0.61497   0.62823   0.63965
  Beta virt. eigenvalues --    0.66441   0.67989   0.68269   0.69675   0.70704
  Beta virt. eigenvalues --    0.71672   0.72519   0.74136   0.76686   0.79975
  Beta virt. eigenvalues --    0.81616   0.85750   0.87471   0.90608   0.97495
  Beta virt. eigenvalues --    1.00559   1.04630   1.06244   1.09650   1.10362
  Beta virt. eigenvalues --    1.11046   1.14615   1.16877   1.18076   1.18311
  Beta virt. eigenvalues --    1.20547   1.21918   1.23802   1.27879   1.28819
  Beta virt. eigenvalues --    1.30802   1.32732   1.33554   1.36052   1.40217
  Beta virt. eigenvalues --    1.42119   1.43111   1.47828   1.49176   1.49550
  Beta virt. eigenvalues --    1.56786   1.58841   1.60097   1.61191   1.61917
  Beta virt. eigenvalues --    1.63465   1.64559   1.67033   1.69571   1.70037
  Beta virt. eigenvalues --    1.76571   1.77442   1.78932   1.81652   1.82628
  Beta virt. eigenvalues --    1.86844   1.90496   1.93638   1.98450   2.00478
  Beta virt. eigenvalues --    2.02926   2.09269   2.11380   2.13775   2.18075
  Beta virt. eigenvalues --    2.26843   2.31559   2.40878   2.45580   2.49466
  Beta virt. eigenvalues --    2.50424   2.54570   2.57322   2.57843   2.60279
  Beta virt. eigenvalues --    2.62038   2.63525   2.64844   2.67507   2.71732
  Beta virt. eigenvalues --    2.73365   2.79585   2.80664   2.82458   2.88633
  Beta virt. eigenvalues --    2.93341   2.97413   2.99729   3.00997   3.02512
  Beta virt. eigenvalues --    3.05788   3.07476   3.12651   3.18589   3.21234
  Beta virt. eigenvalues --    3.22573   3.24772   3.32885   3.33689   3.38555
  Beta virt. eigenvalues --    3.42955   3.49262   3.53446   3.63940   3.75616
  Beta virt. eigenvalues --    3.81231   3.84754   3.85617   3.95705   4.06589
  Beta virt. eigenvalues --    4.14592   4.15675   4.30609   5.08823   5.14815
  Beta virt. eigenvalues --    5.15315   5.27885   5.30607   5.43507   5.60241
  Beta virt. eigenvalues --    5.69126   5.97784  23.61343  23.89509  23.93762
  Beta virt. eigenvalues --   24.03469  25.15146  49.95284  49.98140  50.12088
          Condensed to atoms (all electrons):
               1          2          3          4          5          6
     1  C   26.355270   0.862010 -11.316178  -8.090027  -0.174333  -0.076097
     2  H    0.862010   0.438067  -0.388741  -0.094590  -0.005304  -0.004590
     3  C  -11.316178  -0.388741  14.166571   2.028216   0.022653  -0.263982
     4  C   -8.090027  -0.094590   2.028216  11.795032   0.497124   0.179045
     5  O   -0.174333  -0.005304   0.022653   0.497124   7.973869  -0.077888
     6  O   -0.076097  -0.004590  -0.263982   0.179045  -0.077888   8.246768
     7  C   -0.110840  -0.008816   0.247611  -0.309659  -0.003690   0.220190
     8  C   -0.067753   0.004316  -0.121014   0.237873   0.005228  -0.098208
     9  H    0.073219  -0.001800   0.021111  -0.113852   0.002007  -0.016219
    10  H   -0.076973  -0.001090   0.029198   0.037571   0.001469  -0.075484
    11  H    0.013332   0.000557  -0.006509  -0.004708   0.000669  -0.007859
    12  H   -0.099177  -0.004129   0.087150   0.023857  -0.001464  -0.011614
    13  H    0.017170   0.000281  -0.010126  -0.011051   0.000581   0.016806
    14  O    0.003076   0.000161  -0.001457   0.004854   0.000422   0.023240
    15  H   -0.006224  -0.000069  -0.011133   0.014556  -0.000682   0.007013
               7          8          9         10         11         12
     1  C   -0.110840  -0.067753   0.073219  -0.076973   0.013332  -0.099177
     2  H   -0.008816   0.004316  -0.001800  -0.001090   0.000557  -0.004129
     3  C    0.247611  -0.121014   0.021111   0.029198  -0.006509   0.087150
     4  C   -0.309659   0.237873  -0.113852   0.037571  -0.004708   0.023857
     5  O   -0.003690   0.005228   0.002007   0.001469   0.000669  -0.001464
     6  O    0.220190  -0.098208  -0.016219  -0.075484  -0.007859  -0.011614
     7  C    6.171890  -0.431825   0.450207   0.373917  -0.063010   0.034569
     8  C   -0.431825   5.881353  -0.118926  -0.114880   0.445660   0.318398
     9  H    0.450207  -0.118926   0.569190  -0.047193   0.004409  -0.009066
    10  H    0.373917  -0.114880  -0.047193   0.603895  -0.019273   0.023202
    11  H   -0.063010   0.445660   0.004409  -0.019273   0.509955  -0.050126
    12  H    0.034569   0.318398  -0.009066   0.023202  -0.050126   0.580613
    13  H   -0.068411   0.432826  -0.004625  -0.013116  -0.028851  -0.034641
    14  O   -0.008440  -0.002541  -0.006003   0.017696   0.002969  -0.004734
    15  H    0.012460   0.009279  -0.000761  -0.042707  -0.001409   0.000509
              13         14         15
     1  C    0.017170   0.003076  -0.006224
     2  H    0.000281   0.000161  -0.000069
     3  C   -0.010126  -0.001457  -0.011133
     4  C   -0.011051   0.004854   0.014556
     5  O    0.000581   0.000422  -0.000682
     6  O    0.016806   0.023240   0.007013
     7  C   -0.068411  -0.008440   0.012460
     8  C    0.432826  -0.002541   0.009279
     9  H   -0.004625  -0.006003  -0.000761
    10  H   -0.013116   0.017696  -0.042707
    11  H   -0.028851   0.002969  -0.001409
    12  H   -0.034641  -0.004734   0.000509
    13  H    0.529302   0.000481   0.001723
    14  O    0.000481   8.008003   0.279732
    15  H    0.001723   0.279732   0.476746
          Atomic-Atomic Spin Densities.
               1          2          3          4          5          6
     1  C   -0.188366   0.004026   0.119281   0.094086   0.000497  -0.006617
     2  H    0.004026   0.000560  -0.003785  -0.000782   0.000063  -0.000351
     3  C    0.119281  -0.003785  -0.089633  -0.025998  -0.001130   0.006138
     4  C    0.094086  -0.000782  -0.025998  -0.090248   0.003108   0.007902
     5  O    0.000497   0.000063  -0.001130   0.003108   0.001034   0.000979
     6  O   -0.006617  -0.000351   0.006138   0.007902   0.000979   0.023069
     7  C   -0.043451  -0.000053  -0.010032   0.045559  -0.001703  -0.062611
     8  C    0.049481   0.000502  -0.009685  -0.039313   0.001041   0.007840
     9  H   -0.000263  -0.000048  -0.000714   0.001978   0.000141   0.002937
    10  H   -0.005790   0.000069  -0.004656   0.002586  -0.001415  -0.015975
    11  H    0.000692   0.000016   0.000167   0.000313   0.000157   0.001262
    12  H   -0.011584  -0.000221   0.004852   0.004887  -0.000336   0.000525
    13  H   -0.000744  -0.000008   0.000179   0.000963  -0.000022   0.000240
    14  O    0.007901   0.000084   0.003847  -0.004674   0.000308   0.032641
    15  H   -0.000978  -0.000016  -0.000532  -0.000057  -0.000058  -0.003131
               7          8          9         10         11         12
     1  C   -0.043451   0.049481  -0.000263  -0.005790   0.000692  -0.011584
     2  H   -0.000053   0.000502  -0.000048   0.000069   0.000016  -0.000221
     3  C   -0.010032  -0.009685  -0.000714  -0.004656   0.000167   0.004852
     4  C    0.045559  -0.039313   0.001978   0.002586   0.000313   0.004887
     5  O   -0.001703   0.001041   0.000141  -0.001415   0.000157  -0.000336
     6  O   -0.062611   0.007840   0.002937  -0.015975   0.001262   0.000525
     7  C    0.420129  -0.021311  -0.021184   0.105033  -0.008440   0.001944
     8  C   -0.021311  -0.017251   0.007203  -0.011644   0.004195   0.001599
     9  H   -0.021184   0.007203  -0.001863   0.006670   0.000020  -0.001513
    10  H    0.105033  -0.011644   0.006670  -0.060173   0.001144  -0.001816
    11  H   -0.008440   0.004195   0.000020   0.001144   0.003592  -0.002222
    12  H    0.001944   0.001599  -0.001513  -0.001816  -0.002222   0.021735
    13  H   -0.003062   0.003767  -0.000092  -0.001279  -0.000335  -0.000336
    14  O   -0.124558   0.023896   0.004125  -0.056684   0.002297  -0.001899
    15  H    0.009698  -0.002552  -0.000187   0.003783  -0.000364   0.000222
              13         14         15
     1  C   -0.000744   0.007901  -0.000978
     2  H   -0.000008   0.000084  -0.000016
     3  C    0.000179   0.003847  -0.000532
     4  C    0.000963  -0.004674  -0.000057
     5  O   -0.000022   0.000308  -0.000058
     6  O    0.000240   0.032641  -0.003131
     7  C   -0.003062  -0.124558   0.009698
     8  C    0.003767   0.023896  -0.002552
     9  H   -0.000092   0.004125  -0.000187
    10  H   -0.001279  -0.056684   0.003783
    11  H   -0.000335   0.002297  -0.000364
    12  H   -0.000336  -0.001899   0.000222
    13  H    0.000400   0.000535   0.000013
    14  O    0.000535   0.857837   0.006748
    15  H    0.000013   0.006748  -0.028678
 Mulliken charges and spin densities:
               1          2
     1  C   -1.306476   0.018171
     2  H    0.203735   0.000056
     3  C    1.516631  -0.011701
     4  C   -0.194243   0.000310
     5  O   -0.240659   0.002662
     6  O   -0.061121  -0.005152
     7  C   -0.506154   0.285959
     8  C   -0.379785  -0.002231
     9  H    0.198303  -0.002790
    10  H    0.303769  -0.040147
    11  H    0.204194   0.002493
    12  H    0.146653   0.015836
    13  H    0.171649   0.000219
    14  O   -0.317459   0.752405
    15  H    0.260965  -0.016088
 Sum of Mulliken charges =  -0.00000   1.00000
 Mulliken charges and spin densities with hydrogens summed into heavy atoms:
               1          2
     1  C   -1.102741   0.018227
     3  C    1.516631  -0.011701
     4  C   -0.194243   0.000310
     5  O   -0.240659   0.002662
     6  O   -0.061121  -0.005152
     7  C   -0.004082   0.243021
     8  C    0.142710   0.016316
    14  O   -0.056494   0.736318
 APT charges:
               1
     1  C   -0.166606
     2  H    0.235730
     3  C   -0.300267
     4  C    1.593597
     5  O   -0.845017
     6  O   -1.022357
     7  C    0.903658
     8  C   -0.148947
     9  H   -0.062351
    10  H   -0.457788
    11  H    0.032112
    12  H    0.015825
    13  H    0.025406
    14  O   -0.117231
    15  H    0.314237
 Sum of APT charges =  -0.00000
 APT charges with hydrogens summed into heavy atoms:
               1
     1  C    0.069123
     3  C   -0.300267
     4  C    1.593597
     5  O   -0.845017
     6  O   -1.022357
     7  C    0.383519
     8  C   -0.075605
    14  O    0.197006
 Electronic spatial extent (au):  <R**2>=           1190.1867
 Charge=             -0.0000 electrons
 Dipole moment (field-independent basis, Debye):
    X=              0.9517    Y=              3.8226    Z=             -0.5286  Tot=              3.9746
 Quadrupole moment (field-independent basis, Debye-Ang):
   XX=            -52.6098   YY=            -46.3420   ZZ=            -48.0197
   XY=              9.1861   XZ=             -5.6515   YZ=              0.3436
 Traceless Quadrupole moment (field-independent basis, Debye-Ang):
   XX=             -3.6193   YY=              2.6485   ZZ=              0.9708
   XY=              9.1861   XZ=             -5.6515   YZ=              0.3436
 Octapole moment (field-independent basis, Debye-Ang**2):
  XXX=             28.3307  YYY=              6.0127  ZZZ=              3.5578  XYY=            -10.6323
  XXY=             15.3064  XXZ=              0.2922  XZZ=              0.3578  YZZ=             -0.1893
  YYZ=             -8.0317  XYZ=             -3.7337
 Hexadecapole moment (field-independent basis, Debye-Ang**3):
 XXXX=          -1035.4278 YYYY=           -406.8227 ZZZZ=           -157.9610 XXXY=             84.6684
 XXXZ=            -48.4963 YYYX=             49.4295 YYYZ=             -1.5621 ZZZX=              1.5035
 ZZZY=             -4.3054 XXYY=           -177.4159 XXZZ=           -193.6646 YYZZ=            -92.2138
 XXYZ=            -18.6518 YYXZ=            -13.2328 ZZXY=              3.1720
 N-N= 3.505606693332D+02 E-N=-1.685184813492D+03  KE= 4.188338726860D+02
  Exact polarizability:  97.515  14.017  80.256   1.885  -3.513  54.172
 Approx polarizability:  94.943  14.052  97.833  -0.459 -11.125  63.087
                          Isotropic Fermi Contact Couplings
        Atom                 a.u.       MegaHertz       Gauss      10(-4) cm-1
     1  C(13)              0.00132       1.48874       0.53122       0.49659
     2  H(1)              -0.00006      -0.26439      -0.09434      -0.08819
     3  C(13)             -0.00047      -0.53059      -0.18933      -0.17699
     4  C(13)              0.01112      12.49581       4.45881       4.16815
     5  O(17)              0.00003      -0.01581      -0.00564      -0.00527
     6  O(17)              0.00815      -4.94108      -1.76310      -1.64817
     7  C(13)              0.13663     153.59585      54.80682      51.23406
     8  C(13)             -0.00274      -3.07621      -1.09767      -1.02611
     9  H(1)               0.00022       0.99577       0.35531       0.33215
    10  H(1)              -0.01264     -56.50837     -20.16359     -18.84916
    11  H(1)               0.00146       6.53583       2.33215       2.18012
    12  H(1)               0.00813      36.34716      12.96957      12.12411
    13  H(1)               0.00047       2.11066       0.75314       0.70404
    14  O(17)              0.12278     -74.42797     -26.55775     -24.82650
    15  H(1)              -0.01290     -57.66324     -20.57568     -19.23439
 --------------------------------------------------------
       Center         ----  Spin Dipole Couplings  ----
                      3XX-RR        3YY-RR        3ZZ-RR
 --------------------------------------------------------
     1   Atom        0.005962     -0.003481     -0.002481
     2   Atom        0.001332     -0.000397     -0.000935
     3   Atom        0.004127     -0.001292     -0.002834
     4   Atom        0.009663     -0.002424     -0.007239
     5   Atom        0.000469     -0.004262      0.003792
     6   Atom        0.029563     -0.027456     -0.002107
     7   Atom        0.288544     -0.126347     -0.162197
     8   Atom       -0.005429      0.000959      0.004470
     9   Atom        0.001835     -0.014199      0.012364
    10   Atom        0.128466     -0.035607     -0.092859
    11   Atom       -0.003512     -0.004137      0.007649
    12   Atom        0.001210     -0.001094     -0.000116
    13   Atom       -0.003309      0.006679     -0.003371
    14   Atom        1.882542     -0.471485     -1.411057
    15   Atom       -0.013540      0.096236     -0.082696
 --------------------------------------------------------
                        XY            XZ            YZ
 --------------------------------------------------------
     1   Atom       -0.000731      0.002288     -0.000602
     2   Atom        0.001006     -0.000350     -0.000307
     3   Atom        0.000374     -0.000543     -0.000722
     4   Atom       -0.007838     -0.000420      0.000495
     5   Atom       -0.007902     -0.011019      0.003720
     6   Atom        0.021973      0.024300      0.020888
     7   Atom        0.195932      0.136912      0.054903
     8   Atom        0.009381      0.009638      0.015948
     9   Atom        0.015328     -0.012237     -0.013722
    10   Atom        0.120604      0.052088      0.022161
    11   Atom        0.001548      0.000528      0.004845
    12   Atom        0.003070      0.002962      0.004260
    13   Atom       -0.000222      0.000155      0.005726
    14   Atom        1.896138      0.588157      0.332297
    15   Atom       -0.056992      0.039627     -0.060119
 --------------------------------------------------------


 ---------------------------------------------------------------------------------
              Anisotropic Spin Dipole Couplings in Principal Axis System
 ---------------------------------------------------------------------------------

       Atom             a.u.   MegaHertz   Gauss  10(-4) cm-1        Axes

              Baa    -0.0038    -0.507    -0.181    -0.169 -0.0503  0.8692  0.4919
     1 C(13)  Bbb    -0.0028    -0.381    -0.136    -0.127 -0.2575 -0.4871  0.8345
              Bcc     0.0066     0.888     0.317     0.296  0.9650 -0.0847  0.2483
 
              Baa    -0.0011    -0.578    -0.206    -0.193 -0.0905  0.5141  0.8529
     2 H(1)   Bbb    -0.0008    -0.417    -0.149    -0.139 -0.4385  0.7484 -0.4976
              Bcc     0.0019     0.995     0.355     0.332  0.8942  0.4190 -0.1577
 
              Baa    -0.0031    -0.421    -0.150    -0.140  0.0514  0.3548  0.9335
     3 C(13)  Bbb    -0.0011    -0.143    -0.051    -0.048 -0.1036  0.9316 -0.3484
              Bcc     0.0042     0.564     0.201     0.188  0.9933  0.0788 -0.0847
 
              Baa    -0.0073    -0.982    -0.351    -0.328 -0.0813 -0.2282  0.9702
     4 C(13)  Bbb    -0.0062    -0.834    -0.298    -0.278  0.4348  0.8678  0.2406
              Bcc     0.0135     1.816     0.648     0.606  0.8968 -0.4414 -0.0286
 
              Baa    -0.0116     0.842     0.301     0.281  0.7209  0.5833  0.3741
     5 O(17)  Bbb    -0.0048     0.346     0.123     0.115 -0.2539  0.7246 -0.6407
              Bcc     0.0164    -1.188    -0.424    -0.396 -0.6448  0.3669  0.6705
 
              Baa    -0.0403     2.914     1.040     0.972 -0.1442  0.9038 -0.4029
     6 O(17)  Bbb    -0.0132     0.953     0.340     0.318 -0.5738  0.2553  0.7782
              Bcc     0.0534    -3.867    -1.380    -1.290  0.8062  0.3434  0.4818
 
              Baa    -0.2043   -27.415    -9.782    -9.145 -0.3411  0.9338 -0.1084
     7 C(13)  Bbb    -0.2005   -26.908    -9.602    -8.976 -0.2739  0.0116  0.9617
              Bcc     0.4048    54.323    19.384    18.120  0.8992  0.3577  0.2518
 
              Baa    -0.0135    -1.806    -0.644    -0.602 -0.2226  0.7848 -0.5784
     8 C(13)  Bbb    -0.0113    -1.515    -0.540    -0.505  0.8859 -0.0848 -0.4560
              Bcc     0.0247     3.321     1.185     1.108  0.4069  0.6140  0.6764
 
              Baa    -0.0245   -13.079    -4.667    -4.363 -0.4275  0.8844  0.1872
     9 H(1)   Bbb    -0.0051    -2.720    -0.971    -0.907  0.7178  0.2062  0.6650
              Bcc     0.0296    15.800     5.638     5.270 -0.5495 -0.4187  0.7230
 
              Baa    -0.1067   -56.907   -20.306   -18.982 -0.3922  0.4087  0.8241
    10 H(1)   Bbb    -0.0964   -51.427   -18.351   -17.154 -0.2999  0.7901 -0.5346
              Bcc     0.2030   108.335    38.657    36.137  0.8696  0.4569  0.1873
 
              Baa    -0.0064    -3.438    -1.227    -1.147 -0.4073  0.8682 -0.2832
    11 H(1)   Bbb    -0.0030    -1.612    -0.575    -0.538  0.9099  0.3590 -0.2081
              Bcc     0.0095     5.050     1.802     1.685  0.0790  0.3425  0.9362
 
              Baa    -0.0049    -2.624    -0.936    -0.875 -0.0790  0.7694 -0.6338
    12 H(1)   Bbb    -0.0020    -1.047    -0.373    -0.349  0.7956 -0.3344 -0.5052
              Bcc     0.0069     3.671     1.310     1.224  0.6006  0.5442  0.5857
 
              Baa    -0.0060    -3.193    -1.139    -1.065 -0.0866 -0.4117  0.9072
    13 H(1)   Bbb    -0.0033    -1.755    -0.626    -0.586  0.9962 -0.0258  0.0834
              Bcc     0.0093     4.948     1.766     1.651 -0.0110  0.9109  0.4124
 
              Baa    -1.5276   110.538    39.443    36.871 -0.4241  0.8552 -0.2978
    14 O(17)  Bbb    -1.5122   109.420    39.044    36.499 -0.2715  0.1937  0.9427
              Bcc     3.0398  -219.958   -78.486   -73.370  0.8639  0.4807  0.1501
 
              Baa    -0.1072   -57.170   -20.400   -19.070 -0.2758  0.2006  0.9400
    15 H(1)   Bbb    -0.0357   -19.028    -6.790    -6.347  0.8772  0.4524  0.1609
              Bcc     0.1428    76.198    27.189    25.417 -0.3930  0.8690 -0.3007
 

 ---------------------------------------------------------------------------------

 Calling FoFJK, ICntrl=    100127 FMM=F ISym2X=0 I1Cent= 0 IOpClX= 1 NMat=1 NMatS=1 NMatT=0.
 Full mass-weighted force constant matrix:
 Low frequencies --- -756.3859  -29.6002  -20.2845   -8.5813   -0.0009    0.0003
 Low frequencies ---    0.0008   28.6824   52.9666
 ******    1 imaginary frequencies (negative Signs) ****** 
 Diagonal vibrational polarizability:
      163.5419634      65.9614000      76.7842724
 Harmonic frequencies (cm**-1), IR intensities (KM/Mole), Raman scattering
 activities (A**4/AMU), depolarization ratios for plane and unpolarized
 incident light, reduced masses (AMU), force constants (mDyne/A),
 and normal coordinates:
                      1                      2                      3
                      A                      A                      A
 Frequencies --   -756.3858                20.0885                52.2770
 Red. masses --      1.6302                 5.7843                 6.0691
 Frc consts  --      0.5495                 0.0014                 0.0098
 IR Inten    --   1051.6966                 0.0949                10.0537
  Atom  AN      X      Y      Z        X      Y      Z        X      Y      Z
     1   6     0.00  -0.00   0.00     0.05   0.09   0.26    -0.05   0.02  -0.16
     2   1     0.00  -0.00   0.00     0.05   0.14   0.38    -0.11   0.03  -0.25
     3   6     0.00  -0.00   0.00     0.04   0.04   0.12     0.02   0.01  -0.05
     4   6    -0.01   0.00   0.01     0.03  -0.02  -0.03     0.09   0.01   0.06
     5   8     0.00  -0.00   0.00     0.03  -0.01  -0.03     0.17   0.10   0.22
     6   8     0.01  -0.01  -0.01     0.02  -0.07  -0.18     0.07  -0.12  -0.07
     7   6     0.06   0.07  -0.02     0.03  -0.07  -0.21     0.03  -0.12   0.01
     8   6     0.04   0.02   0.03     0.00  -0.04  -0.24    -0.03  -0.21   0.08
     9   1     0.38   0.15   0.19     0.03  -0.10  -0.22     0.04  -0.03   0.06
    10   1     0.62   0.57  -0.15     0.02  -0.08  -0.19     0.06  -0.08  -0.04
    11   1    -0.01  -0.00  -0.02    -0.02  -0.03  -0.24    -0.02  -0.30   0.04
    12   1    -0.00   0.05   0.10    -0.01  -0.02  -0.22    -0.04  -0.20   0.13
    13   1     0.02   0.01   0.02    -0.01  -0.06  -0.27    -0.06  -0.21   0.15
    14   8    -0.14  -0.11  -0.02    -0.15   0.08   0.32    -0.24   0.28  -0.11
    15   1     0.04  -0.02   0.03    -0.20   0.07   0.35    -0.53   0.12  -0.15
                      4                      5                      6
                      A                      A                      A
 Frequencies --     87.2391                90.0971               157.5836
 Red. masses --      4.5927                 2.9463                 2.9200
 Frc consts  --      0.0206                 0.0141                 0.0427
 IR Inten    --      6.2075                 1.6621                 2.2057
  Atom  AN      X      Y      Z        X      Y      Z        X      Y      Z
     1   6     0.06  -0.01   0.01    -0.15   0.10   0.07     0.28  -0.12   0.05
     2   1     0.05  -0.01   0.02    -0.22   0.17   0.09     0.49  -0.27   0.10
     3   6     0.06  -0.02  -0.00    -0.06   0.02   0.04    -0.00   0.07  -0.02
     4   6     0.08  -0.03   0.00     0.00  -0.03   0.02    -0.02   0.08  -0.02
     5   8     0.09  -0.09  -0.19     0.05  -0.03  -0.05     0.03   0.10  -0.03
     6   8     0.09   0.04   0.29    -0.00  -0.06   0.09    -0.03   0.00  -0.01
     7   6     0.04  -0.06   0.04    -0.01  -0.08   0.04    -0.12  -0.04   0.04
     8   6    -0.24   0.07  -0.10     0.25   0.10  -0.07     0.03   0.01   0.02
     9   1     0.15  -0.12   0.08    -0.15  -0.22  -0.10    -0.27  -0.06  -0.05
    10   1     0.13  -0.15  -0.09    -0.08  -0.06   0.25    -0.18  -0.09   0.21
    11   1    -0.31   0.13  -0.11     0.39   0.26   0.11     0.30  -0.02   0.18
    12   1    -0.33   0.23  -0.00     0.33   0.11  -0.32     0.07   0.17  -0.24
    13   1    -0.29  -0.04  -0.31     0.23   0.08  -0.10    -0.17  -0.09   0.12
    14   8    -0.11   0.07  -0.05    -0.09  -0.00  -0.10    -0.13  -0.08  -0.02
    15   1    -0.37   0.04   0.19    -0.17  -0.08  -0.19    -0.12  -0.15  -0.24
                      7                      8                      9
                      A                      A                      A
 Frequencies --    215.7531               223.0144               258.4606
 Red. masses --      1.1281                 1.1689                 4.7287
 Frc consts  --      0.0309                 0.0343                 0.1861
 IR Inten    --      8.1399                97.6929                 0.4404
  Atom  AN      X      Y      Z        X      Y      Z        X      Y      Z
     1   6     0.03  -0.02   0.00     0.02  -0.01   0.02    -0.00  -0.08  -0.21
     2   1     0.08  -0.05   0.02     0.07  -0.02   0.07    -0.01  -0.27  -0.72
     3   6    -0.03   0.03  -0.01    -0.03   0.01  -0.04     0.01   0.17   0.44
     4   6    -0.01   0.02  -0.00    -0.02   0.01  -0.02    -0.00   0.06   0.14
     5   8     0.03   0.03  -0.02     0.01   0.03  -0.00    -0.01  -0.03  -0.14
     6   8    -0.02  -0.02   0.03    -0.02  -0.01   0.00    -0.02  -0.03  -0.06
     7   6    -0.01  -0.02   0.01    -0.01  -0.01   0.01    -0.00  -0.01  -0.03
     8   6     0.01  -0.00  -0.01     0.03  -0.01   0.01     0.02  -0.03  -0.02
     9   1     0.00  -0.05   0.00    -0.01  -0.02   0.00    -0.01  -0.02  -0.03
    10   1    -0.02  -0.01   0.02    -0.01  -0.01  -0.03    -0.01  -0.01  -0.03
    11   1    -0.45   0.20  -0.18    -0.04   0.04  -0.01     0.01  -0.02  -0.02
    12   1     0.05  -0.43   0.31     0.06  -0.13   0.05     0.03  -0.06  -0.01
    13   1     0.50   0.25  -0.17     0.14   0.06   0.01     0.05  -0.00   0.00
    14   8    -0.01  -0.00   0.02     0.02  -0.02  -0.06     0.01  -0.00  -0.02
    15   1     0.06  -0.06  -0.26    -0.26   0.19   0.91    -0.06   0.06   0.25
                     10                     11                     12
                      A                      A                      A
 Frequencies --    311.8598               402.5259               550.1960
 Red. masses --      3.6835                 3.3719                 5.5062
 Frc consts  --      0.2111                 0.3219                 0.9821
 IR Inten    --      8.3283                 9.9492                 3.0336
  Atom  AN      X      Y      Z        X      Y      Z        X      Y      Z
     1   6     0.01   0.09  -0.03     0.03   0.05  -0.01    -0.15  -0.20   0.08
     2   1    -0.17   0.22  -0.09     0.04   0.05   0.00    -0.22  -0.16   0.07
     3   6     0.26  -0.08   0.03     0.02   0.04  -0.03    -0.06  -0.22   0.08
     4   6     0.11   0.00  -0.01    -0.03   0.07   0.03     0.01  -0.06   0.04
     5   8    -0.12  -0.10   0.05    -0.14   0.01  -0.02     0.31   0.05  -0.05
     6   8     0.12   0.13  -0.09     0.01   0.13   0.20     0.01   0.20   0.00
     7   6    -0.11   0.03   0.03     0.02  -0.02  -0.17    -0.13   0.20  -0.16
     8   6    -0.01   0.03   0.05     0.10  -0.22  -0.05    -0.01   0.01   0.01
     9   1    -0.39   0.08  -0.10     0.11  -0.10  -0.15    -0.25   0.17  -0.25
    10   1    -0.21  -0.20   0.26     0.02  -0.08  -0.21    -0.21  -0.01  -0.00
    11   1    -0.21   0.16  -0.00     0.24  -0.51  -0.13     0.09  -0.26  -0.08
    12   1     0.05  -0.24   0.14     0.18  -0.42  -0.08     0.08  -0.25   0.00
    13   1     0.27   0.20   0.02     0.10  -0.09   0.36     0.04   0.18   0.42
    14   8    -0.13  -0.10  -0.03    -0.02  -0.01   0.01    -0.04  -0.02  -0.01
    15   1    -0.31  -0.12   0.13    -0.01  -0.04  -0.10     0.03   0.02   0.01
                     13                     14                     15
                      A                      A                      A
 Frequencies --    617.2148               715.5065               736.7701
 Red. masses --      4.4555                 1.8669                 1.3309
 Frc consts  --      1.0000                 0.5631                 0.4257
 IR Inten    --      1.6328                65.4244                33.7977
  Atom  AN      X      Y      Z        X      Y      Z        X      Y      Z
     1   6     0.03   0.05  -0.02     0.04   0.06  -0.03    -0.12   0.08  -0.03
     2   1    -0.32   0.31  -0.08     0.18  -0.03  -0.00     0.79  -0.55   0.19
     3   6     0.35  -0.19   0.04    -0.04   0.10  -0.03     0.06  -0.05   0.02
     4   6    -0.09   0.06  -0.01     0.07  -0.08   0.02    -0.01   0.00  -0.00
     5   8     0.05   0.14  -0.05     0.03  -0.12   0.04     0.00   0.01  -0.00
     6   8    -0.20  -0.12   0.07     0.01  -0.01   0.02    -0.00  -0.00   0.00
     7   6    -0.12  -0.05   0.01    -0.13   0.01  -0.03     0.00  -0.00   0.00
     8   6    -0.01  -0.02  -0.02    -0.03   0.00  -0.01     0.00  -0.00   0.00
     9   1     0.15  -0.09   0.15    -0.08   0.03   0.01     0.02   0.00   0.01
    10   1    -0.05   0.25  -0.22    -0.10   0.19  -0.12     0.01  -0.01  -0.01
    11   1     0.07   0.08   0.09     0.05   0.04   0.06     0.00   0.01   0.01
    12   1     0.06  -0.05  -0.18     0.07  -0.12  -0.15     0.00   0.00  -0.01
    13   1     0.02   0.01  -0.01     0.04   0.08   0.10     0.00  -0.00  -0.01
    14   8     0.01   0.03  -0.00    -0.04   0.02  -0.01     0.00  -0.00   0.00
    15   1     0.46   0.27   0.07     0.74   0.44   0.12    -0.04  -0.02  -0.01
                     16                     17                     18
                      A                      A                      A
 Frequencies --    762.1123               776.7495               790.8010
 Red. masses --     12.0949                 1.2868                 2.5820
 Frc consts  --      4.1390                 0.4574                 0.9513
 IR Inten    --     20.3372                40.3470                53.2583
  Atom  AN      X      Y      Z        X      Y      Z        X      Y      Z
     1   6     0.01   0.04   0.08    -0.00  -0.05  -0.14    -0.09  -0.11   0.04
     2   1     0.04  -0.05  -0.07     0.03   0.35   0.92    -0.09  -0.10   0.09
     3   6    -0.02  -0.12  -0.36     0.00   0.02   0.04    -0.05  -0.09   0.04
     4   6     0.07   0.27   0.81     0.00   0.01   0.04     0.03   0.12  -0.04
     5   8    -0.01  -0.10  -0.22     0.00  -0.01  -0.01    -0.07   0.10  -0.03
     6   8    -0.02  -0.06  -0.16    -0.00  -0.00  -0.01     0.14   0.08  -0.03
     7   6    -0.02   0.00  -0.00    -0.00   0.00  -0.00     0.02  -0.12   0.09
     8   6    -0.00  -0.01  -0.01    -0.00   0.00   0.00     0.02  -0.09  -0.03
     9   1    -0.08   0.04  -0.03    -0.01  -0.00  -0.01    -0.06   0.03   0.11
    10   1     0.00   0.02   0.02    -0.00   0.00   0.01     0.02   0.07   0.06
    11   1    -0.01   0.02   0.00    -0.00  -0.01  -0.00    -0.05   0.18   0.09
    12   1    -0.01   0.01  -0.02    -0.00   0.00   0.01    -0.01   0.06  -0.11
    13   1     0.01  -0.01  -0.03    -0.00   0.00   0.01     0.04  -0.19  -0.37
    14   8     0.01   0.01  -0.00     0.00   0.00  -0.00    -0.05   0.01  -0.02
    15   1     0.02   0.02   0.03    -0.01  -0.00   0.00     0.65   0.39   0.11
                     19                     20                     21
                      A                      A                      A
 Frequencies --    798.5565               963.5162              1080.7520
 Red. masses --      1.1737                 2.2836                 2.6967
 Frc consts  --      0.4410                 1.2491                 1.8558
 IR Inten    --     36.5571                36.4144               507.3172
  Atom  AN      X      Y      Z        X      Y      Z        X      Y      Z
     1   6     0.01   0.01  -0.00    -0.04  -0.05   0.02     0.03   0.04  -0.01
     2   1     0.02   0.00  -0.01    -0.03  -0.06   0.02     0.02   0.05  -0.02
     3   6     0.02  -0.00  -0.00    -0.02  -0.03   0.01     0.02   0.01  -0.01
     4   6    -0.01  -0.00   0.00     0.07   0.08  -0.03    -0.09  -0.07   0.03
     5   8     0.00   0.01  -0.00    -0.07   0.05  -0.01     0.05  -0.01  -0.00
     6   8    -0.03  -0.02   0.01     0.09  -0.12   0.01    -0.11   0.12  -0.04
     7   6     0.08   0.02  -0.02     0.01  -0.08  -0.09     0.24  -0.08  -0.04
     8   6     0.04   0.02  -0.00    -0.06   0.18   0.07    -0.06   0.03   0.11
     9   1    -0.24  -0.24  -0.31     0.11  -0.29  -0.14     0.13  -0.10  -0.12
    10   1    -0.14   0.11   0.45     0.05  -0.17  -0.23    -0.10  -0.64  -0.20
    11   1    -0.13  -0.28  -0.28     0.14  -0.13   0.02     0.09   0.25   0.33
    12   1    -0.17   0.18   0.40     0.04  -0.16   0.11     0.07  -0.01  -0.15
    13   1    -0.16  -0.11   0.02    -0.03   0.40   0.65     0.15   0.12   0.01
    14   8    -0.04  -0.01  -0.02    -0.01   0.00  -0.00    -0.09  -0.04  -0.01
    15   1     0.26   0.16   0.08     0.13   0.07   0.01     0.30   0.17   0.03
                     22                     23                     24
                      A                      A                      A
 Frequencies --   1119.6363              1162.0923              1231.0783
 Red. masses --      2.0612                 2.4141                 1.6972
 Frc consts  --      1.5224                 1.9208                 1.5155
 IR Inten    --     84.2809                53.8566               768.9656
  Atom  AN      X      Y      Z        X      Y      Z        X      Y      Z
     1   6     0.00   0.00  -0.00    -0.01  -0.01   0.00     0.02   0.02  -0.01
     2   1     0.00   0.00   0.00    -0.01  -0.00   0.00     0.01   0.03  -0.01
     3   6     0.00   0.00   0.00     0.00  -0.01   0.00     0.01   0.00  -0.00
     4   6    -0.00  -0.00  -0.00     0.00   0.03  -0.01    -0.14  -0.05   0.03
     5   8    -0.00   0.01   0.00    -0.04   0.03  -0.01     0.02   0.00  -0.00
     6   8    -0.02  -0.02  -0.03     0.05  -0.15   0.07     0.07   0.05  -0.02
     7   6     0.10   0.09   0.19     0.08   0.19  -0.13    -0.01  -0.11  -0.05
     8   6    -0.09  -0.00  -0.17    -0.08  -0.09   0.07    -0.08  -0.00   0.02
     9   1     0.02   0.10   0.17    -0.24   0.31  -0.25     0.04  -0.33  -0.12
    10   1     0.02  -0.07   0.33    -0.07  -0.07   0.38     0.09   0.61   0.52
    11   1     0.25  -0.34  -0.15     0.01   0.34   0.35     0.06   0.13   0.19
    12   1     0.14  -0.51  -0.33     0.06   0.01  -0.40     0.03  -0.14  -0.19
    13   1     0.06   0.25   0.30     0.23   0.02  -0.24     0.06   0.13   0.12
    14   8    -0.02  -0.01  -0.01    -0.01  -0.01  -0.00     0.05   0.02   0.01
    15   1     0.07   0.05   0.03     0.05   0.03   0.02    -0.11  -0.06   0.00
                     25                     26                     27
                      A                      A                      A
 Frequencies --   1250.2990              1357.2294              1377.4127
 Red. masses --      3.8369                 1.1198                 1.1822
 Frc consts  --      3.5339                 1.2154                 1.3215
 IR Inten    --    405.8896                73.9862                65.3024
  Atom  AN      X      Y      Z        X      Y      Z        X      Y      Z
     1   6    -0.04  -0.06   0.02     0.00   0.00  -0.00     0.00   0.00  -0.00
     2   1    -0.02  -0.09   0.03     0.00   0.01  -0.00     0.00   0.01  -0.00
     3   6    -0.03  -0.00   0.00    -0.00   0.00  -0.00     0.00  -0.00   0.00
     4   6     0.36   0.11  -0.07    -0.02  -0.01   0.01    -0.01  -0.01   0.00
     5   8    -0.01  -0.04   0.01    -0.00   0.00  -0.00     0.00   0.00  -0.00
     6   8    -0.23   0.06   0.00     0.01  -0.01   0.00    -0.02   0.00   0.02
     7   6     0.08  -0.09  -0.05    -0.01  -0.04  -0.08     0.04  -0.09  -0.01
     8   6    -0.06  -0.03   0.02     0.03   0.02  -0.02     0.00  -0.01  -0.07
     9   1     0.14  -0.11  -0.03     0.48   0.43   0.43    -0.55   0.60  -0.02
    10   1    -0.20   0.61   0.36    -0.38  -0.13   0.43     0.23   0.09  -0.06
    11   1     0.08   0.17   0.23    -0.02   0.03  -0.04     0.10   0.18   0.12
    12   1    -0.00  -0.03  -0.13    -0.03   0.05   0.13    -0.14   0.07   0.27
    13   1     0.11   0.08   0.01    -0.07   0.01   0.11     0.00   0.12   0.30
    14   8     0.02  -0.00   0.00    -0.01  -0.01  -0.00     0.01   0.01   0.00
    15   1    -0.21  -0.12  -0.01     0.04   0.03   0.03    -0.00  -0.00  -0.01
                     28                     29                     30
                      A                      A                      A
 Frequencies --   1420.3006              1484.0634              1490.3011
 Red. masses --      1.3420                 1.0412                 1.0459
 Frc consts  --      1.5950                 1.3511                 1.3686
 IR Inten    --     47.7747                 5.1231                 5.7547
  Atom  AN      X      Y      Z        X      Y      Z        X      Y      Z
     1   6    -0.00  -0.00   0.00     0.00   0.00  -0.00    -0.00  -0.00   0.00
     2   1    -0.00  -0.00   0.00    -0.00   0.00  -0.00     0.00  -0.00  -0.00
     3   6    -0.00   0.00  -0.00     0.00  -0.00  -0.00    -0.00   0.00  -0.00
     4   6     0.00   0.00  -0.00    -0.01  -0.00   0.00    -0.00   0.00   0.00
     5   8    -0.00  -0.00   0.00     0.00  -0.00   0.00    -0.00  -0.00  -0.00
     6   8     0.01  -0.00  -0.01     0.01   0.00  -0.00     0.01  -0.01   0.00
     7   6    -0.02   0.08   0.04    -0.02  -0.01  -0.00    -0.01   0.03  -0.01
     8   6     0.01  -0.11  -0.10    -0.05  -0.01   0.00    -0.01   0.03  -0.03
     9   1     0.24  -0.38  -0.03     0.04   0.01   0.04     0.06  -0.09  -0.03
    10   1    -0.07  -0.09  -0.03    -0.05   0.01  -0.03    -0.06   0.01  -0.03
    11   1    -0.02   0.46   0.23     0.43  -0.40   0.06     0.45   0.15   0.34
    12   1    -0.25   0.34   0.24    -0.21   0.33   0.18    -0.03  -0.47   0.50
    13   1     0.11   0.16   0.47     0.55   0.27  -0.29    -0.22  -0.21  -0.28
    14   8    -0.01  -0.00  -0.00    -0.00  -0.00   0.00    -0.00  -0.00   0.00
    15   1     0.01   0.01  -0.00    -0.00  -0.00   0.00    -0.01  -0.00  -0.00
                     31                     32                     33
                      A                      A                      A
 Frequencies --   1653.9956              1876.1221              2254.3586
 Red. masses --      1.1477                12.0965                 5.7244
 Frc consts  --      1.8499                25.0861                17.1406
 IR Inten    --    461.8176               476.5120                62.4607
  Atom  AN      X      Y      Z        X      Y      Z        X      Y      Z
     1   6    -0.00  -0.00   0.00    -0.03  -0.04   0.02    -0.22  -0.29   0.11
     2   1    -0.00  -0.01   0.00    -0.07  -0.04   0.02    -0.45  -0.57   0.23
     3   6     0.00   0.00  -0.00     0.03   0.01  -0.01     0.31   0.40  -0.16
     4   6     0.02   0.03  -0.01    -0.32   0.69  -0.22    -0.04  -0.07   0.03
     5   8     0.01  -0.02   0.01     0.21  -0.46   0.15    -0.00   0.00  -0.00
     6   8    -0.04   0.02  -0.01     0.02  -0.03   0.01    -0.00  -0.00   0.00
     7   6    -0.08  -0.01  -0.03     0.06  -0.01   0.01    -0.00  -0.00   0.00
     8   6    -0.00  -0.00   0.00    -0.00   0.01  -0.00    -0.00   0.00  -0.00
     9   1     0.07  -0.08   0.02    -0.05   0.08   0.00    -0.01   0.00   0.00
    10   1     0.74  -0.46   0.45    -0.24   0.03  -0.12    -0.01  -0.00  -0.00
    11   1     0.03  -0.01   0.02    -0.01  -0.00  -0.01    -0.00  -0.00  -0.00
    12   1    -0.02  -0.01   0.03     0.01  -0.01  -0.02     0.00   0.00   0.00
    13   1     0.01  -0.01  -0.04    -0.01   0.01   0.03     0.00   0.00   0.00
    14   8     0.02   0.02   0.00    -0.01  -0.01  -0.00    -0.00  -0.00   0.00
    15   1     0.09   0.05   0.02     0.02   0.01   0.01     0.00   0.00   0.00
                     34                     35                     36
                      A                      A                      A
 Frequencies --   3064.9688              3118.6978              3141.5159
 Red. masses --      1.0366                 1.0850                 1.1001
 Frc consts  --      5.7375                 6.2176                 6.3966
 IR Inten    --      4.4315                 7.2934                 6.1865
  Atom  AN      X      Y      Z        X      Y      Z        X      Y      Z
     1   6    -0.00   0.00   0.00     0.00  -0.00   0.00    -0.00   0.00   0.00
     2   1     0.00   0.00  -0.00     0.00   0.00  -0.00    -0.00  -0.00   0.00
     3   6    -0.00   0.00   0.00     0.00  -0.00   0.00    -0.00   0.00   0.00
     4   6    -0.00  -0.00  -0.00     0.00   0.00   0.00    -0.00  -0.00  -0.00
     5   8     0.00  -0.00   0.00    -0.00   0.00  -0.00     0.00   0.00   0.00
     6   8     0.00   0.00  -0.00    -0.00   0.00   0.00     0.00  -0.00  -0.00
     7   6    -0.00   0.00   0.00     0.04   0.03  -0.07    -0.01  -0.00   0.01
     8   6    -0.01  -0.03  -0.04    -0.01  -0.01   0.01    -0.09   0.01  -0.00
     9   1    -0.00  -0.01   0.01    -0.44  -0.37   0.78     0.06   0.05  -0.10
    10   1     0.01   0.00   0.00     0.00   0.00  -0.01     0.01   0.01   0.01
    11   1    -0.24  -0.22   0.36     0.09   0.09  -0.14     0.19   0.20  -0.33
    12   1     0.65   0.21   0.22     0.09   0.03   0.03     0.60   0.21   0.21
    13   1    -0.26   0.39  -0.14    -0.02   0.03  -0.01     0.29  -0.47   0.17
    14   8    -0.00   0.00  -0.00    -0.00  -0.00   0.00     0.00   0.00  -0.00
    15   1     0.00  -0.00   0.00    -0.00  -0.00  -0.00     0.00   0.00   0.00
                     37                     38                     39
                      A                      A                      A
 Frequencies --   3161.7743              3486.5174              3786.8158
 Red. masses --      1.1028                 1.1704                 1.0669
 Frc consts  --      6.4956                 8.3826                 9.0140
 IR Inten    --      6.9348                65.0705                46.7569
  Atom  AN      X      Y      Z        X      Y      Z        X      Y      Z
     1   6     0.00  -0.00   0.00    -0.07  -0.09   0.04     0.00  -0.00   0.00
     2   1    -0.00   0.00   0.00     0.59   0.74  -0.30    -0.00  -0.00   0.00
     3   6    -0.00  -0.00  -0.00     0.02   0.03  -0.01     0.00   0.00  -0.00
     4   6     0.00   0.00  -0.00    -0.00  -0.00   0.00    -0.00   0.00   0.00
     5   8    -0.00   0.00   0.00     0.00  -0.00   0.00     0.00  -0.00   0.00
     6   8    -0.00  -0.00   0.00     0.00  -0.00   0.00     0.00  -0.00   0.00
     7   6     0.01   0.01  -0.01    -0.00   0.00   0.00    -0.00   0.00  -0.00
     8   6     0.01   0.07  -0.06    -0.00  -0.00   0.00     0.00  -0.00   0.00
     9   1    -0.08  -0.07   0.15     0.00   0.00  -0.00     0.00  -0.00   0.00
    10   1    -0.00  -0.00  -0.00     0.00   0.00   0.00     0.02   0.00   0.01
    11   1    -0.36  -0.32   0.55     0.00   0.00  -0.00    -0.00  -0.00   0.00
    12   1    -0.05  -0.00  -0.03     0.00   0.00   0.00    -0.00   0.00   0.00
    13   1     0.35  -0.52   0.18     0.00  -0.00   0.00    -0.00  -0.00  -0.00
    14   8    -0.00  -0.00   0.00     0.00  -0.00   0.00     0.03  -0.05   0.02
    15   1    -0.00  -0.00  -0.00    -0.00   0.00  -0.00    -0.41   0.86  -0.30

 -------------------
 - Thermochemistry -
 -------------------
 Temperature   298.150 Kelvin.  Pressure   1.00000 Atm.
 Atom     1 has atomic number  6 and mass  12.00000
 Atom     2 has atomic number  1 and mass   1.00783
 Atom     3 has atomic number  6 and mass  12.00000
 Atom     4 has atomic number  6 and mass  12.00000
 Atom     5 has atomic number  8 and mass  15.99491
 Atom     6 has atomic number  8 and mass  15.99491
 Atom     7 has atomic number  6 and mass  12.00000
 Atom     8 has atomic number  6 and mass  12.00000
 Atom     9 has atomic number  1 and mass   1.00783
 Atom    10 has atomic number  1 and mass   1.00783
 Atom    11 has atomic number  1 and mass   1.00783
 Atom    12 has atomic number  1 and mass   1.00783
 Atom    13 has atomic number  1 and mass   1.00783
 Atom    14 has atomic number  8 and mass  15.99491
 Atom    15 has atomic number  1 and mass   1.00783
 Molecular mass:   115.03952 amu.
 Principal axes and moments of inertia in atomic units:
                           1         2         3
     Eigenvalues --   645.041871466.221761839.80348
           X            0.99981   0.01418  -0.01329
           Y           -0.01378   0.99946   0.02982
           Z            0.01371  -0.02963   0.99947
 This molecule is an asymmetric top.
 Rotational symmetry number  1.
 Warning -- assumption of classical behavior for rotation
           may cause significant error
 Rotational temperatures (Kelvin)      0.13428     0.05907     0.04708
 Rotational constants (GHZ):           2.79787     1.23088     0.98094
    1 imaginary frequencies ignored.
 Zero-point vibrational energy     281411.0 (Joules/Mol)
                                   67.25885 (Kcal/Mol)
 Warning -- explicit consideration of  12 degrees of freedom as
           vibrations may cause significant error
 Vibrational temperatures:     28.90    75.21   125.52   129.63   226.73
          (Kelvin)            310.42   320.87   371.87   448.70   579.15
                              791.61   888.03  1029.45  1060.05  1096.51
                             1117.57  1137.79  1148.94  1386.28  1554.96
                             1610.91  1671.99  1771.25  1798.90  1952.75
                             1981.79  2043.50  2135.24  2144.21  2379.73
                             2699.32  3243.52  4409.81  4487.11  4519.94
                             4549.09  5016.32  5448.38
 
 Zero-point correction=                           0.107184 (Hartree/Particle)
 Thermal correction to Energy=                    0.117197
 Thermal correction to Enthalpy=                  0.118142
 Thermal correction to Gibbs Free Energy=         0.069427
 Sum of electronic and zero-point Energies=           -420.084899
 Sum of electronic and thermal Energies=              -420.074886
 Sum of electronic and thermal Enthalpies=            -420.073942
 Sum of electronic and thermal Free Energies=         -420.122656
 
                     E (Thermal)             CV                S
                      KCal/Mol        Cal/Mol-Kelvin    Cal/Mol-Kelvin
 Total                   73.542             32.768            102.529
 Electronic               0.000              0.000              1.377
 Translational            0.889              2.981             40.136
 Rotational               0.889              2.981             28.944
 Vibrational             71.765             26.807             32.072
 Vibration     1          0.593              1.986              6.625
 Vibration     2          0.596              1.977              4.729
 Vibration     3          0.601              1.958              3.721
 Vibration     4          0.602              1.956              3.658
 Vibration     5          0.621              1.894              2.579
 Vibration     6          0.645              1.817              1.994
 Vibration     7          0.649              1.806              1.934
 Vibration     8          0.667              1.748              1.672
 Vibration     9          0.700              1.651              1.352
 Vibration    10          0.768              1.465              0.953
 Vibration    11          0.905              1.139              0.544
 Vibration    12          0.977              0.996              0.421
                       Q            Log10(Q)             Ln(Q)
 Total Bot       0.116378D-31        -31.934130        -73.531051
 Total V=0       0.232785D+18         17.366956         39.988893
 Vib (Bot)       0.254092D-45        -45.595009       -104.986389
 Vib (Bot)    1  0.103115D+02          1.013323          2.333262
 Vib (Bot)    2  0.395348D+01          0.596980          1.374597
 Vib (Bot)    3  0.235791D+01          0.372528          0.857776
 Vib (Bot)    4  0.228200D+01          0.358315          0.825051
 Vib (Bot)    5  0.128385D+01          0.108516          0.249867
 Vib (Bot)    6  0.918423D+00         -0.036957         -0.085097
 Vib (Bot)    7  0.885827D+00         -0.052651         -0.121234
 Vib (Bot)    8  0.752061D+00         -0.123747         -0.284938
 Vib (Bot)    9  0.605683D+00         -0.217755         -0.501399
 Vib (Bot)   10  0.441974D+00         -0.354603         -0.816504
 Vib (Bot)   11  0.285176D+00         -0.544887         -1.254649
 Vib (Bot)   12  0.237632D+00         -0.624095         -1.437031
 Vib (V=0)       0.508248D+04          3.706076          8.533556
 Vib (V=0)    1  0.108236D+02          1.034373          2.381732
 Vib (V=0)    2  0.448498D+01          0.651760          1.500733
 Vib (V=0)    3  0.291034D+01          0.463944          1.068271
 Vib (V=0)    4  0.283613D+01          0.452726          1.042441
 Vib (V=0)    5  0.187778D+01          0.273645          0.630091
 Vib (V=0)    6  0.154571D+01          0.189127          0.435481
 Vib (V=0)    7  0.151720D+01          0.181042          0.416864
 Vib (V=0)    8  0.140310D+01          0.147090          0.338687
 Vib (V=0)    9  0.128540D+01          0.109038          0.251069
 Vib (V=0)   10  0.116734D+01          0.067197          0.154727
 Vib (V=0)   11  0.107561D+01          0.031654          0.072887
 Vib (V=0)   12  0.105360D+01          0.022674          0.052210
 Electronic      0.200000D+01          0.301030          0.693147
 Translational   0.484981D+08          7.685724         17.697035
 Rotational      0.472199D+06          5.674125         13.065156
 ***** Axes restored to original set *****
 -------------------------------------------------------------------
 Center     Atomic                   Forces (Hartrees/Bohr)
 Number     Number              X              Y              Z
 -------------------------------------------------------------------
      1        6           0.000067818    0.000066390    0.000037580
      2        1           0.000052905    0.000068547   -0.000061827
      3        6          -0.000149293   -0.000234715    0.000065253
      4        6          -0.000172136    0.000297136   -0.000010295
      5        8           0.000138785   -0.000238667    0.000119230
      6        8           0.000230008   -0.000391153   -0.000097694
      7        6           0.001114586    0.001382931   -0.000370461
      8        6           0.000658389    0.000361961    0.000492590
      9        1           0.000541895    0.000128468    0.000444424
     10        1           0.000567360    0.000806244   -0.000355310
     11        1           0.000007648    0.000052168   -0.000071902
     12        1          -0.000032369    0.000077609    0.000146078
     13        1           0.000064777   -0.000070485    0.000001915
     14        8          -0.003163772   -0.002286817   -0.000368585
     15        1           0.000073399   -0.000019616    0.000029003
 -------------------------------------------------------------------
 Cartesian Forces:  Max     0.003163772 RMS     0.000693771

 GradGradGradGradGradGradGradGradGradGradGradGradGradGradGradGradGradGrad
 Berny optimization.
 Search for a local minimum.
 Step number   1 out of a maximum of    2
 All quantities printed in internal units (Hartrees-Bohrs-Radians)
 Second derivative matrix not updated -- analytic derivatives used.
 ITU=  0
     Eigenvalues ---   -0.07459   0.00009   0.00064   0.00088   0.00169
     Eigenvalues ---    0.00205   0.00327   0.00430   0.01557   0.02035
     Eigenvalues ---    0.02563   0.02983   0.04169   0.05948   0.06512
     Eigenvalues ---    0.07413   0.08286   0.08621   0.08992   0.09529
     Eigenvalues ---    0.10648   0.12172   0.14808   0.17160   0.21167
     Eigenvalues ---    0.24755   0.27455   0.35262   0.44170   0.55434
     Eigenvalues ---    0.66224   0.74944   0.78358   0.80445   0.83876
     Eigenvalues ---    0.90013   0.94369   1.79680   2.71108
 Eigenvalue     1 is  -7.46D-02 should be greater than     0.000000 Eigenvector:
                          X14       X10       Y10       Y14       X9
   1                    0.52288  -0.52219  -0.45950   0.34904  -0.17293
                          X8        Y9        Y15       Y7        X12
   1                   -0.10836  -0.10088   0.09815  -0.08011  -0.07622
 Angle between quadratic step and forces=  71.31 degrees.
 Linear search not attempted -- first point.
 B after Tr=    -0.000189   -0.000443    0.001150
         Rot=    1.000000    0.000766    0.000494   -0.000226 Ang=   0.11 deg.
 Variable       Old X    -DE/DX   Delta X   Delta X   Delta X     New X
                                 (Linear)    (Quad)   (Total)
    X1        4.66537   0.00007   0.00000   0.00134   0.00134   4.66671
    Y1        2.44653   0.00007   0.00000  -0.01170  -0.01203   2.43450
    Z1       -1.27067   0.00004   0.00000  -0.03562  -0.03359  -1.30426
    X2        5.85380   0.00005   0.00000  -0.00425  -0.00431   5.84949
    Y2        3.95431   0.00007   0.00000  -0.01680  -0.01756   3.93676
    Z2       -1.87637  -0.00006   0.00000  -0.05943  -0.05853  -1.93490
    X3        3.34088  -0.00015   0.00000   0.00396   0.00404   3.34492
    Y3        0.73978  -0.00023   0.00000  -0.00496  -0.00481   0.73497
    Z3       -0.58844   0.00007   0.00000  -0.01315  -0.00982  -0.59826
    X4        1.86200  -0.00017   0.00000   0.00451   0.00467   1.86667
    Y4       -1.42622   0.00030   0.00000   0.00445   0.00530  -1.42092
    Z4        0.28436  -0.00001   0.00000   0.01120   0.01637   0.30073
    X5        2.81806   0.00014   0.00000   0.00639   0.00682   2.82487
    Y5       -3.37157  -0.00024   0.00000   0.00711   0.00936  -3.36221
    Z5        0.89719   0.00012   0.00000   0.01998   0.02907   0.92627
    X6       -0.65947   0.00023   0.00000   0.00626   0.00619  -0.65328
    Y6       -1.11875  -0.00039   0.00000   0.00665   0.00651  -1.11225
    Z6        0.36704  -0.00010   0.00000   0.01968   0.02189   0.38893
    X7       -1.81400   0.00111   0.00000  -0.00115  -0.00156  -1.81556
    Y7        1.20366   0.00138   0.00000   0.00953   0.00775   1.21140
    Z7       -0.35538  -0.00037   0.00000   0.01944   0.01694  -0.33844
    X8       -2.08443   0.00066   0.00000   0.00024  -0.00315  -2.08758
    Y8        3.00479   0.00036   0.00000   0.00318   0.00463   3.00943
    Z8        1.83143   0.00049   0.00000   0.02808   0.02256   1.85399
    X9       -0.90032   0.00054   0.00000   0.01006   0.01094  -0.88938
    Y9        2.00054   0.00013   0.00000   0.01369   0.00978   2.01032
    Z9       -2.02389   0.00044   0.00000   0.02906   0.02625  -1.99764
   X10       -3.80934   0.00057   0.00000   0.02039   0.02091  -3.78843
   Y10        0.59182   0.00081   0.00000   0.01797   0.01429   0.60611
   Z10       -1.00765  -0.00036   0.00000   0.01502   0.01150  -0.99615
   X11       -3.06863   0.00001   0.00000  -0.01120  -0.01569  -3.08432
   Y11        2.08232   0.00005   0.00000   0.00023   0.00361   2.08593
   Z11        3.38988  -0.00007   0.00000   0.01967   0.01459   3.40447
   X12       -0.22799  -0.00003   0.00000  -0.00318  -0.00751  -0.23549
   Y12        3.63228   0.00008   0.00000  -0.00293   0.00038   3.63266
   Z12        2.48675   0.00015   0.00000   0.03813   0.03349   2.52024
   X13       -3.16812   0.00006   0.00000   0.00284  -0.00071  -3.16883
   Y13        4.65872  -0.00007   0.00000   0.00461   0.00467   4.66339
   Z13        1.24744   0.00000   0.00000   0.02671   0.01759   1.26503
   X14       -5.97330  -0.00316   0.00000  -0.02571  -0.02416  -5.99746
   Y14       -0.89755  -0.00229   0.00000  -0.01872  -0.02394  -0.92149
   Z14       -1.28413  -0.00037   0.00000  -0.05524  -0.05861  -1.34273
   X15       -5.21884   0.00007   0.00000   0.00049   0.00219  -5.21665
   Y15       -2.47679  -0.00002   0.00000  -0.00396  -0.00796  -2.48475
   Z15       -0.72520   0.00003   0.00000  -0.04950  -0.04970  -0.77490
         Item               Value     Threshold  Converged?
 Maximum Force            0.003164     0.000450     NO 
 RMS     Force            0.000694     0.000300     NO 
 Maximum Displacement     0.058605     0.001800     NO 
 RMS     Displacement     0.020385     0.001200     NO 
 Predicted change in Energy=-2.681791D-04
 GradGradGradGradGradGradGradGradGradGradGradGradGradGradGradGradGradGrad


 ----------------------------------------------------------------------

 Electric dipole moment (input orientation):
 (Debye = 10**-18 statcoulomb cm , SI units = C m)
                  (au)            (Debye)         (10**-30 SI)
   Tot        0.156372D+01      0.397458D+01      0.132578D+02
   x          0.373949D+00      0.950484D+00      0.317047D+01
   y          0.150404D+01      0.382288D+01      0.127517D+02
   z         -0.207974D+00     -0.528618D+00     -0.176328D+01

 Dipole polarizability, Alpha (input orientation).
 (esu units = cm**3 , SI units = C**2 m**2 J**-1)
 Alpha(0;0):
               (au)            (10**-24 esu)      (10**-40 SI)
   iso        0.773145D+02      0.114568D+02      0.127474D+02
   aniso      0.454479D+02      0.673469D+01      0.749335D+01
   xx         0.975060D+02      0.144489D+02      0.160766D+02
   yx         0.140223D+02      0.207789D+01      0.231197D+01
   yy         0.802652D+02      0.118941D+02      0.132340D+02
   zx         0.188631D+01      0.279522D+00      0.311011D+00
   zy        -0.351219D+01     -0.520452D+00     -0.579081D+00
   zz         0.541722D+02      0.802749D+01      0.893178D+01

 ----------------------------------------------------------------------

 Dipole orientation:
     6          3.62934271          1.72042397          3.63783434
     1          4.30683087          2.26763527          5.45282810
     6          2.88134647          1.10849090          1.58874779
     6          2.12555890          0.36618143         -0.96432778
     8          3.57484483          0.32775038         -2.68830234
     8         -0.31128907         -0.28164495         -1.28257650
     6         -2.05178115         -0.24729036          0.77118106
     6         -2.15126435         -2.73599755          2.14805404
     1         -1.74500530          1.39681989          1.97805718
     1         -3.97818340          0.08726092         -0.20771638
     1         -2.52581346         -4.26552553          0.81815151
     1         -0.35919631         -3.10455215          3.10838509
     1         -3.65567636         -2.69776203          3.55737351
     8         -5.79666541          0.18713508         -2.12096303
     1         -4.62602480          0.09245487         -3.53384704

 Electric dipole moment (dipole orientation):
 (Debye = 10**-18 statcoulomb cm , SI units = C m)
                  (au)            (Debye)         (10**-30 SI)
   Tot        0.156372D+01      0.397458D+01      0.132578D+02
   x          0.000000D+00      0.000000D+00      0.000000D+00
   y          0.000000D+00      0.000000D+00      0.000000D+00
   z          0.156372D+01      0.397458D+01      0.132578D+02

 Dipole polarizability, Alpha (dipole orientation).
 (esu units = cm**3 , SI units = C**2 m**2 J**-1)
 Alpha(0;0):
               (au)            (10**-24 esu)      (10**-40 SI)
   iso        0.773145D+02      0.114568D+02      0.127474D+02
   aniso      0.454479D+02      0.673469D+01      0.749335D+01
   xx         0.901089D+02      0.133528D+02      0.148569D+02
   yx         0.414153D+01      0.613712D+00      0.682847D+00
   yy         0.538156D+02      0.797465D+01      0.887300D+01
   zx         0.158374D+02      0.234685D+01      0.261123D+01
   zy         0.230060D+01      0.340914D+00      0.379318D+00
   zz         0.880189D+02      0.130431D+02      0.145124D+02

 ----------------------------------------------------------------------
 1\1\GINC-AJ\Freq\UM062X\6-311++G(d,p)\C5H7O3(2)\AAYUSH\29-Mar-2025\0\\
 # freq 6-311++g(d,p) m062x\\Title Card Required\\0,2\C,2.46881,1.29464
 8,-0.672408\H,3.097696,2.092532,-0.992933\C,1.767919,0.391474,-0.31138
 8\C,0.985328,-0.754725,0.150476\O,1.491252,-1.784159,0.474775\O,-0.348
 977,-0.592019,0.194227\C,-0.959927,0.636948,-0.188059\C,-1.103035,1.59
 0067,0.969149\H,-0.476428,1.058639,-1.070997\H,-2.015817,0.31318,-0.53
 3226\H,-1.623847,1.101914,1.793849\H,-0.120646,1.922118,1.31593\H,-1.6
 76498,2.465289,0.660119\O,-3.160932,-0.474962,-0.67953\H,-2.761693,-1.
 310661,-0.383758\\Version=ES64L-G16RevA.03\State=2-A\HF=-420.1920831\S
 2=0.7579\S2-1=0.\S2A=0.750033\RMSD=6.458e-09\RMSF=6.938e-04\ZeroPoint=
 0.1071838\Thermal=0.1171974\Dipole=0.3739493,1.5040361,-0.2079743\Dipo
 leDeriv=-0.1852282,-0.0218312,0.0165796,-0.0267958,-0.186932,0.0275116
 ,0.01603,0.0205281,-0.1276582,0.2524619,0.0184713,-0.0109132,0.0347698
 ,0.2478801,-0.0189581,-0.0207982,-0.0189684,0.2068469,-0.4075834,-0.21
 35048,0.095075,-0.2369443,-0.3470625,0.098182,0.127249,0.1065456,-0.14
 61541,2.5835871,-0.3612609,-0.0589242,-0.229976,1.6391514,-0.4295911,-
 0.1872279,-0.4232667,0.5580538,-0.8965101,0.2261908,-0.0307461,0.42086
 43,-1.1940017,0.2659917,-0.0879354,0.2834099,-0.4445405,-2.0038616,0.4
 804722,-0.0613987,0.603366,-0.6857254,0.0977321,-0.0492539,0.0400068,-
 0.3774847,1.5399122,0.2855652,0.2637579,-0.4453149,0.705787,0.0654171,
 0.5592149,0.239161,0.4652755,-0.2658257,-0.1494114,-0.0991938,0.029678
 1,-0.0876526,-0.0755365,-0.0401247,-0.1273684,-0.0933632,-0.0887468,-0
 .0615302,0.0613681,0.0174131,-0.0365046,-0.0072714,-0.0637011,-0.02801
 78,-0.0618031,-1.1545288,-0.5835223,-0.343748,-0.6499702,-0.2628723,-0
 .1970513,-0.2537181,-0.1204055,0.0440384,0.0674321,-0.0166313,0.060240
 9,-0.0505091,0.0331149,0.0602811,0.0453271,0.0150666,-0.004211,-0.0163
 341,-0.0216982,-0.0343606,-0.0773282,0.0312934,-0.0331065,-0.0834591,-
 0.0573975,0.0325146,0.0449961,0.0773274,-0.0139803,0.0808741,-0.021228
 ,0.0190821,-0.0185931,0.0414812,0.0524496,0.1866549,0.2641571,0.178136
 6,0.2876968,-0.1361231,0.0414165,0.1026314,-0.0020079,-0.4022257,0.343
 5745,0.0772062,-0.0218932,0.2421764,0.3008754,0.0859006,-0.045641,0.03
 12332,0.2982617\Polar=97.5060199,14.0223174,80.2652402,1.8863107,-3.51
 21871,54.1721562\Quadrupole=-2.6952373,1.973457,0.7217803,6.8281445,-4
 .2018682,0.2541478\PG=C01 [X(C5H7O3)]\NImag=1\\0.57287892,0.66462913,0
 .91069485,-0.26620453,-0.34059362,0.19812816,-0.16452392,-0.17568313,0
 .07043677,0.15452701,-0.17493718,-0.24967562,0.08834990,0.17554640,0.2
 3963028,0.07025543,0.08846830,-0.06564889,-0.07058163,-0.08916247,0.05
 377747,-0.40986720,-0.48740994,0.19511810,0.00634315,0.00258523,-0.000
 72565,0.57000222,-0.48962192,-0.66153334,0.25101605,0.00244308,0.00796
 693,-0.00019586,0.58992142,0.87760569,0.19617642,0.25121052,-0.1353011
 8,-0.00065062,-0.00011862,0.00823349,-0.24144860,-0.32531454,0.1907360
 7,0.00712762,0.00329221,-0.00127396,0.00375617,-0.00419494,0.00152419,
 -0.13397241,-0.08755389,0.03572735,0.61451432,0.00230812,0.00324099,0.
 00013194,-0.00224309,0.00161037,0.00172373,-0.07588604,-0.15994942,0.0
 3496779,-0.17782294,0.90006255,-0.00147856,-0.00051597,0.00335046,0.00
 097329,0.00177635,0.00515216,0.03123155,0.03661507,-0.09001551,0.03132
 987,-0.23413489,0.28045857,-0.00192442,-0.00334287,0.00129779,-0.00050
 572,0.00085591,-0.00032116,0.02036451,-0.00291010,0.00123534,-0.201945
 91,0.23867856,-0.07492519,0.25441595,-0.00154650,-0.00003961,0.0000852
 6,-0.00091339,0.00105962,-0.00070878,0.00154580,-0.06771185,0.03211790
 ,0.24613444,-0.63636040,0.17910444,-0.30878818,0.71400576,0.00077855,0
 .00035362,-0.00007247,0.00026978,-0.00082272,-0.00084226,-0.00042938,0
 .03217296,0.01209835,-0.07710258,0.17927282,-0.13402957,0.09202028,-0.
 21719930,0.10142885,-0.00171553,-0.00426194,0.00158975,0.00076294,0.00
 027109,-0.00010825,-0.04491805,-0.01393904,0.00866760,-0.26776030,-0.0
 2131550,0.02703412,-0.06709620,0.06463864,-0.01688896,0.49170981,0.000
 03192,-0.00122320,0.00056825,0.00073784,-0.00086572,-0.00012677,-0.026
 41254,0.00381847,0.00815603,0.00155450,-0.09931738,0.01920867,0.079505
 58,-0.01681637,0.00563591,-0.12263336,0.35835454,0.00021636,0.00093286
 ,-0.00009772,-0.00042152,0.00001689,-0.00080710,0.01393171,0.00586761,
 0.01371958,0.01699587,0.02080119,-0.05622932,-0.02184924,0.00711203,0.
 01542978,0.00512094,-0.09753808,0.09918853,-0.00022749,0.00224337,-0.0
 0099566,-0.00041128,-0.00030727,0.00006394,-0.00286823,0.00145300,-0.0
 0057372,-0.04033824,0.03751578,-0.01045977,0.00273307,-0.00586900,0.00
 267679,-0.08106020,0.01745207,-0.00399199,0.43753021,-0.00066956,-0.00
 268102,0.00099166,0.00010571,0.00020559,0.00002132,-0.00604383,-0.0008
 9297,-0.00007450,0.03572795,-0.00547535,-0.00403965,-0.01065344,0.0091
 5306,-0.00036812,0.05087375,-0.18477499,0.04868467,0.02734469,0.460952
 51,-0.00065514,0.00077294,-0.00088106,-0.00010939,-0.00002708,0.000114
 01,0.00244669,0.00020546,0.00106739,-0.01773907,-0.00184382,-0.0083471
 5,0.00556343,-0.00309230,0.00690394,-0.00527062,0.04446270,-0.07788238
 ,-0.07576139,-0.02857904,0.54680276,0.00003896,-0.00021754,-0.00002120
 ,0.00004519,0.00004884,0.00004704,-0.00075420,-0.00013142,-0.00017398,
 0.00721240,0.00098568,0.00162318,-0.00253336,0.00146319,-0.00128369,-0
 .00922866,0.02492940,0.01299081,-0.06296402,-0.00090339,0.00863855,0.5
 6992283,-0.00002646,0.00024318,-0.00032939,0.00003530,-0.00005514,0.00
 002416,0.00089514,0.00020243,-0.00029859,-0.00674121,-0.00114145,-0.00
 145034,0.00231026,-0.00085201,0.00126309,0.01513968,-0.03534709,-0.020
 66631,0.00748727,-0.12163279,-0.06105388,0.00016025,0.55046640,-0.0001
 1640,-0.00051687,0.00001837,-0.00006575,0.00002641,0.00004144,0.000320
 71,-0.00024490,-0.00041397,0.00483202,0.00160357,0.00095391,-0.0019707
 1,0.00103602,-0.00105767,-0.00619303,0.00849711,0.01396346,0.01635585,
 -0.07045532,-0.17771635,0.00514973,-0.04932512,0.53238813,-0.00121226,
 0.00010924,-0.00024906,-0.00010899,-0.00000229,-0.00002280,-0.00318882
 ,0.00055196,-0.00010923,0.00578405,0.00073394,-0.00171410,-0.00162942,
 0.00065586,0.00010865,0.00362310,0.01347033,-0.01735080,-0.10127431,-0
 .04853534,0.11446081,0.00105363,-0.00149912,-0.00132509,0.10968680,-0.
 00025534,0.00035669,-0.00027655,-0.00006926,0.00004661,-0.00001331,0.0
 0051493,0.00044910,-0.00023412,-0.00721122,0.00062053,0.00147894,0.001
 71330,-0.00079579,-0.00035886,-0.00398587,-0.02414026,0.02675202,-0.03
 820001,-0.08630756,0.07890747,0.01025107,0.01175917,-0.01777100,0.0434
 0251,0.10218736,0.00069624,-0.00038128,0.00026897,-0.00001669,-0.00002
 826,0.00006097,-0.00047278,-0.00015871,-0.00007235,0.00476538,0.000080
 42,0.00013334,-0.00107928,0.00033188,0.00002704,-0.00235417,0.00958663
 ,-0.00475387,0.10207575,0.08022214,-0.22205168,0.01228374,0.00893533,-
 0.01604203,-0.11062020,-0.09128399,0.23900655,-0.00040500,0.00010377,0
 .00005147,0.00022038,0.00020015,-0.00017928,-0.00134005,-0.00095907,0.
 00062075,0.01308422,-0.00429848,-0.00447996,-0.00411476,0.00483762,-0.
 00054274,-0.03651668,0.02046139,-0.00725834,-0.06460816,-0.02535505,-0
 .00112843,-0.01411581,-0.00598150,-0.00422782,-0.01849747,-0.00758758,
 -0.00911284,0.06048212,-0.00014503,0.00034417,-0.00009580,0.00013328,0
 .00011013,-0.00010085,-0.00071095,-0.00039935,0.00006574,0.00551704,-0
 .00520695,0.00168249,0.00003525,0.00100571,-0.00068487,0.02241058,0.00
 560219,0.00756239,0.00938468,-0.04103365,0.01106088,-0.02524473,-0.008
 91571,-0.00950183,-0.01398361,-0.00360924,-0.00699935,-0.03070885,0.04
 446722,0.00023764,-0.00019272,0.00013051,0.00004074,0.00000121,-0.0000
 1549,-0.00014891,0.00002649,0.00006605,0.00405776,-0.00063243,-0.00129
 977,-0.00138961,0.00138177,-0.00008369,-0.01506310,0.00541900,-0.00278
 827,-0.02078992,-0.00860468,-0.04114862,-0.02096149,-0.01029540,-0.009
 59829,0.01653817,0.00508386,0.00380643,0.02041692,-0.00547126,0.053658
 16,0.00000791,0.00026340,0.00001700,0.00003777,-0.00001098,-0.00002093
 ,-0.00002091,0.00004950,0.00017160,-0.00103927,-0.00041318,0.00036401,
 0.00023652,0.00008560,-0.00013816,0.00036984,-0.00039416,-0.00051627,-
 0.00199059,-0.00032966,0.00118510,-0.11063552,-0.06035110,0.09964180,0
 .00101007,0.00004888,0.00018284,0.00076874,0.00079114,-0.00034761,0.11
 479621,0.00000549,-0.00000004,0.00006029,0.00003326,-0.00001993,-0.000
 01669,-0.00014136,-0.00000056,0.00007813,0.00089823,-0.00006820,0.0000
 6215,-0.00025131,0.00017787,-0.00010759,-0.00147939,0.00215488,0.00115
 303,0.01204875,0.00998087,-0.01937056,-0.06082044,-0.10446228,0.095889
 64,0.00031719,-0.00297750,-0.00354360,0.00017518,0.00067088,0.00044869
 ,0.06565283,0.10970792,0.00001705,0.00001630,0.00008432,-0.00000245,-0
 .00001447,-0.00001592,-0.00019202,-0.00006040,0.00004962,0.00037896,0.
 00002998,0.00000062,-0.00002096,-0.00002175,-0.00003923,-0.00132220,0.
 00063823,0.00253067,0.01263486,0.01252140,-0.02394254,0.09862056,0.093
 02086,-0.20065990,-0.00005803,-0.00411958,-0.00229818,0.00065969,0.000
 69143,0.00031474,-0.10865891,-0.09957102,0.22037185,-0.00026128,0.0002
 1815,0.00022159,0.00000002,-0.00004097,-0.00001062,-0.00052259,0.00024
 287,0.00058263,-0.00047929,-0.00009043,-0.00029808,0.00021440,-0.00029
 203,0.00014580,0.00174472,-0.00146284,-0.00017827,0.00172831,0.0013025
 2,-0.00023589,-0.26446743,-0.07175791,-0.07410186,0.00033230,-0.000423
 58,-0.00038817,0.00392634,0.00234444,0.00109418,-0.01245921,-0.0028923
 1,-0.00510578,0.28540810,-0.00000912,0.00004151,0.00019313,-0.00001760
 ,0.00009310,-0.00000223,0.00016169,-0.00013267,-0.00023949,0.00024563,
 -0.00092474,-0.00047968,0.00005863,0.00014541,0.00004928,-0.00014881,0
 .00266974,0.00150230,-0.01826967,-0.00894701,-0.00817461,-0.07308325,-
 0.07038401,-0.02342857,0.00067601,0.00042665,0.00063031,-0.00138062,-0
 .00269063,-0.00299228,-0.01241276,-0.00477593,-0.00547872,0.07957653,0
 .07387504,0.00006147,0.00030739,0.00001913,0.00011945,0.00001600,-0.00
 004057,0.00019324,-0.00004231,-0.00016237,-0.00071927,-0.00141476,0.00
 046591,0.00030063,0.00038015,-0.00024926,0.00141084,0.00234349,0.00132
 397,-0.02403861,-0.00843461,-0.01080696,-0.07478916,-0.02437568,-0.071
 48225,0.00022985,0.00057755,0.00084405,-0.00121818,-0.00431819,-0.0028
 7622,0.02225334,0.00644037,0.00909227,0.08229341,0.03029461,0.07738902
 ,-0.00002553,-0.00001314,0.00008081,-0.00003564,0.00006474,-0.00000429
 ,-0.00008852,0.00004723,0.00012673,0.00047233,-0.00062517,-0.00034583,
 -0.00001390,0.00004088,0.00002036,0.00131389,0.00017070,0.00066314,-0.
 00346775,0.00065201,-0.00148828,-0.12204326,0.11700972,-0.04115138,0.0
 0006061,-0.00009517,0.00021517,0.00050142,0.00019570,0.00020517,0.0089
 5748,-0.01373742,0.00332173,-0.01375345,0.02376374,-0.00712313,0.12831
 271,0.00004399,0.00012342,-0.00003459,-0.00000264,-0.00001287,0.000007
 45,0.00014154,0.00012953,0.00003258,-0.00293849,-0.00038480,-0.0004947
 6,0.00091250,-0.00050666,0.00040184,0.00334625,-0.00303693,-0.00409617
 ,0.00927381,-0.01500334,0.00969191,0.11559203,-0.22223899,0.06169030,0
 .00008923,0.00054918,-0.00044272,0.00004984,0.00011898,0.00029887,0.00
 700041,-0.01040038,0.00249356,-0.00567306,0.00963000,-0.00290295,-0.12
 758250,0.24082501,0.00004457,0.00014713,-0.00002968,0.00001674,-0.0000
 0939,0.00000158,0.00009039,0.00008668,-0.00002089,-0.00263210,-0.00064
 259,-0.00056093,0.00106590,-0.00049493,0.00049940,0.00346147,-0.006493
 35,-0.00361467,0.01302204,-0.01789784,0.01058601,-0.04220607,0.0639720
 0,-0.07108209,0.00018895,0.00123198,0.00023225,0.00020950,0.00035005,0
 .00080626,-0.01445654,0.01827643,-0.00585249,-0.00393043,0.00819065,-0
 .00363809,0.04534197,-0.06668196,0.07272159,-0.00000907,-0.00020688,0.
 00002664,-0.00005998,-0.00002950,0.00005827,0.00026254,0.00025008,-0.0
 0012882,-0.00263239,0.00146809,0.00114409,0.00084243,-0.00131113,0.000
 09517,0.00543829,-0.00798364,0.00094018,-0.08556050,-0.01958277,-0.031
 67911,0.00916614,0.00335080,0.00316073,0.00470227,0.00169102,0.0043149
 5,0.06093314,0.04034374,0.01443563,-0.00017432,0.00016239,-0.00034649,
 -0.00154606,0.00083717,0.00103495,-0.00018563,-0.00043817,-0.00031412,
 0.11292221,0.00005028,0.00006996,-0.00003329,-0.00003329,-0.00005599,0
 .00004115,0.00038681,0.00029118,-0.00020451,-0.00351199,0.00125579,0.0
 0083375,0.00083908,-0.00082641,0.00013499,0.00646304,-0.00439330,0.001
 39876,-0.05405411,-0.01303119,-0.01958399,0.00541820,0.00230258,0.0022
 2977,0.00288409,0.00113191,0.00243604,0.04129835,0.01306693,0.01123487
 ,0.00014868,0.00010997,0.00002167,-0.00093219,0.00055791,0.00072464,0.
 00010192,0.00013194,-0.00002261,-0.18285081,0.38143319,-0.00005993,-0.
 00007090,0.00008468,-0.00000674,-0.00001122,-0.00002416,-0.00010435,-0
 .00000649,-0.00000621,0.00020056,-0.00028426,-0.00025185,-0.00004276,0
 .00000887,0.00018162,-0.00030793,-0.00042952,0.00090382,-0.01299133,-0
 .00304589,-0.00358249,0.00141736,0.00090048,0.00084841,-0.00025243,-0.
 00011281,0.00102176,0.00910813,0.00736009,-0.00250312,0.00030574,0.000
 42170,0.00067118,-0.00025045,0.00006175,0.00044155,0.00006002,-0.00009
 732,-0.00005423,0.07212835,-0.13413616,0.05223422,0.00011831,0.0002761
 7,-0.00009551,-0.00004710,-0.00004923,0.00002573,0.00056855,0.00015630
 ,-0.00022343,-0.00378332,0.00100465,0.00000139,0.00095680,-0.00068179,
 0.00027013,0.00333302,0.00057282,0.00070743,0.00277916,-0.00393359,0.0
 0177274,-0.00069689,-0.00003112,-0.00030880,-0.00034154,0.00020634,-0.
 00048994,-0.00031846,-0.01036269,0.00167443,0.00013529,0.00002890,0.00
 007400,0.00013512,0.00000242,-0.00000882,-0.00000478,0.00018525,0.0000
 9774,-0.10409908,0.18379194,-0.06920422,0.10126491,0.00014219,0.000038
 07,-0.00003323,-0.00007249,-0.00003735,0.00004084,0.00045209,0.0001568
 3,-0.00014431,-0.00339530,0.00203845,0.00035343,0.00103683,-0.00163835
 ,0.00025695,0.00462087,-0.00268459,0.00051681,-0.00750337,-0.00051217,
 -0.00337608,0.00155211,0.00005572,0.00027078,0.00112999,0.00030316,0.0
 0061516,0.00914486,-0.00353066,0.00429400,-0.00012858,-0.00009756,-0.0
 0016748,-0.00011920,0.00041562,0.00040431,0.00000676,0.00007594,-0.000
 01225,0.16429959,-0.38204448,0.12944169,-0.17116635,0.38746138,0.00003
 084,0.00006232,-0.00005360,-0.00000199,0.00000746,0.00001326,0.0001892
 9,0.00003289,0.00002192,-0.00034498,0.00034131,0.00021914,0.00011556,-
 0.00004127,-0.00019481,0.00022354,0.00007170,-0.00088649,0.00277316,-0
 .00094154,0.00088513,-0.00133538,-0.00032119,-0.00016118,0.00017531,0.
 00013840,-0.00018325,-0.00291885,-0.00160092,0.00153134,0.00001701,-0.
 00022098,-0.00030700,0.00016195,-0.00012646,-0.00032019,0.00007784,0.0
 0013398,0.00000597,-0.06487041,0.13492493,-0.04996519,0.06570712,-0.13
 246062,0.04939495\\-0.00006782,-0.00006639,-0.00003758,-0.00005291,-0.
 00006855,0.00006183,0.00014929,0.00023471,-0.00006525,0.00017214,-0.00
 029714,0.00001029,-0.00013878,0.00023867,-0.00011923,-0.00023001,0.000
 39115,0.00009769,-0.00111459,-0.00138293,0.00037046,-0.00065839,-0.000
 36196,-0.00049259,-0.00054190,-0.00012847,-0.00044442,-0.00056736,-0.0
 0080624,0.00035531,-0.00000765,-0.00005217,0.00007190,0.00003237,-0.00
 007761,-0.00014608,-0.00006478,0.00007048,-0.00000192,0.00316377,0.002
 28682,0.00036858,-0.00007340,0.00001962,-0.00002900\\\@


 WHERE THERE IS MUCH DESIRE TO LEARN, THERE OF NECESSITY WILL BE
 MUCH ARGUING, MUCH WRITING, MANY OPINIONS; FOR OPINION IN GOOD MEN
 IS BUT KNOWLEDGE IN THE MAKING. -- JOHN MILTON.
 Job cpu time:       0 days  0 hours 54 minutes 37.7 seconds.
 Elapsed time:       0 days  0 hours  2 minutes 16.9 seconds.
 File lengths (MBytes):  RWF=    153 Int=      0 D2E=      0 Chk=      6 Scr=      1
 Normal termination of Gaussian 16 at Sat Mar 29 04:06:32 2025.
