 Entering Gaussian System, Link 0=g16
 Initial command:
 /opt/g16/l1.exe "/home/loki/Research/Transition_states/Addition/ts2_irc_points/Gau-279820.inp" -scrdir="/home/loki/Research/Transition_states/Addition/ts2_irc_points/"
 Entering Link 1 = /opt/g16/l1.exe PID=    279823.
  
 Copyright (c) 1988,1990,1992,1993,1995,1998,2003,2009,2016,
            Gaussian, Inc.  All Rights Reserved.
  
 This is part of the Gaussian(R) 16 program.  It is based on
 the Gaussian(R) 09 system (copyright 2009, Gaussian, Inc.),
 the Gaussian(R) 03 system (copyright 2003, Gaussian, Inc.),
 the Gaussian(R) 98 system (copyright 1998, Gaussian, Inc.),
 the Gaussian(R) 94 system (copyright 1995, Gaussian, Inc.),
 the Gaussian 92(TM) system (copyright 1992, Gaussian, Inc.),
 the Gaussian 90(TM) system (copyright 1990, Gaussian, Inc.),
 the Gaussian 88(TM) system (copyright 1988, Gaussian, Inc.),
 the Gaussian 86(TM) system (copyright 1986, Carnegie Mellon
 University), and the Gaussian 82(TM) system (copyright 1983,
 Carnegie Mellon University). Gaussian is a federally registered
 trademark of Gaussian, Inc.
  
 This software contains proprietary and confidential information,
 including trade secrets, belonging to Gaussian, Inc.
  
 This software is provided under written license and may be
 used, copied, transmitted, or stored only in accord with that
 written license.
  
 The following legend is applicable only to US Government
 contracts under FAR:
  
                    RESTRICTED RIGHTS LEGEND
  
 Use, reproduction and disclosure by the US Government is
 subject to restrictions as set forth in subparagraphs (a)
 and (c) of the Commercial Computer Software - Restricted
 Rights clause in FAR 52.227-19.
  
 Gaussian, Inc.
 340 Quinnipiac St., Bldg. 40, Wallingford CT 06492
  
  
 ---------------------------------------------------------------
 Warning -- This program may not be used in any manner that
 competes with the business of Gaussian, Inc. or will provide
 assistance to any competitor of Gaussian, Inc.  The licensee
 of this program is prohibited from giving any competitor of
 Gaussian, Inc. access to this program.  By using this program,
 the user acknowledges that Gaussian, Inc. is engaged in the
 business of creating and licensing software in the field of
 computational chemistry and represents and warrants to the
 licensee that it is not a competitor of Gaussian, Inc. and that
 it will not use this program in any manner prohibited above.
 ---------------------------------------------------------------
  

 Cite this work as:
 Gaussian 16, Revision A.03,
 M. J. Frisch, G. W. Trucks, H. B. Schlegel, G. E. Scuseria, 
 M. A. Robb, J. R. Cheeseman, G. Scalmani, V. Barone, 
 G. A. Petersson, H. Nakatsuji, X. Li, M. Caricato, A. V. Marenich, 
 J. Bloino, B. G. Janesko, R. Gomperts, B. Mennucci, H. P. Hratchian, 
 J. V. Ortiz, A. F. Izmaylov, J. L. Sonnenberg, D. Williams-Young, 
 F. Ding, F. Lipparini, F. Egidi, J. Goings, B. Peng, A. Petrone, 
 T. Henderson, D. Ranasinghe, V. G. Zakrzewski, J. Gao, N. Rega, 
 G. Zheng, W. Liang, M. Hada, M. Ehara, K. Toyota, R. Fukuda, 
 J. Hasegawa, M. Ishida, T. Nakajima, Y. Honda, O. Kitao, H. Nakai, 
 T. Vreven, K. Throssell, J. A. Montgomery, Jr., J. E. Peralta, 
 F. Ogliaro, M. J. Bearpark, J. J. Heyd, E. N. Brothers, K. N. Kudin, 
 V. N. Staroverov, T. A. Keith, R. Kobayashi, J. Normand, 
 K. Raghavachari, A. P. Rendell, J. C. Burant, S. S. Iyengar, 
 J. Tomasi, M. Cossi, J. M. Millam, M. Klene, C. Adamo, R. Cammi, 
 J. W. Ochterski, R. L. Martin, K. Morokuma, O. Farkas, 
 J. B. Foresman, and D. J. Fox, Gaussian, Inc., Wallingford CT, 2016.
 
 ******************************************
 Gaussian 16:  ES64L-G16RevA.03 25-Dec-2016
                28-Mar-2025 
 ******************************************
 %chk=ethyl_propiolate.chk
 %nprocshared=6
 Will use up to    6 processors via shared memory.
 %mem=12GB
 --------------------------
 # freq 6-311++g(d,p) m062x
 --------------------------
 1/10=4,30=1,38=1/1,3;
 2/12=2,17=6,18=5,40=1/2;
 3/5=4,6=6,7=1111,11=2,25=1,30=1,71=2,74=-55,140=1/1,2,3;
 4//1;
 5/5=2,38=5,98=1/2;
 8/6=4,10=90,11=11/1;
 11/6=1,8=1,9=11,15=111,16=1/1,2,10;
 10/6=1/2;
 6/7=2,8=2,9=2,10=2,28=1/1;
 7/8=1,10=1,25=1/1,2,3,16;
 1/10=4,30=1/3;
 99//99;
 -------------------
 Title Card Required
 -------------------
 Symbolic Z-matrix:
 Charge =  0 Multiplicity = 2
 C                    -1.51062  -1.32479  -0.33606 
 H                    -1.94505  -2.28651  -0.5202 
 C                    -0.58852  -0.50391  -0.30037 
 C                     0.03945   0.7977   -0.0595 
 O                    -0.63163   1.73396   0.27193 
 O                     1.3533    0.89497  -0.23438 
 C                     2.13042  -0.28104  -0.52588 
 C                     2.46305  -1.04017   0.74273 
 H                     1.59274  -0.90447  -1.24523 
 H                     3.02646   0.10594  -1.00803 
 H                     2.97837  -0.38803   1.44889 
 H                     1.55883  -1.42698   1.21672 
 H                     3.11384  -1.88468   0.50801 
 O                    -3.09834  -0.46455   0.27096 
 H                    -2.77513   0.44183   0.40808 
 

 GradGradGradGradGradGradGradGradGradGradGradGradGradGradGradGradGradGrad
 Berny optimization.
 Initialization pass.
 Trust Radius=3.00D-01 FncErr=1.00D-07 GrdErr=1.00D-07 EigMax=2.50D+02 EigMin=1.00D-04
 Number of steps in this run=      2 maximum allowed number of steps=      2.
 GradGradGradGradGradGradGradGradGradGradGradGradGradGradGradGradGradGrad

                          Input orientation:                          
 ---------------------------------------------------------------------
 Center     Atomic      Atomic             Coordinates (Angstroms)
 Number     Number       Type             X           Y           Z
 ---------------------------------------------------------------------
      1          6           0       -1.510621   -1.324792   -0.336058
      2          1           0       -1.945046   -2.286506   -0.520199
      3          6           0       -0.588515   -0.503906   -0.300374
      4          6           0        0.039451    0.797701   -0.059504
      5          8           0       -0.631629    1.733958    0.271926
      6          8           0        1.353297    0.894965   -0.234379
      7          6           0        2.130421   -0.281043   -0.525883
      8          6           0        2.463051   -1.040170    0.742725
      9          1           0        1.592744   -0.904468   -1.245228
     10          1           0        3.026456    0.105942   -1.008029
     11          1           0        2.978368   -0.388029    1.448886
     12          1           0        1.558831   -1.426979    1.216720
     13          1           0        3.113840   -1.884679    0.508008
     14          8           0       -3.098335   -0.464546    0.270961
     15          1           0       -2.775134    0.441834    0.408077
 ---------------------------------------------------------------------
                    Distance matrix (angstroms):
                    1          2          3          4          5
     1  C    0.000000
     2  H    1.071227   0.000000
     3  C    1.235074   2.250814   0.000000
     4  C    2.642760   3.696323   1.465108   0.000000
     5  O    3.240096   4.303099   2.310286   1.198654   0.000000
     6  O    3.624870   4.591570   2.394124   1.328997   2.213636
     7  C    3.792444   4.542174   2.737359   2.398615   3.510790
     8  C    4.127330   4.751805   3.269203   3.145660   4.182641
     9  H    3.261002   3.866737   2.410620   2.591532   3.769733
    10  H    4.804541   5.538738   3.733725   3.209428   4.203606
    11  H    4.920830   5.632186   3.974417   3.509762   4.349729
    12  H    3.441380   4.004101   2.786527   2.981017   3.960085
    13  H    4.734085   5.177934   4.033292   4.119357   5.213330
    14  O    1.905080   2.296856   2.574329   3.398261   3.304249
    15  H    2.296453   2.999097   2.485484   2.875267   2.506538
                    6          7          8          9         10
     6  O    0.000000
     7  C    1.439407   0.000000
     8  C    2.435371   1.515349   0.000000
     9  H    2.077766   1.093258   2.174352   0.000000
    10  H    2.005132   1.088623   2.167057   1.769950   0.000000
    11  H    2.668391   2.151784   1.090643   3.073258   2.506542
    12  H    2.745789   2.162533   1.091745   2.517013   3.074618
    13  H    3.372991   2.146554   1.091702   2.519600   2.503712
    14  O    4.681951   5.292308   5.610964   4.949604   6.282861
    15  H    4.202621   5.045721   5.454073   4.860484   5.981357
                   11         12         13         14         15
    11  H    0.000000
    12  H    1.774374   0.000000
    13  H    1.773010   1.769128   0.000000
    14  O    6.190289   4.848704   6.376840   0.000000
    15  H    5.905484   4.788488   6.332666   0.972000   0.000000
 Stoichiometry    C5H7O3(2)
 Framework group  C1[X(C5H7O3)]
 Deg. of freedom    39
 Full point group                 C1      NOp   1
 Largest Abelian subgroup         C1      NOp   1
 Largest concise Abelian subgroup C1      NOp   1
                         Standard orientation:                         
 ---------------------------------------------------------------------
 Center     Atomic      Atomic             Coordinates (Angstroms)
 Number     Number       Type             X           Y           Z
 ---------------------------------------------------------------------
      1          6           0       -1.576669   -1.266705   -0.345264
      2          1           0       -2.014562   -2.226222   -0.532626
      3          6           0       -0.651806   -0.449010   -0.307738
      4          6           0       -0.019161    0.849526   -0.062574
      5          8           0       -0.686609    1.786618    0.273794
      6          8           0        1.294711    0.943185   -0.239216
      7          6           0        2.067477   -0.234167   -0.536817
      8          6           0        2.399678   -0.999581    0.728121
      9          1           0        1.526573   -0.852864   -1.257822
     10          1           0        2.963993    0.151844   -1.018850
     11          1           0        2.918296   -0.352040    1.436096
     12          1           0        1.494965   -1.385355    1.202018
     13          1           0        3.047296   -1.845256    0.488873
     14          8           0       -3.160545   -0.403739    0.267892
     15          1           0       -2.834135    0.501003    0.408186
 ---------------------------------------------------------------------
 Rotational constants (GHZ):           3.4990020           1.2168059           0.9819063
 Standard basis: 6-311++G(d,p) (5D, 7F)
 There are   233 symmetry adapted cartesian basis functions of A   symmetry.
 There are   225 symmetry adapted basis functions of A   symmetry.
   225 basis functions,   351 primitive gaussians,   233 cartesian basis functions
    31 alpha electrons       30 beta electrons
       nuclear repulsion energy       354.4145501746 Hartrees.
 NAtoms=   15 NActive=   15 NUniq=   15 SFac= 1.00D+00 NAtFMM=   60 NAOKFM=F Big=F
 Integral buffers will be    131072 words long.
 Raffenetti 2 integral format.
 Two-electron integral symmetry is turned on.
 One-electron integrals computed using PRISM.
 NBasis=   225 RedAO= T EigKep=  3.93D-06  NBF=   225
 NBsUse=   225 1.00D-06 EigRej= -1.00D+00 NBFU=   225
 ExpMin= 3.60D-02 ExpMax= 8.59D+03 ExpMxC= 1.30D+03 IAcc=3 IRadAn=         5 AccDes= 0.00D+00
 Harris functional with IExCor= 1009 and IRadAn=       5 diagonalized for initial guess.
 HarFok:  IExCor= 1009 AccDes= 0.00D+00 IRadAn=         5 IDoV= 1 UseB2=F ITyADJ=14
 ICtDFT=  3500011 ScaDFX=  1.000000  1.000000  1.000000  1.000000
 FoFCou: FMM=F IPFlag=           0 FMFlag=      100000 FMFlg1=           0
         NFxFlg=           0 DoJE=T BraDBF=F KetDBF=T FulRan=T
         wScrn=  0.000000 ICntrl=       500 IOpCl=  0 I1Cent=   200000004 NGrid=           0
         NMat0=    1 NMatS0=      1 NMatT0=    0 NMatD0=    1 NMtDS0=    0 NMtDT0=    0
 Petite list used in FoFCou.
 Initial guess <Sx>= 0.0000 <Sy>= 0.0000 <Sz>= 0.5000 <S**2>= 0.7500 S= 0.5000
 Keep R1 and R2 ints in memory in canonical form, NReq=652863693.
 Requested convergence on RMS density matrix=1.00D-08 within 128 cycles.
 Requested convergence on MAX density matrix=1.00D-06.
 Requested convergence on             energy=1.00D-06.
 No special actions if energy rises.
 SCF Done:  E(UM062X) =  -420.200547215     A.U. after   23 cycles
            NFock= 23  Conv=0.42D-08     -V/T= 2.0035
 <Sx>= 0.0000 <Sy>= 0.0000 <Sz>= 0.5000 <S**2>= 0.7882 S= 0.5189
 <L.S>=  0.00000000000    
 Annihilation of the first spin contaminant:
 S**2 before annihilation     0.7882,   after     0.7506
 DoSCS=F DFT=T ScalE2(SS,OS)=  1.000000  1.000000
 Range of M.O.s used for correlation:     1   225
 NBasis=   225 NAE=    31 NBE=    30 NFC=     0 NFV=     0
 NROrb=    225 NOA=    31 NOB=    30 NVA=   194 NVB=   195

 **** Warning!!: The largest alpha MO coefficient is  0.13402376D+03


 **** Warning!!: The largest beta MO coefficient is  0.14041033D+03

 Symmetrizing basis deriv contribution to polar:
 IMax=3 JMax=2 DiffMx= 0.00D+00
 G2DrvN: will do    16 centers at a time, making    1 passes.
 Calling FoFCou, ICntrl=  3107 FMM=F I1Cent=   0 AccDes= 0.00D+00.
 End of G2Drv F.D. properties file   721 does not exist.
 End of G2Drv F.D. properties file   722 does not exist.
 End of G2Drv F.D. properties file   788 does not exist.
          IDoAtm=111111111111111
          Differentiating once with respect to electric field.
                with respect to dipole field.
          Differentiating once with respect to nuclear coordinates.
 Keep R1 and R2 ints in memory in canonical form, NReq=652870569.
          There are    48 degrees of freedom in the 1st order CPHF.  IDoFFX=6 NUNeed=     3.
     45 vectors produced by pass  0 Test12= 2.47D-14 2.08D-09 XBig12= 1.20D+02 4.96D+00.
 AX will form    45 AO Fock derivatives at one time.
     45 vectors produced by pass  1 Test12= 2.47D-14 2.08D-09 XBig12= 3.02D+01 5.53D-01.
     45 vectors produced by pass  2 Test12= 2.47D-14 2.08D-09 XBig12= 1.63D+00 2.13D-01.
     45 vectors produced by pass  3 Test12= 2.47D-14 2.08D-09 XBig12= 2.45D-02 1.94D-02.
     45 vectors produced by pass  4 Test12= 2.47D-14 2.08D-09 XBig12= 3.49D-04 2.65D-03.
     45 vectors produced by pass  5 Test12= 2.47D-14 2.08D-09 XBig12= 4.21D-06 2.44D-04.
     42 vectors produced by pass  6 Test12= 2.47D-14 2.08D-09 XBig12= 3.09D-08 1.79D-05.
     26 vectors produced by pass  7 Test12= 2.47D-14 2.08D-09 XBig12= 2.25D-10 1.16D-06.
      4 vectors produced by pass  8 Test12= 2.47D-14 2.08D-09 XBig12= 1.61D-12 1.08D-07.
      2 vectors produced by pass  9 Test12= 2.47D-14 2.08D-09 XBig12= 1.55D-14 1.11D-08.
 InvSVY:  IOpt=1 It=  1 EMax= 1.60D-14
 Solved reduced A of dimension   344 with    48 vectors.
 Isotropic polarizability for W=    0.000000       76.61 Bohr**3.
 End of Minotr F.D. properties file   721 does not exist.
 End of Minotr F.D. properties file   722 does not exist.
 End of Minotr F.D. properties file   788 does not exist.

 **********************************************************************

            Population analysis using the SCF density.

 **********************************************************************

 Orbital symmetries:
 Alpha Orbitals:
       Occupied  (A) (A) (A) (A) (A) (A) (A) (A) (A) (A) (A) (A)
                 (A) (A) (A) (A) (A) (A) (A) (A) (A) (A) (A) (A)
                 (A) (A) (A) (A) (A) (A) (A)
       Virtual   (A) (A) (A) (A) (A) (A) (A) (A) (A) (A) (A) (A)
                 (A) (A) (A) (A) (A) (A) (A) (A) (A) (A) (A) (A)
                 (A) (A) (A) (A) (A) (A) (A) (A) (A) (A) (A) (A)
                 (A) (A) (A) (A) (A) (A) (A) (A) (A) (A) (A) (A)
                 (A) (A) (A) (A) (A) (A) (A) (A) (A) (A) (A) (A)
                 (A) (A) (A) (A) (A) (A) (A) (A) (A) (A) (A) (A)
                 (A) (A) (A) (A) (A) (A) (A) (A) (A) (A) (A) (A)
                 (A) (A) (A) (A) (A) (A) (A) (A) (A) (A) (A) (A)
                 (A) (A) (A) (A) (A) (A) (A) (A) (A) (A) (A) (A)
                 (A) (A) (A) (A) (A) (A) (A) (A) (A) (A) (A) (A)
                 (A) (A) (A) (A) (A) (A) (A) (A) (A) (A) (A) (A)
                 (A) (A) (A) (A) (A) (A) (A) (A) (A) (A) (A) (A)
                 (A) (A) (A) (A) (A) (A) (A) (A) (A) (A) (A) (A)
                 (A) (A) (A) (A) (A) (A) (A) (A) (A) (A) (A) (A)
                 (A) (A) (A) (A) (A) (A) (A) (A) (A) (A) (A) (A)
                 (A) (A) (A) (A) (A) (A) (A) (A) (A) (A) (A) (A)
                 (A) (A)
 Beta  Orbitals:
       Occupied  (A) (A) (A) (A) (A) (A) (A) (A) (A) (A) (A) (A)
                 (A) (A) (A) (A) (A) (A) (A) (A) (A) (A) (A) (A)
                 (A) (A) (A) (A) (A) (A)
       Virtual   (A) (A) (A) (A) (A) (A) (A) (A) (A) (A) (A) (A)
                 (A) (A) (A) (A) (A) (A) (A) (A) (A) (A) (A) (A)
                 (A) (A) (A) (A) (A) (A) (A) (A) (A) (A) (A) (A)
                 (A) (A) (A) (A) (A) (A) (A) (A) (A) (A) (A) (A)
                 (A) (A) (A) (A) (A) (A) (A) (A) (A) (A) (A) (A)
                 (A) (A) (A) (A) (A) (A) (A) (A) (A) (A) (A) (A)
                 (A) (A) (A) (A) (A) (A) (A) (A) (A) (A) (A) (A)
                 (A) (A) (A) (A) (A) (A) (A) (A) (A) (A) (A) (A)
                 (A) (A) (A) (A) (A) (A) (A) (A) (A) (A) (A) (A)
                 (A) (A) (A) (A) (A) (A) (A) (A) (A) (A) (A) (A)
                 (A) (A) (A) (A) (A) (A) (A) (A) (A) (A) (A) (A)
                 (A) (A) (A) (A) (A) (A) (A) (A) (A) (A) (A) (A)
                 (A) (A) (A) (A) (A) (A) (A) (A) (A) (A) (A) (A)
                 (A) (A) (A) (A) (A) (A) (A) (A) (A) (A) (A) (A)
                 (A) (A) (A) (A) (A) (A) (A) (A) (A) (A) (A) (A)
                 (A) (A) (A) (A) (A) (A) (A) (A) (A) (A) (A) (A)
                 (A) (A) (A)
 The electronic state is 2-A.
 Alpha  occ. eigenvalues --  -19.69493 -19.64492 -19.64353 -10.72093 -10.62552
 Alpha  occ. eigenvalues --  -10.62505 -10.59791 -10.55504  -1.26685  -1.18166
 Alpha  occ. eigenvalues --   -1.10421  -0.91760  -0.89715  -0.78759  -0.75320
 Alpha  occ. eigenvalues --   -0.65873  -0.62728  -0.59836  -0.58223  -0.54314
 Alpha  occ. eigenvalues --   -0.52437  -0.50939  -0.49573  -0.48366  -0.47164
 Alpha  occ. eigenvalues --   -0.43671  -0.42141  -0.40454  -0.39406  -0.37126
 Alpha  occ. eigenvalues --   -0.32828
 Alpha virt. eigenvalues --   -0.03497  -0.01102   0.00435   0.00927   0.01783
 Alpha virt. eigenvalues --    0.02798   0.03464   0.04431   0.05068   0.05625
 Alpha virt. eigenvalues --    0.06841   0.07269   0.08432   0.08758   0.10068
 Alpha virt. eigenvalues --    0.10425   0.11075   0.11690   0.11917   0.13204
 Alpha virt. eigenvalues --    0.13369   0.13444   0.14169   0.15164   0.15404
 Alpha virt. eigenvalues --    0.15928   0.16607   0.17930   0.18205   0.19006
 Alpha virt. eigenvalues --    0.19355   0.21283   0.22281   0.23321   0.24211
 Alpha virt. eigenvalues --    0.24341   0.26862   0.28278   0.28928   0.29883
 Alpha virt. eigenvalues --    0.30789   0.31219   0.31528   0.32261   0.32985
 Alpha virt. eigenvalues --    0.33650   0.34824   0.35185   0.38356   0.39248
 Alpha virt. eigenvalues --    0.39617   0.41017   0.44783   0.45660   0.47753
 Alpha virt. eigenvalues --    0.48722   0.50033   0.51639   0.56988   0.58129
 Alpha virt. eigenvalues --    0.60020   0.61760   0.62305   0.63487   0.65058
 Alpha virt. eigenvalues --    0.67618   0.67958   0.69066   0.69720   0.70868
 Alpha virt. eigenvalues --    0.71614   0.74417   0.75367   0.77354   0.80319
 Alpha virt. eigenvalues --    0.84849   0.87559   0.90502   0.94262   0.97266
 Alpha virt. eigenvalues --    0.98188   1.04183   1.06057   1.07090   1.08488
 Alpha virt. eigenvalues --    1.11695   1.15541   1.17111   1.19698   1.21846
 Alpha virt. eigenvalues --    1.22281   1.23592   1.27791   1.29483   1.31233
 Alpha virt. eigenvalues --    1.33820   1.34881   1.39589   1.41156   1.44748
 Alpha virt. eigenvalues --    1.45329   1.48754   1.50633   1.52269   1.54257
 Alpha virt. eigenvalues --    1.56008   1.58190   1.60437   1.60536   1.63824
 Alpha virt. eigenvalues --    1.66544   1.68940   1.70652   1.71553   1.75411
 Alpha virt. eigenvalues --    1.78994   1.82306   1.83525   1.85004   1.87426
 Alpha virt. eigenvalues --    1.89666   1.94987   1.97678   2.00819   2.03748
 Alpha virt. eigenvalues --    2.11022   2.13183   2.16384   2.21377   2.25714
 Alpha virt. eigenvalues --    2.31203   2.33419   2.34897   2.49694   2.52550
 Alpha virt. eigenvalues --    2.53183   2.57364   2.60599   2.61853   2.63680
 Alpha virt. eigenvalues --    2.65301   2.65959   2.69110   2.70467   2.73877
 Alpha virt. eigenvalues --    2.78586   2.79079   2.82911   2.85279   2.90040
 Alpha virt. eigenvalues --    2.90455   2.93067   2.95054   2.97865   2.98987
 Alpha virt. eigenvalues --    3.09207   3.12017   3.14491   3.19500   3.23568
 Alpha virt. eigenvalues --    3.25772   3.29371   3.31977   3.39274   3.41684
 Alpha virt. eigenvalues --    3.42863   3.58024   3.61973   3.74453   3.83588
 Alpha virt. eigenvalues --    3.84717   3.85903   3.92232   4.02916   4.10928
 Alpha virt. eigenvalues --    4.14606   4.29923   5.09233   5.14128   5.14727
 Alpha virt. eigenvalues --    5.14794   5.27159   5.43281   5.60065   5.68399
 Alpha virt. eigenvalues --    5.97176  23.60513  23.90890  23.92565  24.03602
 Alpha virt. eigenvalues --   24.80932  49.97665  49.98781  50.13290
  Beta  occ. eigenvalues --  -19.69496 -19.64242 -19.63393 -10.72128 -10.62643
  Beta  occ. eigenvalues --  -10.62534 -10.59376 -10.55502  -1.26589  -1.17914
  Beta  occ. eigenvalues --   -1.06220  -0.90114  -0.89638  -0.78587  -0.75020
  Beta  occ. eigenvalues --   -0.65635  -0.62333  -0.59430  -0.58063  -0.54135
  Beta  occ. eigenvalues --   -0.50706  -0.50327  -0.48405  -0.47114  -0.43606
  Beta  occ. eigenvalues --   -0.42148  -0.41126  -0.39135  -0.38135  -0.35098
  Beta virt. eigenvalues --   -0.10368  -0.03382  -0.01098   0.00559   0.00924
  Beta virt. eigenvalues --    0.02048   0.03046   0.03805   0.04512   0.05574
  Beta virt. eigenvalues --    0.06090   0.07074   0.07831   0.08617   0.09019
  Beta virt. eigenvalues --    0.10155   0.10943   0.11131   0.12061   0.12403
  Beta virt. eigenvalues --    0.13222   0.13531   0.13588   0.14151   0.15125
  Beta virt. eigenvalues --    0.15531   0.16242   0.16779   0.18125   0.18359
  Beta virt. eigenvalues --    0.19253   0.19542   0.21616   0.22610   0.23366
  Beta virt. eigenvalues --    0.24327   0.24599   0.26919   0.27882   0.29189
  Beta virt. eigenvalues --    0.29887   0.30761   0.31320   0.31465   0.32156
  Beta virt. eigenvalues --    0.33082   0.33561   0.34862   0.35349   0.38486
  Beta virt. eigenvalues --    0.39363   0.39892   0.41057   0.44907   0.45943
  Beta virt. eigenvalues --    0.48210   0.48684   0.50216   0.51959   0.57093
  Beta virt. eigenvalues --    0.58331   0.60366   0.61862   0.62773   0.64025
  Beta virt. eigenvalues --    0.65339   0.67988   0.68070   0.69267   0.69754
  Beta virt. eigenvalues --    0.70903   0.72020   0.74381   0.75561   0.77507
  Beta virt. eigenvalues --    0.80430   0.84856   0.87716   0.90648   0.94524
  Beta virt. eigenvalues --    0.97459   0.98429   1.04238   1.06630   1.07465
  Beta virt. eigenvalues --    1.09044   1.12526   1.16477   1.17596   1.20636
  Beta virt. eigenvalues --    1.22171   1.23021   1.24556   1.28256   1.29692
  Beta virt. eigenvalues --    1.31669   1.34386   1.35150   1.39733   1.41937
  Beta virt. eigenvalues --    1.45327   1.45389   1.48931   1.50679   1.52988
  Beta virt. eigenvalues --    1.55334   1.56329   1.58407   1.60565   1.60592
  Beta virt. eigenvalues --    1.64301   1.66773   1.69037   1.70794   1.71795
  Beta virt. eigenvalues --    1.75434   1.79114   1.82595   1.83679   1.85548
  Beta virt. eigenvalues --    1.87769   1.89801   1.95464   1.97821   2.01097
  Beta virt. eigenvalues --    2.03900   2.11181   2.13744   2.16573   2.21643
  Beta virt. eigenvalues --    2.25971   2.31293   2.33602   2.35153   2.49708
  Beta virt. eigenvalues --    2.52617   2.53182   2.57507   2.60608   2.61898
  Beta virt. eigenvalues --    2.63711   2.65052   2.66022   2.69468   2.70345
  Beta virt. eigenvalues --    2.73996   2.78533   2.79093   2.83619   2.86555
  Beta virt. eigenvalues --    2.90321   2.93314   2.95180   2.95461   2.98320
  Beta virt. eigenvalues --    2.99252   3.10427   3.12142   3.14886   3.20954
  Beta virt. eigenvalues --    3.24014   3.28373   3.30171   3.32370   3.39512
  Beta virt. eigenvalues --    3.41756   3.43029   3.57834   3.62254   3.74654
  Beta virt. eigenvalues --    3.83607   3.84736   3.85980   3.94665   4.03025
  Beta virt. eigenvalues --    4.11314   4.14948   4.29980   5.11124   5.14184
  Beta virt. eigenvalues --    5.14994   5.20864   5.27625   5.43378   5.62226
  Beta virt. eigenvalues --    5.68514   5.97237  23.60612  23.90906  23.92585
  Beta virt. eigenvalues --   24.03604  24.81157  49.97011  49.98754  50.13210
          Condensed to atoms (all electrons):
               1          2          3          4          5          6
     1  C   17.627583   0.697206  -7.382016  -3.945265   0.047991  -0.002656
     2  H    0.697206   0.427759  -0.260620  -0.060262  -0.000644   0.000366
     3  C   -7.382016  -0.260620  11.592443   1.283429  -0.000938  -0.306732
     4  C   -3.945265  -0.060262   1.283429   8.460352   0.254081   0.279847
     5  O    0.047991  -0.000644  -0.000938   0.254081   8.021952  -0.073898
     6  O   -0.002656   0.000366  -0.306732   0.279847  -0.073898   8.143610
     7  C   -0.470910  -0.010395   0.274236  -0.043234   0.001866   0.206205
     8  C    0.283084   0.005503  -0.064921  -0.159198   0.015847  -0.139113
     9  H   -0.047509  -0.000169   0.015408   0.054310  -0.003823  -0.002449
    10  H   -0.045442  -0.000590  -0.002299   0.015148   0.000498  -0.075999
    11  H    0.035130   0.000545   0.003409  -0.022122   0.000491  -0.007247
    12  H   -0.103454  -0.003504   0.071077   0.022855  -0.001828  -0.008587
    13  H    0.002219   0.000321   0.000364  -0.013599   0.000727   0.013248
    14  O   -0.126189  -0.039513   0.063250   0.025983   0.001939  -0.001399
    15  H    0.012005   0.007401   0.002629  -0.024503   0.012446   0.003347
               7          8          9         10         11         12
     1  C   -0.470910   0.283084  -0.047509  -0.045442   0.035130  -0.103454
     2  H   -0.010395   0.005503  -0.000169  -0.000590   0.000545  -0.003504
     3  C    0.274236  -0.064921   0.015408  -0.002299   0.003409   0.071077
     4  C   -0.043234  -0.159198   0.054310   0.015148  -0.022122   0.022855
     5  O    0.001866   0.015847  -0.003823   0.000498   0.000491  -0.001828
     6  O    0.206205  -0.139113  -0.002449  -0.075999  -0.007247  -0.008587
     7  C    5.709393  -0.081373   0.352400   0.488705  -0.078233   0.056964
     8  C   -0.081373   5.479619  -0.036519  -0.081410   0.451956   0.322317
     9  H    0.352400  -0.036519   0.558740  -0.047725   0.010077  -0.018695
    10  H    0.488705  -0.081410  -0.047725   0.527329  -0.018970   0.019191
    11  H   -0.078233   0.451956   0.010077  -0.018970   0.524686  -0.053581
    12  H    0.056964   0.322317  -0.018695   0.019191  -0.053581   0.586448
    13  H   -0.047405   0.413784  -0.006904   0.002869  -0.035339  -0.032791
    14  O   -0.001334   0.001701  -0.000438   0.000044   0.000096  -0.001021
    15  H   -0.003325   0.000332   0.000862  -0.000213   0.000145   0.000046
              13         14         15
     1  C    0.002219  -0.126189   0.012005
     2  H    0.000321  -0.039513   0.007401
     3  C    0.000364   0.063250   0.002629
     4  C   -0.013599   0.025983  -0.024503
     5  O    0.000727   0.001939   0.012446
     6  O    0.013248  -0.001399   0.003347
     7  C   -0.047405  -0.001334  -0.003325
     8  C    0.413784   0.001701   0.000332
     9  H   -0.006904  -0.000438   0.000862
    10  H    0.002869   0.000044  -0.000213
    11  H   -0.035339   0.000096   0.000145
    12  H   -0.032791  -0.001021   0.000046
    13  H    0.543507  -0.000055  -0.000168
    14  O   -0.000055   8.108062   0.266536
    15  H   -0.000168   0.266536   0.476696
          Atomic-Atomic Spin Densities.
               1          2          3          4          5          6
     1  C   -0.019826   0.034577  -0.183462   0.031286  -0.034766   0.016562
     2  H    0.034577   0.014719  -0.023818   0.004650  -0.000416  -0.000404
     3  C   -0.183462  -0.023818   0.834380  -0.000995  -0.011410  -0.001251
     4  C    0.031286   0.004650  -0.000995  -0.077280   0.002079   0.028107
     5  O   -0.034766  -0.000416  -0.011410   0.002079   0.069678   0.002932
     6  O    0.016562  -0.000404  -0.001251   0.028107   0.002932  -0.034356
     7  C   -0.017299  -0.001685   0.007684  -0.018884   0.000700   0.004892
     8  C   -0.001326   0.000292  -0.001032   0.016004   0.001816  -0.004827
     9  H    0.021784   0.000807  -0.014003  -0.008511  -0.000370  -0.000450
    10  H   -0.006922  -0.000096   0.000986   0.003368   0.000174   0.000561
    11  H    0.004636   0.000110  -0.000930  -0.003657  -0.000154   0.000100
    12  H   -0.006862  -0.000158   0.003315   0.002692   0.000100   0.000418
    13  H   -0.002023  -0.000187   0.001092   0.001853   0.000022  -0.000280
    14  O   -0.121153  -0.001905  -0.003178   0.006327   0.007744   0.000677
    15  H    0.001684  -0.000266   0.002026   0.001791  -0.001036  -0.000273
               7          8          9         10         11         12
     1  C   -0.017299  -0.001326   0.021784  -0.006922   0.004636  -0.006862
     2  H   -0.001685   0.000292   0.000807  -0.000096   0.000110  -0.000158
     3  C    0.007684  -0.001032  -0.014003   0.000986  -0.000930   0.003315
     4  C   -0.018884   0.016004  -0.008511   0.003368  -0.003657   0.002692
     5  O    0.000700   0.001816  -0.000370   0.000174  -0.000154   0.000100
     6  O    0.004892  -0.004827  -0.000450   0.000561   0.000100   0.000418
     7  C    0.039523  -0.019256   0.000491  -0.001262   0.000821   0.000688
     8  C   -0.019256   0.018898   0.001531   0.002106  -0.001126  -0.000029
     9  H    0.000491   0.001531   0.000902  -0.003271   0.000328  -0.000036
    10  H   -0.001262   0.002106  -0.003271   0.007094  -0.001390   0.000680
    11  H    0.000821  -0.001126   0.000328  -0.001390   0.001367  -0.001027
    12  H    0.000688  -0.000029  -0.000036   0.000680  -0.001027   0.000177
    13  H    0.000337  -0.000744  -0.000108   0.000344  -0.000117   0.000463
    14  O    0.003355   0.001063  -0.001018   0.000288  -0.000239   0.000394
    15  H   -0.000486  -0.000194   0.000123  -0.000093   0.000052  -0.000070
              13         14         15
     1  C   -0.002023  -0.121153   0.001684
     2  H   -0.000187  -0.001905  -0.000266
     3  C    0.001092  -0.003178   0.002026
     4  C    0.001853   0.006327   0.001791
     5  O    0.000022   0.007744  -0.001036
     6  O   -0.000280   0.000677  -0.000273
     7  C    0.000337   0.003355  -0.000486
     8  C   -0.000744   0.001063  -0.000194
     9  H   -0.000108  -0.001018   0.000123
    10  H    0.000344   0.000288  -0.000093
    11  H   -0.000117  -0.000239   0.000052
    12  H    0.000463   0.000394  -0.000070
    13  H   -0.000024   0.000112  -0.000005
    14  O    0.000112   0.709446   0.007065
    15  H   -0.000005   0.007065  -0.023952
 Mulliken charges and spin densities:
               1          2
     1  C   -0.581776  -0.283111
     2  H    0.236597   0.026220
     3  C    0.711280   0.609403
     4  C   -0.127822  -0.011171
     5  O   -0.276708   0.037092
     6  O   -0.028543   0.012410
     7  C   -0.353561  -0.000380
     8  C   -0.411610   0.013176
     9  H    0.172436  -0.001804
    10  H    0.218865   0.002567
    11  H    0.188959  -0.001226
    12  H    0.144564   0.000744
    13  H    0.159220   0.000736
    14  O   -0.297663   0.608978
    15  H    0.245764  -0.013635
 Sum of Mulliken charges =  -0.00000   1.00000
 Mulliken charges and spin densities with hydrogens summed into heavy atoms:
               1          2
     1  C   -0.345179  -0.256891
     3  C    0.711280   0.609403
     4  C   -0.127822  -0.011171
     5  O   -0.276708   0.037092
     6  O   -0.028543   0.012410
     7  C    0.037739   0.000383
     8  C    0.081133   0.013430
    14  O   -0.051899   0.595344
 APT charges:
               1
     1  C   -0.264928
     2  H    0.227731
     3  C   -0.231773
     4  C    1.537724
     5  O   -0.829856
     6  O   -0.948028
     7  C    0.521391
     8  C   -0.031862
     9  H   -0.020873
    10  H   -0.007035
    11  H    0.016866
    12  H    0.011066
    13  H    0.012754
    14  O   -0.258768
    15  H    0.265589
 Sum of APT charges =  -0.00000
 APT charges with hydrogens summed into heavy atoms:
               1
     1  C   -0.037197
     3  C   -0.231773
     4  C    1.537724
     5  O   -0.829856
     6  O   -0.948028
     7  C    0.493484
     8  C    0.008825
    14  O    0.006821
 Electronic spatial extent (au):  <R**2>=           1179.2154
 Charge=             -0.0000 electrons
 Dipole moment (field-independent basis, Debye):
    X=              3.7826    Y=             -3.4123    Z=             -1.1415  Tot=              5.2206
 Quadrupole moment (field-independent basis, Debye-Ang):
   XX=            -51.0744   YY=            -48.9522   ZZ=            -47.3991
   XY=             -1.5712   XZ=              0.7022   YZ=              0.9890
 Traceless Quadrupole moment (field-independent basis, Debye-Ang):
   XX=             -1.9325   YY=              0.1897   ZZ=              1.7428
   XY=             -1.5712   XZ=              0.7022   YZ=              0.9890
 Octapole moment (field-independent basis, Debye-Ang**2):
  XXX=             46.5886  YYY=            -15.6272  ZZZ=              1.0362  XYY=             -9.5136
  XXY=              4.0102  XXZ=             -4.1580  XZZ=              2.6555  YZZ=              3.5902
  YYZ=             -4.3360  XYZ=             -3.9620
 Hexadecapole moment (field-independent basis, Debye-Ang**3):
 XXXX=          -1131.0594 YYYY=           -343.6490 ZZZZ=           -118.4800 XXXY=            -39.1954
 XXXZ=             -6.6234 YYYX=             27.7390 YYYZ=              4.2289 ZZZX=             -5.0796
 ZZZY=              1.5502 XXYY=           -208.4167 XXZZ=           -193.0889 YYZZ=            -77.1119
 XXYZ=             13.7269 YYXZ=              5.8944 ZZXY=              0.5026
 N-N= 3.544145501746D+02 E-N=-1.692820958217D+03  KE= 4.187210730898D+02
  Exact polarizability: 106.427   0.263  71.611  -6.557   4.127  51.778
 Approx polarizability: 111.225   4.360  90.058  -8.848   7.283  61.071
                          Isotropic Fermi Contact Couplings
        Atom                 a.u.       MegaHertz       Gauss      10(-4) cm-1
     1  C(13)             -0.00328      -3.68360      -1.31440      -1.22872
     2  H(1)               0.01088      48.61576      17.34731      16.21647
     3  C(13)              0.09110     102.41281      36.54344      34.16124
     4  C(13)             -0.02036     -22.89070      -8.16797      -7.63552
     5  O(17)              0.01680     -10.18456      -3.63411      -3.39720
     6  O(17)             -0.00465       2.81741       1.00532       0.93979
     7  C(13)              0.01167      13.12354       4.68281       4.37754
     8  C(13)              0.00129       1.44502       0.51562       0.48201
     9  H(1)               0.00070       3.11095       1.11007       1.03770
    10  H(1)               0.00071       3.19202       1.13899       1.06474
    11  H(1)               0.00002       0.07908       0.02822       0.02638
    12  H(1)               0.00010       0.45343       0.16180       0.15125
    13  H(1)               0.00007       0.29297       0.10454       0.09773
    14  O(17)              0.08560     -51.88761     -18.51479     -17.30784
    15  H(1)              -0.01029     -45.98681     -16.40924     -15.33955
 --------------------------------------------------------
       Center         ----  Spin Dipole Couplings  ----
                      3XX-RR        3YY-RR        3ZZ-RR
 --------------------------------------------------------
     1   Atom       -0.033885      0.087149     -0.053264
     2   Atom        0.001000     -0.000762     -0.000238
     3   Atom        0.241204     -0.085784     -0.155420
     4   Atom        0.006314      0.014251     -0.020565
     5   Atom       -0.058831      0.104622     -0.045792
     6   Atom       -0.002308      0.012617     -0.010309
     7   Atom        0.009841     -0.004808     -0.005033
     8   Atom        0.006133     -0.003872     -0.002261
     9   Atom        0.012271     -0.007839     -0.004432
    10   Atom        0.003611     -0.002086     -0.001525
    11   Atom        0.002133     -0.001645     -0.000488
    12   Atom        0.003738     -0.003751      0.000013
    13   Atom        0.002330     -0.000884     -0.001446
    14   Atom        1.882987     -0.972669     -0.910318
    15   Atom       -0.017329      0.095059     -0.077730
 --------------------------------------------------------
                        XY            XZ            YZ
 --------------------------------------------------------
     1   Atom        0.116717      0.033748      0.011712
     2   Atom       -0.009333     -0.003401      0.002041
     3   Atom       -0.428161     -0.232572      0.140655
     4   Atom        0.009919     -0.001658      0.005723
     5   Atom        0.103521      0.005699     -0.014315
     6   Atom        0.010331     -0.001238      0.003750
     7   Atom        0.009505      0.006688      0.006001
     8   Atom       -0.000311      0.001276     -0.000644
     9   Atom        0.000421     -0.005588      0.002786
    10   Atom        0.001510     -0.001533     -0.000239
    11   Atom        0.000274      0.001822      0.000181
    12   Atom       -0.002664      0.005267     -0.002392
    13   Atom       -0.001583      0.000899     -0.000409
    14   Atom       -0.908176     -0.990660      0.287357
    15   Atom        0.043479     -0.006408      0.033685
 --------------------------------------------------------


 ---------------------------------------------------------------------------------
              Anisotropic Spin Dipole Couplings in Principal Axis System
 ---------------------------------------------------------------------------------

       Atom             a.u.   MegaHertz   Gauss  10(-4) cm-1        Axes

              Baa    -0.1138   -15.272    -5.449    -5.094  0.8137 -0.4513 -0.3663
     1 C(13)  Bbb    -0.0479    -6.422    -2.292    -2.142  0.2505 -0.2965  0.9216
              Bcc     0.1617    21.694     7.741     7.236  0.5245  0.8417  0.1282
 
              Baa    -0.0093    -4.977    -1.776    -1.660  0.6843  0.7232  0.0937
     2 H(1)   Bbb    -0.0015    -0.817    -0.292    -0.273  0.1811 -0.2930  0.9388
              Bcc     0.0109     5.794     2.068     1.933  0.7064 -0.6254 -0.3315
 
              Baa    -0.3824   -51.309   -18.308   -17.115  0.5899  0.8001  0.1086
     3 C(13)  Bbb    -0.2474   -33.205   -11.848   -11.076  0.2036 -0.2776  0.9389
              Bcc     0.6298    84.514    30.157    28.191  0.7814 -0.5317 -0.3267
 
              Baa    -0.0219    -2.936    -1.048    -0.979  0.1235 -0.1882  0.9743
     4 C(13)  Bbb     0.0006     0.075     0.027     0.025  0.8313 -0.5165 -0.2052
              Bcc     0.0213     2.861     1.021     0.954  0.5419  0.8353  0.0927
 
              Baa    -0.1110     8.031     2.866     2.679  0.8834 -0.4356 -0.1729
     5 O(17)  Bbb    -0.0443     3.208     1.145     1.070  0.1781 -0.0292  0.9836
              Bcc     0.1553   -11.239    -4.010    -3.749  0.4335  0.8997 -0.0518
 
              Baa    -0.0123     0.887     0.316     0.296  0.4221 -0.3041  0.8541
     6 O(17)  Bbb    -0.0059     0.428     0.153     0.143  0.7907 -0.3374 -0.5109
              Bcc     0.0182    -1.315    -0.469    -0.439  0.4435  0.8909  0.0980
 
              Baa    -0.0113    -1.511    -0.539    -0.504 -0.1751  0.7963 -0.5790
     7 C(13)  Bbb    -0.0066    -0.880    -0.314    -0.294 -0.5392  0.4145  0.7331
              Bcc     0.0178     2.392     0.853     0.798  0.8238  0.4406  0.3568
 
              Baa    -0.0041    -0.550    -0.196    -0.184 -0.0137  0.9407  0.3389
     8 C(13)  Bbb    -0.0022    -0.300    -0.107    -0.100 -0.1541 -0.3368  0.9289
              Bcc     0.0063     0.851     0.304     0.284  0.9880 -0.0395  0.1496
 
              Baa    -0.0099    -5.285    -1.886    -1.763 -0.1595  0.8043 -0.5724
     9 H(1)   Bbb    -0.0041    -2.172    -0.775    -0.725  0.2466  0.5939  0.7658
              Bcc     0.0140     7.457     2.661     2.487  0.9559 -0.0190 -0.2931
 
              Baa    -0.0025    -1.330    -0.475    -0.444 -0.2868  0.9314 -0.2242
    10 H(1)   Bbb    -0.0019    -1.012    -0.361    -0.338  0.1842  0.2833  0.9412
              Bcc     0.0044     2.342     0.836     0.781  0.9401  0.2286 -0.2528
 
              Baa    -0.0017    -0.893    -0.318    -0.298  0.0035  0.9878 -0.1560
    11 H(1)   Bbb    -0.0014    -0.756    -0.270    -0.252 -0.4607  0.1400  0.8764
              Bcc     0.0031     1.648     0.588     0.550  0.8875  0.0688  0.4556
 
              Baa    -0.0049    -2.623    -0.936    -0.875  0.0325  0.9124  0.4080
    12 H(1)   Bbb    -0.0036    -1.910    -0.682    -0.637 -0.6268 -0.2994  0.7194
              Bcc     0.0085     4.533     1.617     1.512  0.7785 -0.2792  0.5621
 
              Baa    -0.0017    -0.889    -0.317    -0.296 -0.0846  0.3219  0.9430
    13 H(1)   Bbb    -0.0015    -0.813    -0.290    -0.271  0.4182  0.8704 -0.2596
              Bcc     0.0032     1.701     0.607     0.567  0.9044 -0.3724  0.2082
 
              Baa    -1.2371    89.515    31.941    29.859  0.3013  0.9504  0.0776
    14 O(17)  Bbb    -1.2257    88.689    31.646    29.583  0.2572 -0.1594  0.9531
              Bcc     2.4628  -178.204   -63.588   -59.443  0.9182 -0.2672 -0.2924
 
              Baa    -0.0874   -46.651   -16.646   -15.561  0.2286 -0.2291  0.9462
    15 H(1)   Bbb    -0.0271   -14.484    -5.168    -4.831  0.9253 -0.2509 -0.2843
              Bcc     0.1146    61.136    21.815    20.393  0.3025  0.9405  0.1547
 

 ---------------------------------------------------------------------------------

 Calling FoFJK, ICntrl=    100127 FMM=F ISym2X=0 I1Cent= 0 IOpClX= 1 NMat=1 NMatS=1 NMatT=0.
 Full mass-weighted force constant matrix:
 Low frequencies --- -830.0376    0.0004    0.0007    0.0008    4.5039   12.6678
 Low frequencies ---   24.1320   72.2771  101.6814
 ******    1 imaginary frequencies (negative Signs) ****** 
 Diagonal vibrational polarizability:
       28.7346746       9.6367300      32.6467442
 Harmonic frequencies (cm**-1), IR intensities (KM/Mole), Raman scattering
 activities (A**4/AMU), depolarization ratios for plane and unpolarized
 incident light, reduced masses (AMU), force constants (mDyne/A),
 and normal coordinates:
                      1                      2                      3
                      A                      A                      A
 Frequencies --   -830.0375                70.3713                99.6472
 Red. masses --     10.5624                 3.8062                 5.1160
 Frc consts  --      4.2876                 0.0111                 0.0299
 IR Inten    --     52.0897                 0.1303                 0.7813
  Atom  AN      X      Y      Z        X      Y      Z        X      Y      Z
     1   6     0.61  -0.38  -0.25    -0.09   0.01  -0.03    -0.08  -0.01   0.05
     2   1    -0.34   0.04   0.09    -0.14   0.04  -0.08    -0.17   0.02   0.11
     3   6    -0.11   0.06   0.04    -0.04  -0.05   0.05     0.01  -0.11   0.03
     4   6     0.01   0.01  -0.00     0.00  -0.07   0.06    -0.06  -0.07   0.01
     5   8     0.01   0.00   0.00     0.04  -0.09   0.19    -0.16  -0.07  -0.19
     6   8     0.00  -0.00  -0.00    -0.02  -0.06  -0.12    -0.03  -0.03   0.26
     7   6    -0.00  -0.00  -0.00    -0.02  -0.07  -0.04     0.05   0.08   0.02
     8   6    -0.00   0.00   0.00     0.21   0.20   0.06     0.27  -0.06  -0.12
     9   1    -0.02  -0.00   0.01    -0.11  -0.24   0.17     0.02   0.12   0.01
    10   1    -0.00  -0.01  -0.01    -0.11  -0.12  -0.26    -0.05   0.23  -0.03
    11   1     0.00   0.00  -0.00     0.29   0.36  -0.15     0.28  -0.10  -0.09
    12   1    -0.00  -0.00  -0.00     0.29   0.26   0.28     0.37  -0.22  -0.08
    13   1    -0.00  -0.00  -0.00     0.21   0.17   0.14     0.34   0.05  -0.32
    14   8    -0.36   0.22   0.15    -0.09   0.09  -0.14    -0.01   0.20  -0.02
    15   1    -0.19   0.19   0.08    -0.03   0.05  -0.02     0.08   0.19  -0.15
                      4                      5                      6
                      A                      A                      A
 Frequencies --    112.3264               128.8249               203.9425
 Red. masses --      5.0339                 5.4921                 1.5994
 Frc consts  --      0.0374                 0.0537                 0.0392
 IR Inten    --      0.5462                 2.2461                 1.2227
  Atom  AN      X      Y      Z        X      Y      Z        X      Y      Z
     1   6    -0.03  -0.02  -0.07     0.09  -0.08   0.25     0.07  -0.04  -0.00
     2   1    -0.18   0.04  -0.04     0.11  -0.11   0.37     0.08  -0.05   0.02
     3   6     0.08  -0.14  -0.17     0.10  -0.10   0.32     0.04  -0.00  -0.01
     4   6    -0.01  -0.11  -0.05     0.03  -0.02   0.09    -0.02   0.02   0.01
     5   8    -0.10  -0.22   0.09    -0.01  -0.03   0.06    -0.05   0.00   0.01
     6   8    -0.04   0.04  -0.11    -0.01   0.07  -0.10    -0.02   0.01   0.03
     7   6     0.08   0.09   0.02     0.02   0.08  -0.09    -0.11  -0.04  -0.01
     8   6    -0.16   0.07   0.08    -0.16  -0.05  -0.13    -0.03   0.00  -0.00
     9   1     0.26   0.08  -0.11     0.11   0.17  -0.23    -0.23  -0.04   0.09
    10   1     0.16   0.14   0.22     0.09   0.13   0.07    -0.14  -0.12  -0.13
    11   1    -0.36   0.09   0.21    -0.28  -0.12   0.02     0.43  -0.12  -0.23
    12   1    -0.23  -0.01  -0.14    -0.21  -0.14  -0.30    -0.04   0.42   0.30
    13   1    -0.04   0.12   0.20    -0.10  -0.01  -0.13    -0.43  -0.29  -0.09
    14   8     0.16   0.23   0.12    -0.02   0.09  -0.27     0.12   0.04  -0.03
    15   1     0.35   0.17   0.12     0.01   0.08  -0.26     0.15   0.03  -0.07
                      7                      8                      9
                      A                      A                      A
 Frequencies --    253.4652               271.6453               327.4689
 Red. masses --      1.7834                 3.6471                 1.0918
 Frc consts  --      0.0675                 0.1586                 0.0690
 IR Inten    --      2.5686                 0.0759               109.5552
  Atom  AN      X      Y      Z        X      Y      Z        X      Y      Z
     1   6     0.06  -0.04  -0.02    -0.05   0.06  -0.26     0.01  -0.01   0.03
     2   1     0.08  -0.05  -0.02    -0.16   0.21  -0.76     0.01  -0.01   0.06
     3   6    -0.01   0.03   0.01     0.06  -0.09   0.33    -0.00   0.01  -0.02
     4   6    -0.05   0.04   0.02     0.02  -0.03   0.10    -0.00   0.01  -0.02
     5   8    -0.01   0.06   0.02    -0.02   0.02  -0.12    -0.01   0.00  -0.01
     6   8    -0.05  -0.03   0.01    -0.00   0.01  -0.04    -0.00   0.00   0.01
     7   6    -0.12  -0.08  -0.01    -0.01  -0.00  -0.01    -0.00  -0.00   0.01
     8   6     0.01  -0.00   0.00    -0.03   0.02   0.01     0.00  -0.01   0.00
     9   1    -0.21  -0.11   0.08    -0.01  -0.01  -0.01    -0.01   0.00   0.01
    10   1    -0.16  -0.13  -0.13    -0.01  -0.02  -0.01    -0.00  -0.00   0.00
    11   1    -0.41   0.22   0.10    -0.01   0.02  -0.01     0.01  -0.01   0.00
    12   1     0.12  -0.45  -0.15    -0.04   0.06   0.02     0.01  -0.01   0.00
    13   1     0.46   0.32   0.07    -0.06  -0.01   0.03     0.01  -0.00  -0.01
    14   8     0.14   0.03  -0.02     0.04  -0.01   0.07    -0.01   0.01  -0.06
    15   1     0.16   0.02  -0.05     0.11  -0.07   0.31     0.24  -0.23   0.94
                     10                     11                     12
                      A                      A                      A
 Frequencies --    383.8834               416.9819               568.7942
 Red. masses --      3.6175                 3.9110                 4.9745
 Frc consts  --      0.3141                 0.4007                 0.9482
 IR Inten    --      6.7314                 5.0134                20.5359
  Atom  AN      X      Y      Z        X      Y      Z        X      Y      Z
     1   6     0.03   0.11   0.03    -0.06  -0.13  -0.01    -0.11  -0.15  -0.02
     2   1     0.00   0.12   0.05    -0.07  -0.13   0.01    -0.24  -0.11   0.00
     3   6     0.19  -0.04  -0.06    -0.15  -0.04   0.00     0.03  -0.25  -0.07
     4   6     0.13  -0.02   0.00    -0.02  -0.08   0.04     0.02  -0.07  -0.04
     5   8    -0.03  -0.13  -0.05     0.17   0.08  -0.03     0.28   0.07  -0.01
     6   8     0.14   0.06   0.15    -0.01  -0.15   0.19    -0.01   0.17  -0.01
     7   6    -0.14  -0.06  -0.10     0.07   0.05  -0.15    -0.20   0.17   0.15
     8   6    -0.10   0.10  -0.04    -0.11   0.19  -0.06    -0.02  -0.00   0.00
     9   1    -0.44   0.01   0.08     0.13   0.10  -0.24    -0.34   0.14   0.27
    10   1    -0.18  -0.27  -0.35     0.05   0.21  -0.05    -0.20  -0.06  -0.03
    11   1    -0.31   0.34  -0.10    -0.20   0.34  -0.13     0.10  -0.19   0.09
    12   1    -0.09   0.05  -0.06    -0.26   0.46  -0.13     0.14  -0.27   0.08
    13   1     0.08   0.18   0.20    -0.17   0.04   0.32     0.02   0.14  -0.43
    14   8    -0.12  -0.02   0.02     0.07   0.01  -0.02    -0.03   0.01   0.01
    15   1    -0.18  -0.01   0.03     0.14  -0.02   0.01     0.06  -0.01  -0.03
                     13                     14                     15
                      A                      A                      A
 Frequencies --    619.5994               752.3858               767.3063
 Red. masses --      7.3545                 8.8870                 4.4513
 Frc consts  --      1.6635                 2.9641                 1.5441
 IR Inten    --      5.6212                16.4708                 2.3550
  Atom  AN      X      Y      Z        X      Y      Z        X      Y      Z
     1   6     0.10   0.14   0.01     0.07   0.02   0.14    -0.11  -0.18   0.01
     2   1     0.07   0.16   0.00    -0.03   0.18  -0.42    -0.24  -0.10  -0.16
     3   6     0.46  -0.22  -0.14    -0.07   0.16  -0.27     0.01  -0.19  -0.11
     4   6    -0.17   0.04   0.07     0.12  -0.23   0.65    -0.03   0.15   0.16
     5   8     0.04   0.22   0.04     0.01  -0.02  -0.21    -0.13   0.17   0.03
     6   8    -0.24  -0.21  -0.01    -0.05  -0.02  -0.15     0.12   0.14  -0.02
     7   6    -0.01  -0.03  -0.03    -0.06   0.05   0.04     0.16  -0.11  -0.10
     8   6     0.00   0.01  -0.01    -0.02   0.04  -0.02     0.06  -0.07   0.03
     9   1     0.35  -0.08  -0.26     0.03  -0.00   0.02    -0.13  -0.12   0.13
    10   1     0.00   0.30   0.25    -0.04   0.06   0.09     0.06  -0.22  -0.39
    11   1     0.03   0.09  -0.10     0.06  -0.06   0.01    -0.14  -0.02   0.13
    12   1     0.01   0.09   0.07     0.05  -0.09   0.02    -0.17   0.15  -0.22
    13   1    -0.02  -0.03   0.07    -0.03   0.09  -0.22    -0.00  -0.22   0.41
    14   8    -0.11   0.01   0.03     0.00   0.00  -0.02    -0.03   0.01   0.01
    15   1    -0.25   0.05   0.06    -0.04   0.01   0.04     0.16  -0.05  -0.05
                     16                     17                     18
                      A                      A                      A
 Frequencies --    786.3551               810.5274               866.0721
 Red. masses --      1.3916                 1.1823                 1.1129
 Frc consts  --      0.5070                 0.4576                 0.4918
 IR Inten    --     44.5604                 7.4762               141.9209
  Atom  AN      X      Y      Z        X      Y      Z        X      Y      Z
     1   6    -0.04   0.04  -0.15    -0.02  -0.03  -0.00    -0.02  -0.01   0.00
     2   1     0.22  -0.29   0.91    -0.02  -0.03  -0.01     0.79  -0.33  -0.29
     3   6     0.01  -0.01   0.02    -0.01  -0.02  -0.01     0.01   0.00  -0.00
     4   6     0.01  -0.02   0.08     0.02   0.02   0.01     0.00  -0.00  -0.00
     5   8    -0.01   0.01  -0.02    -0.01   0.01   0.00     0.00  -0.00  -0.00
     6   8     0.00   0.01  -0.02     0.04   0.04   0.00    -0.00  -0.00   0.00
     7   6     0.00  -0.00  -0.00    -0.05  -0.05  -0.02    -0.00   0.00   0.00
     8   6     0.00  -0.00   0.00    -0.03  -0.04   0.00    -0.00   0.00  -0.00
     9   1    -0.00  -0.01   0.01     0.17   0.22  -0.41    -0.00  -0.01   0.01
    10   1     0.00  -0.01  -0.01     0.17   0.02   0.44    -0.01  -0.00  -0.01
    11   1    -0.00  -0.01   0.01     0.08   0.30  -0.37     0.00  -0.01   0.01
    12   1    -0.00  -0.00  -0.00     0.22  -0.07   0.43    -0.00  -0.00  -0.01
    13   1    -0.00  -0.00   0.01     0.17   0.10   0.06    -0.01   0.00  -0.02
    14   8     0.00  -0.00   0.01    -0.00   0.00   0.00    -0.07   0.04   0.03
    15   1     0.01  -0.01   0.05     0.05  -0.02  -0.02     0.39  -0.11  -0.12
                     19                     20                     21
                      A                      A                      A
 Frequencies --    949.9111               993.8629              1107.5176
 Red. masses --      2.1686                 1.0997                 3.2463
 Frc consts  --      1.1529                 0.6400                 2.3461
 IR Inten    --     13.6198                68.5072                40.2519
  Atom  AN      X      Y      Z        X      Y      Z        X      Y      Z
     1   6     0.03   0.03   0.01     0.02   0.03   0.00    -0.03  -0.04  -0.00
     2   1     0.15  -0.01  -0.04    -0.37   0.19   0.15    -0.01  -0.06  -0.02
     3   6    -0.01   0.03   0.01     0.01   0.02   0.00    -0.00  -0.02  -0.01
     4   6    -0.04  -0.09  -0.01     0.02   0.00  -0.00     0.09   0.10   0.01
     5   8     0.07  -0.03  -0.02     0.01  -0.00  -0.00    -0.06   0.01   0.01
     6   8    -0.09   0.10   0.01    -0.03  -0.00  -0.00     0.09  -0.15  -0.02
     7   6    -0.03   0.06  -0.11    -0.01   0.01  -0.01    -0.12   0.17  -0.21
     8   6     0.09  -0.16   0.09     0.01  -0.02   0.01     0.00  -0.00   0.22
     9   1    -0.14   0.21  -0.15    -0.01   0.02  -0.02    -0.02   0.19  -0.31
    10   1    -0.13   0.18  -0.20    -0.04   0.07  -0.02    -0.13   0.27  -0.17
    11   1    -0.15   0.11   0.03    -0.02  -0.00   0.02     0.20  -0.37   0.42
    12   1    -0.05   0.16   0.09    -0.01   0.02  -0.00     0.13  -0.32   0.22
    13   1     0.11  -0.31   0.69     0.00  -0.04   0.08    -0.06   0.04  -0.17
    14   8     0.01   0.01  -0.00    -0.04  -0.03   0.00     0.00   0.01   0.00
    15   1    -0.19   0.07   0.06     0.79  -0.29  -0.27    -0.09   0.03   0.03
                     22                     23                     24
                      A                      A                      A
 Frequencies --   1132.8744              1180.4496              1273.4324
 Red. masses --      2.7241                 1.8284                 2.5721
 Frc consts  --      2.0599                 1.5011                 2.4575
 IR Inten    --     53.8151                45.6846               414.4526
  Atom  AN      X      Y      Z        X      Y      Z        X      Y      Z
     1   6    -0.03  -0.04  -0.00     0.02   0.02   0.00    -0.04  -0.05  -0.01
     2   1    -0.01  -0.05  -0.01    -0.00   0.03   0.01    -0.01  -0.07  -0.01
     3   6     0.00  -0.02  -0.00     0.01   0.01   0.00    -0.00  -0.01  -0.01
     4   6     0.09   0.09   0.00    -0.09  -0.05   0.00     0.24   0.14   0.00
     5   8    -0.05   0.00   0.01    -0.02   0.03   0.01     0.00  -0.04  -0.01
     6   8     0.08  -0.14  -0.08     0.04  -0.07  -0.02    -0.16   0.00   0.02
     7   6    -0.12   0.13   0.18     0.12   0.15   0.01     0.11  -0.03   0.01
     8   6     0.08  -0.06  -0.12    -0.10  -0.08  -0.01    -0.09  -0.06   0.00
     9   1    -0.09   0.22   0.08    -0.30   0.18   0.30    -0.03  -0.22   0.29
    10   1    -0.18   0.21   0.16     0.14  -0.37  -0.37    -0.31   0.54  -0.30
    11   1    -0.29   0.27  -0.15     0.05   0.17  -0.33     0.09   0.15  -0.32
    12   1    -0.17   0.41  -0.20     0.14  -0.08   0.43     0.05  -0.06   0.24
    13   1     0.05  -0.22   0.47     0.21   0.15   0.03     0.15   0.14  -0.04
    14   8     0.00   0.00   0.00    -0.00  -0.00   0.00     0.00   0.00   0.00
    15   1    -0.05   0.02   0.02     0.05  -0.02  -0.02    -0.08   0.03   0.03
                     25                     26                     27
                      A                      A                      A
 Frequencies --   1350.5294              1406.8212              1432.6771
 Red. masses --      1.3275                 1.2903                 1.3846
 Frc consts  --      1.4265                 1.5045                 1.6744
 IR Inten    --    173.0820                39.4946                21.1925
  Atom  AN      X      Y      Z        X      Y      Z        X      Y      Z
     1   6    -0.01  -0.01  -0.00    -0.01  -0.01  -0.00     0.01   0.01   0.00
     2   1    -0.00  -0.02  -0.00    -0.01  -0.01  -0.00     0.01   0.01   0.00
     3   6     0.00  -0.00  -0.00     0.00  -0.00  -0.00    -0.00   0.00   0.00
     4   6     0.08   0.04   0.00     0.05   0.04   0.00    -0.04  -0.03  -0.01
     5   8     0.00  -0.01  -0.00     0.00  -0.01  -0.00    -0.00   0.01   0.00
     6   8    -0.10  -0.03  -0.00    -0.05  -0.00   0.02     0.04  -0.00  -0.02
     7   6     0.05  -0.04   0.01    -0.02   0.04  -0.03     0.04  -0.09   0.08
     8   6     0.04   0.03   0.02    -0.01   0.05  -0.11    -0.05   0.08  -0.06
     9   1    -0.46   0.66  -0.19     0.04  -0.24   0.17    -0.15   0.42  -0.21
    10   1     0.24  -0.40   0.08     0.27  -0.32   0.23    -0.34   0.40  -0.25
    11   1     0.03  -0.02   0.07     0.01  -0.38   0.28     0.18  -0.31   0.12
    12   1    -0.07   0.03  -0.20     0.26  -0.12   0.29     0.20  -0.26   0.13
    13   1    -0.05  -0.00  -0.09     0.04  -0.10   0.51    -0.01  -0.02   0.35
    14   8     0.00   0.00  -0.00     0.00   0.00   0.00    -0.00  -0.00  -0.00
    15   1    -0.02   0.01   0.01    -0.01   0.00   0.00     0.01  -0.00  -0.00
                     28                     29                     30
                      A                      A                      A
 Frequencies --   1492.3662              1500.9000              1524.2338
 Red. masses --      1.0399                 1.0489                 1.1038
 Frc consts  --      1.3646                 1.3922                 1.5109
 IR Inten    --      4.0597                 2.7096                25.3379
  Atom  AN      X      Y      Z        X      Y      Z        X      Y      Z
     1   6     0.00   0.00   0.00    -0.00  -0.00  -0.00    -0.01  -0.01  -0.00
     2   1     0.00   0.00   0.00    -0.00  -0.00  -0.00    -0.01  -0.01  -0.00
     3   6    -0.00  -0.00   0.00    -0.00   0.00   0.00     0.00   0.00   0.00
     4   6    -0.01  -0.00   0.00     0.01   0.00   0.00     0.02   0.02   0.00
     5   8     0.00  -0.00  -0.00     0.00  -0.00  -0.00     0.00  -0.01  -0.00
     6   8     0.01   0.00   0.00    -0.01   0.00   0.00    -0.03   0.00   0.01
     7   6    -0.02  -0.01  -0.00     0.01  -0.02   0.02    -0.03   0.03   0.06
     8   6    -0.04  -0.03   0.00     0.02  -0.02  -0.04    -0.01   0.01   0.01
     9   1     0.02  -0.00  -0.05     0.15   0.09  -0.19     0.56  -0.01  -0.36
    10   1     0.00  -0.02   0.04    -0.09  -0.07  -0.23    -0.10  -0.44  -0.48
    11   1     0.36  -0.34   0.02    -0.46  -0.08   0.38     0.15   0.04  -0.14
    12   1    -0.28   0.41  -0.14     0.08   0.42   0.46    -0.02  -0.15  -0.16
    13   1     0.56   0.40   0.10     0.06   0.10  -0.30    -0.03  -0.05   0.13
    14   8    -0.00  -0.00  -0.00     0.00   0.00   0.00     0.00   0.00   0.00
    15   1     0.00  -0.00  -0.00    -0.00   0.00   0.00    -0.00   0.00   0.00
                     31                     32                     33
                      A                      A                      A
 Frequencies --   1836.0139              1979.1973              3071.5764
 Red. masses --     12.7179                 6.6488                 1.0356
 Frc consts  --     25.2592                15.3452                 5.7567
 IR Inten    --    352.1182                96.1413                 5.2197
  Atom  AN      X      Y      Z        X      Y      Z        X      Y      Z
     1   6    -0.05  -0.06  -0.01    -0.25  -0.32  -0.04    -0.00   0.00  -0.00
     2   1    -0.10  -0.08  -0.01    -0.46  -0.52  -0.05     0.00   0.00   0.00
     3   6     0.07   0.06   0.00     0.38   0.43   0.04    -0.00   0.00  -0.00
     4   6    -0.47   0.61   0.22    -0.02  -0.13  -0.03    -0.00  -0.00   0.00
     5   8     0.29  -0.43  -0.15    -0.01   0.02   0.01     0.00  -0.00  -0.00
     6   8     0.04  -0.03  -0.01    -0.00   0.00   0.00     0.00   0.00  -0.00
     7   6     0.04  -0.01  -0.01    -0.00  -0.00   0.00    -0.00  -0.00  -0.00
     8   6    -0.01   0.01   0.00    -0.00   0.00   0.00     0.01  -0.03   0.04
     9   1    -0.10   0.07   0.01    -0.03   0.01   0.01     0.02   0.02   0.03
    10   1     0.03   0.06   0.01    -0.01   0.01   0.01    -0.02  -0.01   0.01
    11   1    -0.00  -0.00   0.01     0.00  -0.00   0.00    -0.26  -0.32  -0.34
    12   1     0.01  -0.00   0.02    -0.00   0.00  -0.01     0.51   0.21  -0.26
    13   1    -0.01   0.01  -0.04     0.00   0.00  -0.00    -0.35   0.45   0.13
    14   8    -0.01   0.01   0.00    -0.03   0.02   0.01     0.00  -0.00   0.00
    15   1     0.03  -0.03  -0.01    -0.06   0.03   0.02    -0.00   0.00   0.00
                     34                     35                     36
                      A                      A                      A
 Frequencies --   3081.9145              3141.9451              3153.5727
 Red. masses --      1.0667                 1.1020                 1.1006
 Frc consts  --      5.9696                 6.4096                 6.4490
 IR Inten    --     14.4727                 1.0592                14.0443
  Atom  AN      X      Y      Z        X      Y      Z        X      Y      Z
     1   6    -0.00   0.00   0.00     0.00   0.00  -0.00    -0.00  -0.00   0.00
     2   1     0.00   0.00  -0.00    -0.00  -0.00   0.00     0.00   0.00   0.00
     3   6     0.00   0.00  -0.00    -0.00  -0.00  -0.00     0.00   0.00   0.00
     4   6    -0.00  -0.00   0.00    -0.00   0.00   0.00    -0.00   0.00   0.00
     5   8     0.00  -0.00  -0.00     0.00  -0.00  -0.00     0.00  -0.00  -0.00
     6   8     0.00  -0.00  -0.00     0.00  -0.00   0.00     0.00   0.00   0.00
     7   6    -0.01  -0.03  -0.06     0.04   0.03  -0.01     0.03   0.01  -0.01
     8   6    -0.00   0.01   0.00    -0.08  -0.00   0.02     0.02  -0.07  -0.05
     9   1     0.47   0.52   0.60    -0.09  -0.11  -0.13    -0.03  -0.03  -0.04
    10   1    -0.29  -0.13   0.14    -0.43  -0.19   0.23    -0.35  -0.15   0.19
    11   1    -0.02  -0.03  -0.02     0.11   0.16   0.17     0.29   0.35   0.38
    12   1    -0.03  -0.01   0.02     0.53   0.23  -0.28    -0.11  -0.06   0.05
    13   1     0.06  -0.07  -0.03     0.26  -0.35  -0.10    -0.40   0.51   0.14
    14   8    -0.00  -0.00   0.00     0.00   0.00  -0.00     0.00   0.00   0.00
    15   1     0.00   0.00   0.00    -0.00  -0.00  -0.00    -0.00  -0.00  -0.00
                     37                     38                     39
                      A                      A                      A
 Frequencies --   3164.9981              3395.3784              3778.4000
 Red. masses --      1.1040                 1.1335                 1.0681
 Frc consts  --      6.5160                 7.6995                 8.9844
 IR Inten    --     25.3922                47.6891                48.3459
  Atom  AN      X      Y      Z        X      Y      Z        X      Y      Z
     1   6    -0.00   0.00   0.00    -0.05  -0.09  -0.02    -0.00  -0.00   0.00
     2   1    -0.00  -0.00  -0.00     0.41   0.89   0.17     0.00   0.00   0.00
     3   6     0.00   0.00  -0.00     0.02   0.02   0.00     0.00   0.00   0.00
     4   6     0.00  -0.00  -0.00    -0.00  -0.00  -0.00    -0.00   0.00   0.00
     5   8     0.00   0.00   0.00     0.00  -0.00  -0.00     0.00  -0.00  -0.00
     6   8     0.00   0.00  -0.00     0.00   0.00   0.00     0.00  -0.00  -0.00
     7   6    -0.06  -0.03   0.01    -0.00   0.00   0.00     0.00   0.00   0.00
     8   6    -0.05  -0.04  -0.01    -0.00   0.00   0.00     0.00  -0.00  -0.00
     9   1     0.14   0.15   0.19    -0.00  -0.00   0.00    -0.00  -0.00  -0.00
    10   1     0.54   0.24  -0.29     0.00   0.00  -0.00    -0.00  -0.00  -0.00
    11   1     0.25   0.32   0.35     0.00   0.00   0.00    -0.00  -0.00  -0.00
    12   1     0.36   0.15  -0.19     0.00   0.00  -0.00    -0.00  -0.00   0.00
    13   1    -0.04   0.03   0.01     0.00  -0.00  -0.00    -0.00  -0.00   0.00
    14   8    -0.00  -0.00  -0.00    -0.00   0.00   0.00    -0.02  -0.06  -0.01
    15   1     0.00   0.00   0.00    -0.00  -0.00   0.00     0.34   0.93   0.14

 -------------------
 - Thermochemistry -
 -------------------
 Temperature   298.150 Kelvin.  Pressure   1.00000 Atm.
 Atom     1 has atomic number  6 and mass  12.00000
 Atom     2 has atomic number  1 and mass   1.00783
 Atom     3 has atomic number  6 and mass  12.00000
 Atom     4 has atomic number  6 and mass  12.00000
 Atom     5 has atomic number  8 and mass  15.99491
 Atom     6 has atomic number  8 and mass  15.99491
 Atom     7 has atomic number  6 and mass  12.00000
 Atom     8 has atomic number  6 and mass  12.00000
 Atom     9 has atomic number  1 and mass   1.00783
 Atom    10 has atomic number  1 and mass   1.00783
 Atom    11 has atomic number  1 and mass   1.00783
 Atom    12 has atomic number  1 and mass   1.00783
 Atom    13 has atomic number  1 and mass   1.00783
 Atom    14 has atomic number  8 and mass  15.99491
 Atom    15 has atomic number  1 and mass   1.00783
 Molecular mass:   115.03952 amu.
 Principal axes and moments of inertia in atomic units:
                           1         2         3
     Eigenvalues --   515.787421483.179251837.99735
           X            0.99966  -0.02509   0.00683
           Y            0.02514   0.99965  -0.00846
           Z           -0.00662   0.00863   0.99994
 This molecule is an asymmetric top.
 Rotational symmetry number  1.
 Warning -- assumption of classical behavior for rotation
           may cause significant error
 Rotational temperatures (Kelvin)      0.16793     0.05840     0.04712
 Rotational constants (GHZ):           3.49900     1.21681     0.98191
    1 imaginary frequencies ignored.
 Zero-point vibrational energy     295406.9 (Joules/Mol)
                                   70.60393 (Kcal/Mol)
 Warning -- explicit consideration of  12 degrees of freedom as
           vibrations may cause significant error
 Vibrational temperatures:    101.25   143.37   161.61   185.35   293.43
          (Kelvin)            364.68   390.84   471.15   552.32   599.94
                              818.37   891.47  1082.52  1103.98  1131.39
                             1166.17  1246.08  1366.71  1429.95  1593.47
                             1629.95  1698.40  1832.19  1943.11  2024.10
                             2061.30  2147.18  2159.46  2193.03  2641.61
                             2847.62  4419.31  4434.19  4520.56  4537.29
                             4553.73  4885.19  5436.27
 
 Zero-point correction=                           0.112515 (Hartree/Particle)
 Thermal correction to Energy=                    0.121693
 Thermal correction to Enthalpy=                  0.122637
 Thermal correction to Gibbs Free Energy=         0.077447
 Sum of electronic and zero-point Energies=           -420.088033
 Sum of electronic and thermal Energies=              -420.078855
 Sum of electronic and thermal Enthalpies=            -420.077911
 Sum of electronic and thermal Free Energies=         -420.123100
 
                     E (Thermal)             CV                S
                      KCal/Mol        Cal/Mol-Kelvin    Cal/Mol-Kelvin
 Total                   76.363             31.306             95.110
 Electronic               0.000              0.000              1.377
 Translational            0.889              2.981             40.136
 Rotational               0.889              2.981             28.732
 Vibrational             74.586             25.344             24.865
 Vibration     1          0.598              1.968              4.143
 Vibration     2          0.604              1.949              3.461
 Vibration     3          0.607              1.939              3.228
 Vibration     4          0.611              1.924              2.964
 Vibration     5          0.640              1.834              2.097
 Vibration     6          0.665              1.757              1.706
 Vibration     7          0.675              1.726              1.586
 Vibration     8          0.711              1.621              1.273
 Vibration     9          0.753              1.505              1.024
 Vibration    10          0.780              1.433              0.902
 Vibration    11          0.925              1.099              0.507
 Vibration    12          0.980              0.991              0.417
                       Q            Log10(Q)             Ln(Q)
 Total Bot       0.238222D-35        -35.623018        -82.025029
 Total V=0       0.134905D+17         16.130028         37.140761
 Vib (Bot)       0.578599D-49        -49.237622       -113.373815
 Vib (Bot)    1  0.293063D+01          0.466961          1.075217
 Vib (Bot)    2  0.205968D+01          0.313800          0.722551
 Vib (Bot)    3  0.182245D+01          0.260656          0.600182
 Vib (Bot)    4  0.158296D+01          0.199470          0.459298
 Vib (Bot)    5  0.976216D+00         -0.010454         -0.024071
 Vib (Bot)    6  0.768741D+00         -0.114220         -0.263001
 Vib (Bot)    7  0.710849D+00         -0.148223         -0.341295
 Vib (Bot)    8  0.571462D+00         -0.243013         -0.559558
 Vib (Bot)    9  0.469707D+00         -0.328173         -0.755646
 Vib (Bot)   10  0.422065D+00         -0.374621         -0.862597
 Vib (Bot)   11  0.270904D+00         -0.567185         -1.305992
 Vib (Bot)   12  0.236124D+00         -0.626860         -1.443398
 Vib (V=0)       0.327660D+03          2.515423          5.791975
 Vib (V=0)    1  0.347298D+01          0.540702          1.245012
 Vib (V=0)    2  0.261950D+01          0.418219          0.962984
 Vib (V=0)    3  0.238979D+01          0.378361          0.871207
 Vib (V=0)    4  0.216005D+01          0.334464          0.770132
 Vib (V=0)    5  0.159681D+01          0.203254          0.468010
 Vib (V=0)    6  0.141704D+01          0.151382          0.348571
 Vib (V=0)    7  0.136908D+01          0.136430          0.314142
 Vib (V=0)    8  0.125932D+01          0.100137          0.230573
 Vib (V=0)    9  0.118602D+01          0.074092          0.170604
 Vib (V=0)   10  0.115432D+01          0.062327          0.143514
 Vib (V=0)   11  0.106867D+01          0.028845          0.066418
 Vib (V=0)   12  0.105295D+01          0.022408          0.051596
 Electronic      0.200000D+01          0.301030          0.693147
 Translational   0.484981D+08          7.685724         17.697035
 Rotational      0.424473D+06          5.627850         12.958604
 ***** Axes restored to original set *****
 -------------------------------------------------------------------
 Center     Atomic                   Forces (Hartrees/Bohr)
 Number     Number              X              Y              Z
 -------------------------------------------------------------------
      1        6          -0.025725572    0.014652932    0.010084410
      2        1           0.001463820    0.000438135   -0.000228540
      3        6           0.004151949   -0.001699177   -0.001570852
      4        6          -0.000334624   -0.000269345    0.000015791
      5        8          -0.000388297   -0.000276129   -0.000031120
      6        8           0.000169621    0.000105979    0.000154102
      7        6           0.000064950    0.000128311   -0.000175061
      8        6          -0.000005134   -0.000085723   -0.000015002
      9        1           0.000144543    0.000065754    0.000057308
     10        1          -0.000117370   -0.000055039    0.000023162
     11        1          -0.000031385   -0.000022198   -0.000038939
     12        1           0.000068464    0.000012839    0.000058584
     13        1          -0.000011088    0.000057932    0.000047750
     14        8           0.019859153   -0.012424768   -0.008044829
     15        1           0.000690970   -0.000629501   -0.000336764
 -------------------------------------------------------------------
 Cartesian Forces:  Max     0.025725572 RMS     0.005996767

 GradGradGradGradGradGradGradGradGradGradGradGradGradGradGradGradGradGrad
 Berny optimization.
 Search for a local minimum.
 Step number   1 out of a maximum of    2
 All quantities printed in internal units (Hartrees-Bohrs-Radians)
 Second derivative matrix not updated -- analytic derivatives used.
 ITU=  0
     Eigenvalues ---   -0.32633   0.00071   0.00184   0.00215   0.00359
     Eigenvalues ---    0.00392   0.00849   0.00874   0.01513   0.02649
     Eigenvalues ---    0.02917   0.03628   0.04357   0.06138   0.06445
     Eigenvalues ---    0.07999   0.08565   0.08905   0.09971   0.10611
     Eigenvalues ---    0.11629   0.13848   0.16908   0.18728   0.22518
     Eigenvalues ---    0.24522   0.26991   0.35173   0.51514   0.61901
     Eigenvalues ---    0.71423   0.77095   0.78914   0.86034   0.88217
     Eigenvalues ---    0.94380   0.96551   1.72407   2.09222
 Eigenvalue     1 is  -3.26D-01 should be greater than     0.000000 Eigenvector:
                          X1        X14       Y1        Z1        Y14
   1                    0.66076  -0.46927  -0.38538  -0.25862   0.24560
                          Z14       X3        Y15       Y3        X2
   1                    0.17819  -0.11493   0.08508   0.07399  -0.07197
 Angle between quadratic step and forces=  38.21 degrees.
 Linear search not attempted -- first point.
 B after Tr=     0.003474    0.001335    0.000785
         Rot=    1.000000   -0.000671    0.000233   -0.000062 Ang=  -0.08 deg.
 Variable       Old X    -DE/DX   Delta X   Delta X   Delta X     New X
                                 (Linear)    (Quad)   (Total)
    X1       -2.85466  -0.02573   0.00000  -0.06906  -0.06500  -2.91966
    Y1       -2.50349   0.01465   0.00000   0.04620   0.04800  -2.45550
    Z1       -0.63506   0.01008   0.00000   0.02574   0.02186  -0.61319
    X2       -3.67560   0.00146   0.00000   0.00628   0.01076  -3.66485
    Y2       -4.32087   0.00044   0.00000   0.00564   0.00785  -4.31302
    Z2       -0.98303  -0.00023   0.00000  -0.00600  -0.01272  -0.99575
    X3       -1.11213   0.00415   0.00000   0.00292   0.00678  -1.10536
    Y3       -0.95224  -0.00170   0.00000   0.01451   0.01647  -0.93577
    Z3       -0.56762  -0.00157   0.00000   0.00101   0.00002  -0.56760
    X4        0.07455  -0.00033   0.00000   0.00229   0.00562   0.08017
    Y4        1.50744  -0.00027   0.00000   0.01499   0.01647   1.52391
    Z4       -0.11245   0.00002   0.00000   0.00636   0.00922  -0.10322
    X5       -1.19361  -0.00039   0.00000   0.01673   0.01955  -1.17405
    Y5        3.27671  -0.00028   0.00000   0.02384   0.02432   3.30103
    Z5        0.51387  -0.00003   0.00000   0.00976   0.01443   0.52829
    X6        2.55736   0.00017   0.00000   0.00516   0.00863   2.56599
    Y6        1.69124   0.00011   0.00000  -0.00078   0.00146   1.69270
    Z6       -0.44291   0.00015   0.00000   0.00063   0.00487  -0.43804
    X7        4.02591   0.00006   0.00000  -0.01093  -0.00693   4.01899
    Y7       -0.53109   0.00013   0.00000  -0.01074  -0.00757  -0.53867
    Z7       -0.99377  -0.00018   0.00000  -0.00158   0.00035  -0.99342
    X8        4.65449  -0.00001   0.00000   0.00230   0.00537   4.65986
    Y8       -1.96564  -0.00009   0.00000   0.00033   0.00035  -1.96528
    Z8        1.40355  -0.00002   0.00000   0.00168   0.00200   1.40554
    X9        3.00985   0.00014   0.00000  -0.02895  -0.02417   2.98568
    Y9       -1.70920   0.00007   0.00000  -0.01430  -0.00946  -1.71866
    Z9       -2.35314   0.00006   0.00000   0.01506   0.01492  -2.33822
   X10        5.71917  -0.00012   0.00000  -0.01551  -0.01116   5.70801
   Y10        0.20020  -0.00006   0.00000  -0.02626  -0.02163   0.17857
   Z10       -1.90490   0.00002   0.00000  -0.02155  -0.01788  -1.92278
   X11        5.62830  -0.00003   0.00000   0.01793   0.02022   5.64852
   Y11       -0.73327  -0.00002   0.00000   0.00489   0.00327  -0.73000
   Z11        2.73800  -0.00004   0.00000  -0.01414  -0.01171   2.72629
   X12        2.94576   0.00007   0.00000   0.00631   0.00904   2.95480
   Y12       -2.69660   0.00001   0.00000   0.01382   0.01241  -2.68419
   Z12        2.29927   0.00006   0.00000   0.02037   0.01893   2.31820
   X13        5.88430  -0.00001   0.00000  -0.00783  -0.00436   5.87994
   Y13       -3.56153   0.00006   0.00000  -0.00764  -0.00687  -3.56839
   Z13        0.96000   0.00005   0.00000   0.00303   0.00176   0.96176
   X14       -5.85500   0.01986   0.00000   0.06460   0.06797  -5.78704
   Y14       -0.87786  -0.01242   0.00000  -0.06375  -0.06378  -0.94164
   Z14        0.51204  -0.00804   0.00000  -0.03565  -0.03883   0.47321
   X15       -5.24424   0.00069   0.00000  -0.04533  -0.04232  -5.28656
   Y15        0.83495  -0.00063   0.00000  -0.02096  -0.02131   0.81364
   Z15        0.77115  -0.00034   0.00000  -0.00665  -0.00724   0.76392
         Item               Value     Threshold  Converged?
 Maximum Force            0.025726     0.000450     NO 
 RMS     Force            0.005997     0.000300     NO 
 Maximum Displacement     0.067969     0.001800     NO 
 RMS     Displacement     0.023566     0.001200     NO 
 Predicted change in Energy=-7.409777D-03
 GradGradGradGradGradGradGradGradGradGradGradGradGradGradGradGradGradGrad


 ----------------------------------------------------------------------

 Electric dipole moment (input orientation):
 (Debye = 10**-18 statcoulomb cm , SI units = C m)
                  (au)            (Debye)         (10**-30 SI)
   Tot        0.205394D+01      0.522060D+01      0.174141D+02
   x          0.149334D+01      0.379569D+01      0.126611D+02
   y         -0.133940D+01     -0.340442D+01     -0.113559D+02
   z         -0.441165D+00     -0.112133D+01     -0.374035D+01

 Dipole polarizability, Alpha (input orientation).
 (esu units = cm**3 , SI units = C**2 m**2 J**-1)
 Alpha(0;0):
               (au)            (10**-24 esu)      (10**-40 SI)
   iso        0.766055D+02      0.113518D+02      0.126305D+02
   aniso      0.497627D+02      0.737408D+01      0.820477D+01
   xx         0.106447D+03      0.157738D+02      0.175507D+02
   yx         0.343919D+00      0.509635D-01      0.567045D-01
   yy         0.716466D+02      0.106169D+02      0.118129D+02
   zx        -0.648180D+01     -0.960504D+00     -0.106870D+01
   zy         0.402501D+01      0.596446D+00      0.663635D+00
   zz         0.517232D+02      0.766458D+01      0.852800D+01

 ----------------------------------------------------------------------

 Dipole orientation:
     6         -3.05127542          2.32714652         -0.30654772
     1         -4.47729467          3.60182121          0.35645013
     6         -1.41253908          0.68280459         -0.06569747
     6          0.54869768         -1.08216723         -0.90466104
     8          0.97827985         -1.32870688         -3.11497348
     8          1.78257969         -2.38615217          0.85161074
     6          1.34421837         -1.87415962          3.48686413
     6          2.88237544          0.37619702          4.36444178
     1         -0.67784932         -1.59835939          3.80835730
     1          1.92363418         -3.60448055          4.43677932
     1          4.88364116          0.06537233          3.98219144
     1          2.28315366          2.10229403          3.40637240
     1          2.63168119          0.64419723          6.39455822
     8         -3.27753631          3.18963706         -3.79445430
     1         -2.07565995          2.00700754         -4.52299184

 Electric dipole moment (dipole orientation):
 (Debye = 10**-18 statcoulomb cm , SI units = C m)
                  (au)            (Debye)         (10**-30 SI)
   Tot        0.205394D+01      0.522060D+01      0.174141D+02
   x          0.000000D+00      0.000000D+00      0.000000D+00
   y          0.000000D+00      0.000000D+00      0.000000D+00
   z          0.205394D+01      0.522060D+01      0.174141D+02

 Dipole polarizability, Alpha (dipole orientation).
 (esu units = cm**3 , SI units = C**2 m**2 J**-1)
 Alpha(0;0):
               (au)            (10**-24 esu)      (10**-40 SI)
   iso        0.766055D+02      0.113518D+02      0.126305D+02
   aniso      0.497627D+02      0.737408D+01      0.820477D+01
   xx         0.693300D+02      0.102736D+02      0.114310D+02
   yx        -0.187225D+02     -0.277440D+01     -0.308693D+01
   yy         0.685373D+02      0.101562D+02      0.113003D+02
   zx         0.124882D+02      0.185056D+01      0.205903D+01
   zy        -0.119258D+02     -0.176722D+01     -0.196630D+01
   zz         0.919492D+02      0.136255D+02      0.151604D+02

 ----------------------------------------------------------------------
 1\1\GINC-BOSON\Freq\UM062X\6-311++G(d,p)\C5H7O3(2)\LOKI\28-Mar-2025\0\
 \# freq 6-311++g(d,p) m062x\\Title Card Required\\0,2\C,-1.510621,-1.3
 24792,-0.336058\H,-1.945046,-2.286506,-0.520199\C,-0.588515,-0.503906,
 -0.300374\C,0.039451,0.797701,-0.059504\O,-0.631629,1.733958,0.271926\
 O,1.353297,0.894965,-0.234379\C,2.130421,-0.281043,-0.525883\C,2.46305
 1,-1.04017,0.742725\H,1.592744,-0.904468,-1.245228\H,3.026456,0.105942
 ,-1.008029\H,2.978368,-0.388029,1.448886\H,1.558831,-1.426979,1.21672\
 H,3.11384,-1.884679,0.508008\O,-3.098335,-0.464546,0.270961\H,-2.77513
 4,0.441834,0.408077\\Version=ES64L-G16RevA.03\State=2-A\HF=-420.200547
 2\S2=0.788242\S2-1=0.\S2A=0.750577\RMSD=4.205e-09\RMSF=5.997e-03\ZeroP
 oint=0.1125145\Thermal=0.1216925\Dipole=1.4933398,-1.3394003,-0.441164
 9\DipoleDeriv=-0.8219476,0.212349,0.2245354,-0.0122733,0.0785567,0.029
 6378,0.1712187,-0.0156399,-0.0513935,0.2732928,0.0371037,-0.0015475,0.
 0138678,0.2150634,0.0048408,-0.0077787,-0.0013364,0.1948382,-0.0324833
 ,-0.3274658,-0.1221021,0.0292444,-0.5366455,-0.1385407,-0.0368826,-0.0
 696353,-0.1261899,2.6003412,-0.2192984,-0.2056076,0.4506457,1.497432,0
 .1800127,-0.1745499,0.3026519,0.515399,-0.9336198,0.2905878,0.0892248,
 0.048045,-1.1398641,-0.1426391,0.0884299,-0.2313706,-0.4160838,-1.8442
 32,0.4575137,0.1460176,0.0946655,-0.6167663,0.0067415,0.2013613,-0.083
 0661,-0.3830842,0.6429793,-0.2571699,0.0171896,-0.4379194,0.5767461,-0
 .0114496,-0.0060215,-0.0020657,0.3444477,-0.0068603,0.0180779,-0.00633
 91,0.0864631,-0.0139775,0.0392385,-0.0267903,0.0865999,-0.0747471,-0.0
 224897,-0.0235275,-0.0961835,0.0246898,-0.0232315,-0.0340938,-0.094704
 3,-0.0361863,-0.0168967,-0.0771771,-0.0036713,0.0632656,-0.0454144,0.0
 211322,0.0625819,0.0236476,0.0245929,0.0349401,0.0439042,-0.0334508,-0
 .0510784,-0.0653139,0.0091102,-0.0642684,-0.0528872,-0.019672,-0.00241
 71,-0.0463144,-0.0514806,0.0604189,-0.0449924,0.0548967,0.0249245,0.04
 99172,0.028031,0.0246164,0.0065761,0.0851339,0.0130173,0.1046682,-0.02
 17933,-0.0165644,0.0185351,-0.0348061,0.0534801,-0.0638998,-0.1316799,
 -0.134942,-0.0222737,-0.2971803,0.0413141,-0.1107351,0.0704427,-0.4152
 243,0.2819302,-0.0530219,0.004131,-0.2241023,0.1965212,0.0182643,-0.04
 27604,-0.01854,0.3183151\Polar=106.4467375,0.3439186,71.6465533,-6.481
 7989,4.0250138,51.7231668\Quadrupole=-1.4307928,0.139394,1.2913988,-1.
 1724166,0.5199568,0.7398243\PG=C01 [X(C5H7O3)]\NImag=1\\0.23833832,0.6
 3239852,0.82266665,0.14908501,0.07549928,0.06895134,-0.06096228,-0.134
 66882,-0.03231971,0.09091312,-0.16037927,-0.32454455,-0.04991998,0.136
 58082,0.32337196,-0.04020023,-0.05543361,-0.03901772,0.02346290,0.0588
 1045,0.02962514,-0.30509626,-0.46029080,-0.07418195,-0.01737270,0.0158
 0000,0.00947481,0.54587309,-0.36685992,-0.48149264,-0.04903672,-0.0208
 9583,0.01134078,0.00624553,0.50426277,0.69942936,-0.04642807,-0.028236
 64,-0.03123517,-0.00119766,-0.00184114,0.00599103,0.04292341,0.0753299
 1,0.06262899,-0.01888997,-0.01475501,0.00027445,0.00259094,-0.00249541
 ,0.00034548,-0.09124302,-0.07516710,-0.01828702,0.71199705,0.00145021,
 0.00365416,0.00042883,-0.00080179,0.00004144,-0.00170335,-0.07610690,-
 0.17271045,-0.01443129,-0.18627601,0.80975923,0.00586252,0.00423418,0.
 00080452,0.00053761,-0.00131653,0.00563510,-0.01873657,-0.01652191,-0.
 07001260,-0.11862804,0.17767017,0.25948842,-0.00338550,-0.00018627,0.0
 0076450,0.00013678,0.00023140,-0.00023685,0.01967772,0.01218176,0.0037
 3942,-0.28196661,0.27434456,0.09799408,0.34979162,0.00735230,0.0038433
 7,-0.00075943,-0.00071299,0.00071716,0.00061993,0.00339223,-0.07669998
 ,-0.02518940,0.29682512,-0.52427848,-0.15519930,-0.34515497,0.58424808
 ,0.00152099,0.00061450,0.00007776,-0.00035218,0.00043885,-0.00083827,0
 .00188242,-0.02626145,0.01529750,0.10333874,-0.15163845,-0.12831968,-0
 .13215241,0.18838628,0.09864799,-0.00197697,-0.00306962,-0.00009121,0.
 00012006,0.00054551,-0.00012836,-0.03672970,-0.02316092,0.00351713,-0.
 29779122,-0.05704364,0.02021262,-0.08415229,0.04635971,0.02695102,0.55
 297745,-0.00415125,-0.00414219,-0.00051094,0.00036496,-0.00028688,0.00
 030703,-0.03289423,-0.00920743,-0.00339449,-0.02649466,-0.11768317,-0.
 00924907,0.06509129,0.01008424,-0.01188134,-0.07545728,0.35116167,-0.0
 0074868,-0.00124228,0.00080318,-0.00011615,0.00013498,-0.00088797,-0.0
 0048211,-0.00356490,0.01592504,0.02929246,-0.00504147,-0.05537920,0.03
 001458,-0.00892995,0.00929972,-0.07736047,0.06290446,0.08984407,0.0013
 9230,0.00195401,0.00033051,-0.00012013,-0.00016138,0.00004914,-0.00293
 348,0.00182510,0.00085955,-0.04260883,0.02995068,0.01344814,0.00262237
 ,-0.00394047,-0.00149992,-0.10440327,0.03187191,0.01135021,0.59164077,
 0.00016898,-0.00199729,-0.00059654,-0.00008500,0.00016622,0.00002800,-
 0.00773055,-0.00190790,0.00209024,0.02942683,0.00939337,-0.00150014,-0
 .01339583,0.00593437,0.00243594,0.04991930,-0.17583596,-0.03146413,0.0
 9928938,0.49128533,0.00047358,-0.00098778,-0.00079968,-0.00002949,-0.0
 0003240,0.00022937,-0.00202359,0.00015761,0.00160349,0.01391997,-0.002
 20300,-0.01297639,-0.00141903,0.00098658,0.00687910,0.01285597,-0.0289
 9927,-0.06658297,-0.00726501,0.01300877,0.55302113,0.00008171,-0.00006
 909,-0.00012201,-0.00003356,0.00000791,-0.00009355,-0.00091869,-0.0002
 3383,0.00032192,0.00508526,0.00279834,-0.00429212,-0.00182882,0.000413
 65,0.00160360,-0.01367753,0.02257750,-0.01664484,-0.08604641,0.0019992
 1,-0.01733476,0.57967390,-0.00021530,0.00018945,0.00024684,0.00003258,
 -0.00005126,-0.00006998,0.00119497,0.00057094,0.00023956,-0.00639814,-
 0.00167322,0.00248757,0.00219723,-0.00059596,-0.00152762,0.02242316,-0
 .02847568,0.02281108,0.00419001,-0.10243091,0.04839662,0.01117575,0.56
 349412,-0.00041732,0.00032421,-0.00005836,0.00012167,0.00000584,0.0000
 3378,-0.00027584,0.00038804,-0.00052428,-0.00448381,-0.00221519,0.0020
 3736,0.00175852,-0.00062806,-0.00116218,0.00592307,-0.00374763,0.01174
 558,-0.02433907,0.05823166,-0.19000473,-0.01965790,0.04173472,0.525174
 68,0.00039691,0.00020908,0.00002809,-0.00014589,-0.00000118,0.00001551
 ,-0.00321054,-0.00025016,0.00022997,0.00499383,0.00262328,0.00117304,-
 0.00158558,0.00008861,-0.00001156,0.00594315,0.01827379,0.01678574,-0.
 12337037,-0.08010889,-0.08958112,-0.00234470,-0.00405751,-0.00389248,0
 .12967892,-0.00017584,0.00053033,0.00028319,0.00000388,0.00000161,-0.0
 0006279,0.00090958,0.00080667,-0.00003976,-0.00875758,-0.00066029,0.00
 006918,0.00227514,-0.00052323,0.00008293,-0.00027410,-0.02885131,-0.02
 128183,-0.07166105,-0.12939507,-0.09301956,0.00908388,0.01276420,0.012
 61998,0.07515046,0.15103147,-0.00073229,0.00048922,0.00032207,0.000160
 80,-0.00000477,-0.00002491,0.00172451,0.00025922,-0.00048702,-0.004254
 23,-0.00154347,0.00054827,0.00114583,0.00009687,-0.00005258,0.00337586
 ,-0.00711470,-0.00313970,-0.08573618,-0.09470791,-0.16278702,-0.015307
 42,-0.01488738,-0.01727109,0.09387230,0.10623584,0.17411322,0.00002437
 ,0.00011299,0.00004748,0.00001123,0.00004032,0.00000065,-0.00023815,-0
 .00017917,-0.00001499,0.00213646,0.00254494,0.00178808,-0.00155652,0.0
 0047640,0.00008369,-0.02344220,0.00148213,0.00814491,-0.23393444,-0.08
 434468,0.09682005,0.00993920,0.00290823,-0.00475768,-0.01139392,-0.006
 41631,0.00625529,0.25750141,0.00012681,0.00035727,0.00009276,0.0000465
 0,0.00000209,-0.00000949,0.00012715,0.00040168,0.00022093,-0.00173369,
 -0.00410619,-0.00278218,0.00295721,-0.00098847,0.00003642,0.03866630,0
 .00187860,-0.01542015,-0.09762473,-0.08704517,0.04773410,-0.01350305,-
 0.00539138,0.00676934,-0.01413257,-0.00472698,0.00852321,0.08301895,0.
 09931418,-0.00005577,0.00030563,0.00013396,0.00001238,0.00001542,-0.00
 002802,0.00015975,-0.00020994,-0.00010225,-0.00278650,-0.00058431,-0.0
 0024719,0.00102579,-0.00045502,-0.00007459,0.01029236,-0.00135903,-0.0
 0193378,0.09548559,0.04290754,-0.10287772,0.02314435,0.01200464,-0.012
 64952,-0.01815586,-0.00701655,0.01085133,-0.10716988,-0.04742066,0.109
 10392,-0.00016690,0.00019706,-0.00000634,0.00005922,-0.00000053,0.0000
 1929,0.00006127,0.00017036,-0.00013557,-0.00116518,-0.00073174,-0.0001
 9055,0.00025987,0.00019685,0.00008321,0.00072879,-0.00052252,0.0009119
 1,-0.00404109,-0.00314797,-0.00508163,-0.10972669,-0.07955882,-0.08251
 584,0.00085355,0.00071573,-0.00105349,0.00037653,0.00058646,0.00043922
 ,0.11388764,-0.00007970,-0.00001624,-0.00000641,0.00003586,-0.00000757
 ,0.00002443,-0.00015208,0.00002745,-0.00010030,0.00086486,-0.00003019,
 -0.00020362,-0.00023771,0.00014165,0.00012752,-0.00169177,0.00189342,-
 0.00080535,0.01038702,0.01080115,0.01370881,-0.08021437,-0.14826874,-0
 .10804259,0.00130080,-0.00166908,0.00347892,-0.00018305,0.00075261,-0.
 00091767,0.08625630,0.15688454,0.00000854,-0.00000436,0.00007856,-0.00
 000389,0.00000733,-0.00003564,0.00027112,0.00009560,-0.00000146,-0.000
 28866,0.00003042,-0.00002208,-0.00005753,0.00003336,-0.00000819,0.0014
 7032,-0.00036669,0.00263822,-0.01424963,-0.01912104,-0.02127009,-0.082
 45544,-0.10493032,-0.15928906,-0.00075064,0.00389095,-0.00364694,0.000
 43050,-0.00035206,0.00086012,0.09167467,0.11387166,0.17464595,-0.00010
 365,0.00007941,-0.00021709,0.00001640,-0.00002767,0.00005016,-0.001137
 72,0.00022847,-0.00092989,-0.00022680,-0.00017430,0.00041805,0.0001009
 1,-0.00009877,-0.00014286,0.00171882,-0.00124873,0.00055161,0.00781989
 ,0.00447058,-0.00452099,-0.23696275,-0.08019498,0.09715871,0.00049112,
 -0.00041546,0.00078193,0.00048771,0.00156327,-0.00204985,-0.01157540,-
 0.00333147,0.00633374,0.25423305,0.00003448,0.00006784,-0.00012175,-0.
 00002880,0.00005017,0.00000083,0.00006394,-0.00003637,0.00014607,0.000
 14902,-0.00057549,0.00069874,0.00015072,-0.00007596,-0.00018141,-0.000
 56209,0.00144762,-0.00135882,-0.01421730,-0.00766568,0.00812863,-0.079
 70953,-0.08116523,0.03949350,0.00066171,0.00041640,-0.00077477,0.00120
 014,-0.00053628,0.00291456,-0.01552576,-0.00670314,0.00946773,0.086575
 44,0.08427269,0.00036611,-0.00026327,-0.00003488,-0.00013555,-0.000011
 05,-0.00002539,-0.00054235,-0.00018887,-0.00017983,0.00109315,0.001568
 11,0.00008244,-0.00055174,-0.00021259,-0.00004232,-0.00156654,-0.00202
 346,0.00201445,0.02720072,0.00983274,-0.01434707,0.09442049,0.04018196
 ,-0.09642041,0.00019471,-0.00063030,0.00105397,-0.00253316,0.00291159,
 -0.00403778,-0.01808491,-0.00640371,0.01021352,-0.10431868,-0.04708631
 ,0.10523118,0.00010157,0.00002357,-0.00004730,-0.00002759,0.00004752,0
 .00001344,-0.00024990,0.00000086,-0.00017879,0.00122481,-0.00040203,0.
 00017530,-0.00023529,0.00014035,0.00007427,0.00017608,0.00090681,-0.00
 160205,-0.00549552,0.00373819,0.00300597,-0.14321240,0.12625439,0.0352
 2052,0.00003556,-0.00027936,-0.00021203,0.00020134,0.00003352,-0.00021
 373,0.01038676,-0.01299384,-0.00236214,-0.01483382,0.02127227,0.004562
 00,0.15198983,0.00003865,0.00006458,0.00000867,-0.00000591,-0.00000991
 ,-0.00000125,0.00014438,0.00020168,-0.00011034,-0.00269485,-0.00063697
 ,0.00091756,0.00079655,-0.00030444,-0.00042189,0.00342579,-0.00147028,
 0.00332553,0.00790613,-0.01154341,-0.00716685,0.12566361,-0.20887859,-
 0.04483727,0.00012189,0.00039396,0.00024099,-0.00059412,0.00013773,-0.
 00010112,0.01142687,-0.01378961,-0.00260331,-0.00749041,0.01053629,0.0
 0217272,-0.13873070,0.22529191,0.00004256,-0.00010361,0.00003493,-0.00
 002148,0.00000089,-0.00000111,-0.00014119,-0.00022858,-0.00004858,0.00
 285840,0.00113867,-0.00133718,-0.00116520,0.00035377,0.00072300,-0.005
 31053,0.00562511,-0.00433166,-0.01577925,0.01880490,0.00994636,0.03635
 162,-0.04664888,-0.06154693,-0.00009147,-0.00117376,0.00056924,0.00090
 251,-0.00032289,0.00097894,0.01397609,-0.01470803,-0.00417564,0.006843
 27,-0.01134538,-0.00356638,-0.03845416,0.04857463,0.06274078,0.1437752
 4,-0.03391565,-0.04459905,-0.01249901,0.00800658,0.00586938,-0.1024797
 1,-0.03271231,0.01457071,0.01135381,0.00287099,-0.00205087,-0.00168924
 ,-0.00353048,0.00013383,-0.00213622,0.00106150,0.00048423,-0.00011808,
 -0.00088596,-0.00002725,-0.00011109,0.00018668,0.00024615,-0.00037571,
 -0.00006642,-0.00000383,-0.00020091,-0.00004674,-0.00010861,0.00008717
 ,0.00002629,-0.00002489,-0.00001284,-0.00010877,-0.00012418,-0.0001019
 6,0.00004716,-0.00004905,0.04956056,-0.09558280,-0.01608384,0.02172271
 ,0.01874205,-0.01014527,-0.00803168,0.04621949,0.02634365,-0.00432329,
 -0.00228158,-0.00727509,-0.00090075,-0.00295356,0.00399796,0.00109444,
 -0.00070886,0.00055336,0.00030480,0.00019775,-0.00003494,0.00002544,-0
 .00004508,-0.00004278,-0.00001129,0.00005634,0.00002620,-0.00003627,0.
 00002505,0.00006286,0.00002397,0.00000165,-0.00000265,-0.00000613,0.00
 003491,0.00001177,0.00001631,0.00001237,0.00001339,-0.00000537,0.20327
 954,0.44988495,-0.06373707,0.00857562,0.00057707,0.00860281,-0.0054271
 7,-0.00086775,0.03796240,0.01297497,0.00146109,-0.00368005,-0.00199055
 ,-0.00085493,-0.00002776,0.00154805,0.00134576,0.00030890,-0.00009822,
 -0.00015438,-0.00003287,0.00016797,-0.00024690,0.00008345,-0.00001114,
 -0.00004260,0.00020142,0.00006947,0.00000475,0.00004249,0.00000722,0.0
 0004573,0.00000092,-0.00000891,0.00002049,0.00003418,-0.00000228,0.000
 00578,0.00002359,-0.00000569,0.00003545,0.03974005,0.05483407,0.013536
 13,0.00647112,0.01198063,0.00105462,-0.00268660,0.00180538,0.00135822,
 -0.00400220,0.00078990,0.00100987,-0.00549053,0.00495342,0.00228871,0.
 00381059,-0.00180755,-0.00151285,0.00264506,-0.00086122,-0.00058134,-0
 .00040372,0.00068640,0.00020732,0.00008256,-0.00013824,-0.00008870,0.0
 0003367,-0.00009255,-0.00001704,0.00008789,-0.00008539,-0.00001924,-0.
 00002556,0.00001287,0.00000394,-0.00001494,0.00004455,0.00001994,0.000
 04052,-0.00005504,0.00003788,-0.08505200,-0.16699726,-0.01952245,0.084
 50412,-0.01412586,-0.00309691,0.00266950,0.00139247,-0.00064599,-0.000
 72406,0.00506007,0.00293255,-0.00036005,-0.00021182,0.00678132,0.00159
 609,0.00170248,-0.00550029,-0.00130471,0.00062851,-0.00106603,-0.00037
 196,0.00003294,0.00027588,0.00026230,0.00005512,-0.00004495,-0.0000852
 6,0.00006435,-0.00014489,-0.00025500,-0.00009182,-0.00011256,-0.000107
 47,-0.00006393,-0.00001360,-0.00001313,0.00002971,-0.00004463,0.000136
 13,-0.00002391,-0.00000634,0.00003853,-0.14421241,-0.44730958,-0.07063
 340,0.14976410,0.44799601,-0.00503989,-0.00377109,-0.00063758,0.001277
 95,-0.00086073,0.00021235,0.00198516,0.00056148,-0.00031595,0.00128567
 ,0.00051488,0.00055313,-0.00083221,-0.00065107,-0.00177300,-0.00045014
 ,-0.00009177,0.00013939,0.00017807,-0.00011798,0.00021314,-0.00001741,
 -0.00002766,-0.00002224,-0.00001763,-0.00002698,-0.00005359,-0.0000399
 4,0.00001185,-0.00002316,-0.00003698,-0.00001477,-0.00000775,0.0000077
 2,0.00002066,0.00005274,-0.00000488,0.00000763,-0.00002122,-0.01405661
 ,-0.06470695,-0.01486569,0.01576111,0.06915251,0.01654944\\0.02572557,
 -0.01465293,-0.01008441,-0.00146382,-0.00043814,0.00022854,-0.00415195
 ,0.00169918,0.00157085,0.00033462,0.00026935,-0.00001579,0.00038830,0.
 00027613,0.00003112,-0.00016962,-0.00010598,-0.00015410,-0.00006495,-0
 .00012831,0.00017506,0.00000513,0.00008572,0.00001500,-0.00014454,-0.0
 0006575,-0.00005731,0.00011737,0.00005504,-0.00002316,0.00003139,0.000
 02220,0.00003894,-0.00006846,-0.00001284,-0.00005858,0.00001109,-0.000
 05793,-0.00004775,-0.01985915,0.01242477,0.00804483,-0.00069097,0.0006
 2950,0.00033676\\\@


 WHEN A MATHEMATICIAN ENGAGED IN INVESTIGATING
 PHYSICAL ACTIONS AND RESULTS HAS ARRIVED AT HIS
 CONCLUSIONS, MAY THEY NOT BE EXPRESSED IN COMMON
 LANGUAGE AS FULLY, CLEARLY, AND DEFINITELY AS IN
 MATHEMATICAL FORMULAE?
           - LETTER FROM M. FARADAY TO J.C. MAXWELL, 1857.
 Job cpu time:       0 days  1 hours 11 minutes 17.7 seconds.
 Elapsed time:       0 days  0 hours 12 minutes  3.3 seconds.
 File lengths (MBytes):  RWF=    146 Int=      0 D2E=      0 Chk=      5 Scr=      1
 Normal termination of Gaussian 16 at Fri Mar 28 12:18:24 2025.
