 Entering Link 1 = C:\G09W\l1.exe PID=      7396.
  
 Copyright (c) 1988,1990,1992,1993,1995,1998,2003,2009,2013,
            Gaussian, Inc.  All Rights Reserved.
  
 This is part of the Gaussian(R) 09 program.  It is based on
 the Gaussian(R) 03 system (copyright 2003, Gaussian, Inc.),
 the Gaussian(R) 98 system (copyright 1998, Gaussian, Inc.),
 the Gaussian(R) 94 system (copyright 1995, Gaussian, Inc.),
 the Gaussian 92(TM) system (copyright 1992, Gaussian, Inc.),
 the Gaussian 90(TM) system (copyright 1990, Gaussian, Inc.),
 the Gaussian 88(TM) system (copyright 1988, Gaussian, Inc.),
 the Gaussian 86(TM) system (copyright 1986, Carnegie Mellon
 University), and the Gaussian 82(TM) system (copyright 1983,
 Carnegie Mellon University). Gaussian is a federally registered
 trademark of Gaussian, Inc.
  
 This software contains proprietary and confidential information,
 including trade secrets, belonging to Gaussian, Inc.
  
 This software is provided under written license and may be
 used, copied, transmitted, or stored only in accord with that
 written license.
  
 The following legend is applicable only to US Government
 contracts under FAR:
  
                    RESTRICTED RIGHTS LEGEND
  
 Use, reproduction and disclosure by the US Government is
 subject to restrictions as set forth in subparagraphs (a)
 and (c) of the Commercial Computer Software - Restricted
 Rights clause in FAR 52.227-19.
  
 Gaussian, Inc.
 340 Quinnipiac St., Bldg. 40, Wallingford CT 06492
  
  
 ---------------------------------------------------------------
 Warning -- This program may not be used in any manner that
 competes with the business of Gaussian, Inc. or will provide
 assistance to any competitor of Gaussian, Inc.  The licensee
 of this program is prohibited from giving any competitor of
 Gaussian, Inc. access to this program.  By using this program,
 the user acknowledges that Gaussian, Inc. is engaged in the
 business of creating and licensing software in the field of
 computational chemistry and represents and warrants to the
 licensee that it is not a competitor of Gaussian, Inc. and that
 it will not use this program in any manner prohibited above.
 ---------------------------------------------------------------
  

 Cite this work as:
 Gaussian 09, Revision D.01,
 M. J. Frisch, G. W. Trucks, H. B. Schlegel, G. E. Scuseria, 
 M. A. Robb, J. R. Cheeseman, G. Scalmani, V. Barone, B. Mennucci, 
 G. A. Petersson, H. Nakatsuji, M. Caricato, X. Li, H. P. Hratchian, 
 A. F. Izmaylov, J. Bloino, G. Zheng, J. L. Sonnenberg, M. Hada, 
 M. Ehara, K. Toyota, R. Fukuda, J. Hasegawa, M. Ishida, T. Nakajima, 
 Y. Honda, O. Kitao, H. Nakai, T. Vreven, J. A. Montgomery, Jr., 
 J. E. Peralta, F. Ogliaro, M. Bearpark, J. J. Heyd, E. Brothers, 
 K. N. Kudin, V. N. Staroverov, T. Keith, R. Kobayashi, J. Normand, 
 K. Raghavachari, A. Rendell, J. C. Burant, S. S. Iyengar, J. Tomasi, 
 M. Cossi, N. Rega, J. M. Millam, M. Klene, J. E. Knox, J. B. Cross, 
 V. Bakken, C. Adamo, J. Jaramillo, R. Gomperts, R. E. Stratmann, 
 O. Yazyev, A. J. Austin, R. Cammi, C. Pomelli, J. W. Ochterski, 
 R. L. Martin, K. Morokuma, V. G. Zakrzewski, G. A. Voth, 
 P. Salvador, J. J. Dannenberg, S. Dapprich, A. D. Daniels, 
 O. Farkas, J. B. Foresman, J. V. Ortiz, J. Cioslowski, 
 and D. J. Fox, Gaussian, Inc., Wallingford CT, 2013.
 
 ******************************************
 Gaussian 09:  IA32W-G09RevD.01 24-Apr-2013
                23-Jan-2025 
 ******************************************
 %nprocshared=4
 Will use up to    4 processors via shared memory.
 %mem=150MW
 %chk=ethyl_propiolate.chk
 ---------------------------------------------------------
 # opt=(calcfc,tight,noeigentest) freq 6-311++g(d,p) m062x
 ---------------------------------------------------------
 1/7=10,10=4,11=1,14=-1,18=20,19=15,26=3,38=1/1,3;
 2/9=110,12=2,17=6,18=5,40=1/2;
 3/5=4,6=6,7=1111,11=2,16=1,25=1,30=1,71=2,74=-55,140=1/1,2,3;
 4//1;
 5/5=2,38=5/2;
 8/6=4,10=90,11=11/1;
 11/6=1,8=1,9=11,15=111,16=1/1,2,10;
 10/6=1,13=1/2;
 6/7=2,8=2,9=2,10=2,28=1/1;
 7/10=1,18=20,25=1/1,2,3,16;
 1/7=10,10=4,11=1,14=-1,18=20,19=15,26=3/3(2);
 2/9=110/2;
 99//99;
 2/9=110/2;
 3/5=4,6=6,7=1111,11=2,16=1,25=1,30=1,71=1,74=-55/1,2,3;
 4/5=5,16=3,69=1/1;
 5/5=2,38=5/2;
 7//1,2,3,16;
 1/7=10,11=1,14=-1,18=20,19=15,26=3/3(-5);
 2/9=110/2;
 6/7=2,8=2,9=2,10=2,19=2,28=1/1;
 99/9=1/99;
 -------------------
 Title Card Required
 -------------------
 Symbolic Z-matrix:
 Charge =  0 Multiplicity = 2
 C                     2.85278  -0.24775   0.00001 
 H                     3.18426  -1.27107   0.00001 
 C                     1.67001   0.33117   0. 
 C                     0.43867  -0.53309   0. 
 O                     0.4273   -1.73086   0.00001 
 O                    -0.66753   0.2309   0. 
 C                    -1.92453  -0.47516  0. 
 C                    -3.02642   0.55741  0. 
 H                    -1.95484  -1.11552  -0.88337 
 H                    -1.95484  -1.11551   0.88337 
 H                    -2.96596   1.18933   0.88723 
 H                    -2.96595   1.18932  -0.88724 
 H                    -3.99588   0.0564   0. 
 O                     1.49536   1.67648  -0.00001 
 H                     0.54908   1.8594   -0.00001 
 

 GradGradGradGradGradGradGradGradGradGradGradGradGradGradGradGradGradGrad
 Berny optimization.
 Initialization pass.
                           ----------------------------
                           !    Initial Parameters    !
                           ! (Angstroms and Degrees)  !
 --------------------------                            --------------------------
 ! Name  Definition              Value          Derivative Info.                !
 --------------------------------------------------------------------------------
 ! R1    R(1,2)                  1.0757         calculate D2E/DX2 analytically  !
 ! R2    R(1,3)                  1.3168         calculate D2E/DX2 analytically  !
 ! R3    R(3,4)                  1.5044         calculate D2E/DX2 analytically  !
 ! R4    R(3,14)                 1.3566         calculate D2E/DX2 analytically  !
 ! R5    R(4,5)                  1.1978         calculate D2E/DX2 analytically  !
 ! R6    R(4,6)                  1.3444         calculate D2E/DX2 analytically  !
 ! R7    R(6,7)                  1.4417         calculate D2E/DX2 analytically  !
 ! R8    R(7,8)                  1.5101         calculate D2E/DX2 analytically  !
 ! R9    R(7,9)                  1.0915         calculate D2E/DX2 analytically  !
 ! R10   R(7,10)                 1.0915         calculate D2E/DX2 analytically  !
 ! R11   R(8,11)                 1.0909         calculate D2E/DX2 analytically  !
 ! R12   R(8,12)                 1.0909         calculate D2E/DX2 analytically  !
 ! R13   R(8,13)                 1.0913         calculate D2E/DX2 analytically  !
 ! R14   R(14,15)                0.9638         calculate D2E/DX2 analytically  !
 ! A1    A(2,1,3)              134.0286         calculate D2E/DX2 analytically  !
 ! A2    A(1,3,4)              118.8555         calculate D2E/DX2 analytically  !
 ! A3    A(1,3,14)             123.4766         calculate D2E/DX2 analytically  !
 ! A4    A(4,3,14)             117.6679         calculate D2E/DX2 analytically  !
 ! A5    A(3,4,5)              125.6087         calculate D2E/DX2 analytically  !
 ! A6    A(3,4,6)              110.3045         calculate D2E/DX2 analytically  !
 ! A7    A(5,4,6)              124.0868         calculate D2E/DX2 analytically  !
 ! A8    A(4,6,7)              116.046          calculate D2E/DX2 analytically  !
 ! A9    A(6,7,8)              107.537          calculate D2E/DX2 analytically  !
 ! A10   A(6,7,9)              108.1515         calculate D2E/DX2 analytically  !
 ! A11   A(6,7,10)             108.1514         calculate D2E/DX2 analytically  !
 ! A12   A(8,7,9)              112.3897         calculate D2E/DX2 analytically  !
 ! A13   A(8,7,10)             112.3896         calculate D2E/DX2 analytically  !
 ! A14   A(9,7,10)             108.0627         calculate D2E/DX2 analytically  !
 ! A15   A(7,8,11)             110.8319         calculate D2E/DX2 analytically  !
 ! A16   A(7,8,12)             110.8318         calculate D2E/DX2 analytically  !
 ! A17   A(7,8,13)             109.5309         calculate D2E/DX2 analytically  !
 ! A18   A(11,8,12)            108.8339         calculate D2E/DX2 analytically  !
 ! A19   A(11,8,13)            108.3711         calculate D2E/DX2 analytically  !
 ! A20   A(12,8,13)            108.3711         calculate D2E/DX2 analytically  !
 ! A21   A(3,14,15)            108.3375         calculate D2E/DX2 analytically  !
 ! D1    D(2,1,3,4)              0.0            calculate D2E/DX2 analytically  !
 ! D2    D(2,1,3,14)           180.0            calculate D2E/DX2 analytically  !
 ! D3    D(1,3,4,5)             -0.0001         calculate D2E/DX2 analytically  !
 ! D4    D(1,3,4,6)            179.9999         calculate D2E/DX2 analytically  !
 ! D5    D(14,3,4,5)           179.9999         calculate D2E/DX2 analytically  !
 ! D6    D(14,3,4,6)            -0.0001         calculate D2E/DX2 analytically  !
 ! D7    D(1,3,14,15)         -180.0            calculate D2E/DX2 analytically  !
 ! D8    D(4,3,14,15)            0.0            calculate D2E/DX2 analytically  !
 ! D9    D(3,4,6,7)            179.9999         calculate D2E/DX2 analytically  !
 ! D10   D(5,4,6,7)             -0.0001         calculate D2E/DX2 analytically  !
 ! D11   D(4,6,7,8)            179.9999         calculate D2E/DX2 analytically  !
 ! D12   D(4,6,7,9)            -58.3997         calculate D2E/DX2 analytically  !
 ! D13   D(4,6,7,10)            58.3995         calculate D2E/DX2 analytically  !
 ! D14   D(6,7,8,11)           -60.4768         calculate D2E/DX2 analytically  !
 ! D15   D(6,7,8,12)            60.4769         calculate D2E/DX2 analytically  !
 ! D16   D(6,7,8,13)          -180.0            calculate D2E/DX2 analytically  !
 ! D17   D(9,7,8,11)          -179.3935         calculate D2E/DX2 analytically  !
 ! D18   D(9,7,8,12)           -58.4398         calculate D2E/DX2 analytically  !
 ! D19   D(9,7,8,13)            61.0834         calculate D2E/DX2 analytically  !
 ! D20   D(10,7,8,11)           58.4397         calculate D2E/DX2 analytically  !
 ! D21   D(10,7,8,12)          179.3934         calculate D2E/DX2 analytically  !
 ! D22   D(10,7,8,13)          -61.0835         calculate D2E/DX2 analytically  !
 --------------------------------------------------------------------------------
 Trust Radius=3.00D-01 FncErr=1.00D-07 GrdErr=1.00D-06
 Number of steps in this run=     67 maximum allowed number of steps=    100.
 GradGradGradGradGradGradGradGradGradGradGradGradGradGradGradGradGradGrad

                          Input orientation:                          
 ---------------------------------------------------------------------
 Center     Atomic      Atomic             Coordinates (Angstroms)
 Number     Number       Type             X           Y           Z
 ---------------------------------------------------------------------
      1          6           0        2.852779   -0.247745    0.000006
      2          1           0        3.184264   -1.271067    0.000013
      3          6           0        1.670010    0.331173    0.000000
      4          6           0        0.438671   -0.533092    0.000003
      5          8           0        0.427297   -1.730858    0.000009
      6          8           0       -0.667529    0.230903   -0.000002
      7          6           0       -1.924529   -0.475162   -0.000001
      8          6           0       -3.026422    0.557407   -0.000004
      9          1           0       -1.954836   -1.115516   -0.883368
     10          1           0       -1.954836   -1.115510    0.883371
     11          1           0       -2.965955    1.189325    0.887230
     12          1           0       -2.965954    1.189320   -0.887242
     13          1           0       -3.995881    0.056403   -0.000003
     14          8           0        1.495364    1.676476   -0.000008
     15          1           0        0.549080    1.859401   -0.000011
 ---------------------------------------------------------------------
                    Distance matrix (angstroms):
                    1          2          3          4          5
     1  C    0.000000
     2  H    1.075672   0.000000
     3  C    1.316848   2.204572   0.000000
     4  C    2.430913   2.843042   1.504377   0.000000
     5  O    2.842989   2.795045   2.407552   1.197820   0.000000
     6  O    3.552699   4.134274   2.339689   1.344383   2.246586
     7  C    4.782718   5.170419   3.683868   2.363910   2.666057
     8  C    5.934077   6.474252   4.701878   3.632638   4.142986
     9  H    4.964528   5.216791   4.001594   2.616952   2.614108
    10  H    4.964525   5.216787   4.001593   2.616950   2.614104
    11  H    6.058878   6.683253   4.797476   3.917317   4.563857
    12  H    6.058879   6.683256   4.797476   3.917318   4.563859
    13  H    6.855410   7.301826   5.672550   4.473562   4.770619
    14  O    2.354825   3.397115   1.356592   2.449243   3.570811
    15  H    3.122034   4.091946   1.895248   2.395039   3.592324
                    6          7          8          9         10
     6  O    0.000000
     7  C    1.441727   0.000000
     8  C    2.381382   1.510088   0.000000
     9  H    2.061635   1.091471   2.174235   0.000000
    10  H    2.061634   1.091472   2.174235   1.766739   0.000000
    11  H    2.643580   2.154591   1.090945   3.077283   2.516871
    12  H    2.643580   2.154591   1.090945   2.516872   3.077283
    13  H    3.332923   2.138472   1.091263   2.513880   2.513880
    14  O    2.601497   4.040447   4.658204   4.525420   4.525420
    15  H    2.032767   3.401312   3.805181   3.987486   3.987487
                   11         12         13         14         15
    11  H    0.000000
    12  H    1.774472   0.000000
    13  H    1.769588   1.769589   0.000000
    14  O    4.574699   4.574698   5.725243   0.000000
    15  H    3.686688   3.686686   4.889527   0.963802   0.000000
 Stoichiometry    C5H7O3(2)
 Framework group  C1[X(C5H7O3)]
 Deg. of freedom    39
 Full point group                 C1      NOp   1
 Largest Abelian subgroup         C1      NOp   1
 Largest concise Abelian subgroup C1      NOp   1
                         Standard orientation:                         
 ---------------------------------------------------------------------
 Center     Atomic      Atomic             Coordinates (Angstroms)
 Number     Number       Type             X           Y           Z
 ---------------------------------------------------------------------
      1          6           0       -2.852779   -0.247745   -0.000006
      2          1           0       -3.184264   -1.271068   -0.000013
      3          6           0       -1.670010    0.331173    0.000000
      4          6           0       -0.438671   -0.533092   -0.000003
      5          8           0       -0.427297   -1.730858   -0.000009
      6          8           0        0.667529    0.230903    0.000002
      7          6           0        1.924529   -0.475162    0.000001
      8          6           0        3.026422    0.557407    0.000004
      9          1           0        1.954836   -1.115516    0.883368
     10          1           0        1.954836   -1.115510   -0.883371
     11          1           0        2.965955    1.189325   -0.887230
     12          1           0        2.965954    1.189320    0.887242
     13          1           0        3.995881    0.056403    0.000003
     14          8           0       -1.495364    1.676476    0.000008
     15          1           0       -0.549080    1.859401    0.000011
 ---------------------------------------------------------------------
 Rotational constants (GHZ):      4.2424514      1.3022711      1.0089818
 Standard basis: 6-311++G(d,p) (5D, 7F)
 There are   233 symmetry adapted cartesian basis functions of A   symmetry.
 There are   225 symmetry adapted basis functions of A   symmetry.
   225 basis functions,   351 primitive gaussians,   233 cartesian basis functions
    31 alpha electrons       30 beta electrons
       nuclear repulsion energy       367.4164709236 Hartrees.
 NAtoms=   15 NActive=   15 NUniq=   15 SFac= 1.00D+00 NAtFMM=   60 NAOKFM=F Big=F
 Integral buffers will be    262144 words long.
 Raffenetti 2 integral format.
 Two-electron integral symmetry is turned on.
 One-electron integrals computed using PRISM.
 NBasis=   225 RedAO= T EigKep=  1.90D-05  NBF=   225
 NBsUse=   225 1.00D-06 EigRej= -1.00D+00 NBFU=   225
 ExpMin= 3.60D-02 ExpMax= 8.59D+03 ExpMxC= 1.30D+03 IAcc=3 IRadAn=         5 AccDes= 0.00D+00
 Harris functional with IExCor= 1009 and IRadAn=       5 diagonalized for initial guess.
 HarFok:  IExCor= 1009 AccDes= 0.00D+00 IRadAn=         5 IDoV= 1 UseB2=F ITyADJ=14
 ICtDFT=  3500011 ScaDFX=  1.000000  1.000000  1.000000  1.000000
 FoFCou: FMM=F IPFlag=           0 FMFlag=      100000 FMFlg1=           0
         NFxFlg=           0 DoJE=T BraDBF=F KetDBF=T FulRan=T
         wScrn=  0.000000 ICntrl=     500 IOpCl=  0 I1Cent=   200000004 NGrid=           0
         NMat0=    1 NMatS0=      1 NMatT0=    0 NMatD0=    1 NMtDS0=    0 NMtDT0=    0
 Petite list used in FoFCou.
 Initial guess <Sx>= 0.0000 <Sy>= 0.0000 <Sz>= 0.5000 <S**2>= 0.7500 S= 0.5000
 Requested convergence on RMS density matrix=1.00D-08 within 128 cycles.
 Requested convergence on MAX density matrix=1.00D-06.
 Requested convergence on             energy=1.00D-06.
 No special actions if energy rises.
 SCF Done:  E(UM062X) =  -420.270641241     A.U. after   17 cycles
            NFock= 17  Conv=0.86D-08     -V/T= 2.0033
 <Sx>= 0.0000 <Sy>= 0.0000 <Sz>= 0.5000 <S**2>= 0.7752 S= 0.5125
 <L.S>= 0.000000000000E+00
 Annihilation of the first spin contaminant:
 S**2 before annihilation     0.7752,   after     0.7501
 DoSCS=F DFT=T ScalE2(SS,OS)=  1.000000  1.000000
 Range of M.O.s used for correlation:     1   225
 NBasis=   225 NAE=    31 NBE=    30 NFC=     0 NFV=     0
 NROrb=    225 NOA=    31 NOB=    30 NVA=   194 NVB=   195

 **** Warning!!: The largest alpha MO coefficient is  0.72916072D+02


 **** Warning!!: The largest beta MO coefficient is  0.70988264D+02

 Symmetrizing basis deriv contribution to polar:
 IMax=3 JMax=2 DiffMx= 0.00D+00
 G2DrvN: will do    16 centers at a time, making    1 passes.
 Calling FoFCou, ICntrl=  3107 FMM=F I1Cent=   0 AccDes= 0.00D+00.
 End of G2Drv F.D. properties file   721 does not exist.
 End of G2Drv F.D. properties file   722 does not exist.
 End of G2Drv F.D. properties file   788 does not exist.
          IDoAtm=111111111111111
          Differentiating once with respect to nuclear coordinates.
          There are    48 degrees of freedom in the 1st order CPHF.  IDoFFX=6 NUNeed=     0.
     43 vectors produced by pass  0 Test12= 2.47D-14 2.08D-09 XBig12= 3.39D-01 1.18D-01.
 AX will form    43 AO Fock derivatives at one time.
     42 vectors produced by pass  1 Test12= 2.47D-14 2.08D-09 XBig12= 4.62D-02 3.00D-02.
     42 vectors produced by pass  2 Test12= 2.47D-14 2.08D-09 XBig12= 1.34D-03 1.65D-02.
     42 vectors produced by pass  3 Test12= 2.47D-14 2.08D-09 XBig12= 7.32D-05 2.02D-03.
     42 vectors produced by pass  4 Test12= 2.47D-14 2.08D-09 XBig12= 9.33D-07 1.21D-04.
     42 vectors produced by pass  5 Test12= 2.47D-14 2.08D-09 XBig12= 7.92D-09 1.09D-05.
     38 vectors produced by pass  6 Test12= 2.47D-14 2.08D-09 XBig12= 5.75D-11 6.51D-07.
     24 vectors produced by pass  7 Test12= 2.47D-14 2.08D-09 XBig12= 4.27D-13 6.90D-08.
     14 vectors produced by pass  8 Test12= 2.47D-14 2.08D-09 XBig12= 1.56D-14 1.77D-08.
      7 vectors produced by pass  9 Test12= 2.47D-14 2.08D-09 XBig12= 9.85D-16 3.88D-09.
      6 vectors produced by pass 10 Test12= 2.47D-14 2.08D-09 XBig12= 5.44D-16 3.06D-09.
      4 vectors produced by pass 11 Test12= 2.47D-14 2.08D-09 XBig12= 4.24D-16 4.07D-09.
      3 vectors produced by pass 12 Test12= 2.47D-14 2.08D-09 XBig12= 5.01D-16 3.18D-09.
      3 vectors produced by pass 13 Test12= 2.47D-14 2.08D-09 XBig12= 4.64D-16 3.24D-09.
      2 vectors produced by pass 14 Test12= 2.47D-14 2.08D-09 XBig12= 4.71D-16 2.64D-09.
      1 vectors produced by pass 15 Test12= 2.47D-14 2.08D-09 XBig12= 3.67D-16 2.70D-09.
 InvSVY:  IOpt=1 It=  1 EMax= 3.33D-16
 Solved reduced A of dimension   355 with    48 vectors.
 End of Minotr F.D. properties file   721 does not exist.
 End of Minotr F.D. properties file   722 does not exist.
 End of Minotr F.D. properties file   788 does not exist.

 **********************************************************************

            Population analysis using the SCF density.

 **********************************************************************

 Orbital symmetries:
 Alpha Orbitals:
       Occupied  (A) (A) (A) (A) (A) (A) (A) (A) (A) (A) (A) (A)
                 (A) (A) (A) (A) (A) (A) (A) (A) (A) (A) (A) (A)
                 (A) (A) (A) (A) (A) (A) (A)
       Virtual   (A) (A) (A) (A) (A) (A) (A) (A) (A) (A) (A) (A)
                 (A) (A) (A) (A) (A) (A) (A) (A) (A) (A) (A) (A)
                 (A) (A) (A) (A) (A) (A) (A) (A) (A) (A) (A) (A)
                 (A) (A) (A) (A) (A) (A) (A) (A) (A) (A) (A) (A)
                 (A) (A) (A) (A) (A) (A) (A) (A) (A) (A) (A) (A)
                 (A) (A) (A) (A) (A) (A) (A) (A) (A) (A) (A) (A)
                 (A) (A) (A) (A) (A) (A) (A) (A) (A) (A) (A) (A)
                 (A) (A) (A) (A) (A) (A) (A) (A) (A) (A) (A) (A)
                 (A) (A) (A) (A) (A) (A) (A) (A) (A) (A) (A) (A)
                 (A) (A) (A) (A) (A) (A) (A) (A) (A) (A) (A) (A)
                 (A) (A) (A) (A) (A) (A) (A) (A) (A) (A) (A) (A)
                 (A) (A) (A) (A) (A) (A) (A) (A) (A) (A) (A) (A)
                 (A) (A) (A) (A) (A) (A) (A) (A) (A) (A) (A) (A)
                 (A) (A) (A) (A) (A) (A) (A) (A) (A) (A) (A) (A)
                 (A) (A) (A) (A) (A) (A) (A) (A) (A) (A) (A) (A)
                 (A) (A) (A) (A) (A) (A) (A) (A) (A) (A) (A) (A)
                 (A) (A)
 Beta  Orbitals:
       Occupied  (A) (A) (A) (A) (A) (A) (A) (A) (A) (A) (A) (A)
                 (A) (A) (A) (A) (A) (A) (A) (A) (A) (A) (A) (A)
                 (A) (A) (A) (A) (A) (A)
       Virtual   (A) (A) (A) (A) (A) (A) (A) (A) (A) (A) (A) (A)
                 (A) (A) (A) (A) (A) (A) (A) (A) (A) (A) (A) (A)
                 (A) (A) (A) (A) (A) (A) (A) (A) (A) (A) (A) (A)
                 (A) (A) (A) (A) (A) (A) (A) (A) (A) (A) (A) (A)
                 (A) (A) (A) (A) (A) (A) (A) (A) (A) (A) (A) (A)
                 (A) (A) (A) (A) (A) (A) (A) (A) (A) (A) (A) (A)
                 (A) (A) (A) (A) (A) (A) (A) (A) (A) (A) (A) (A)
                 (A) (A) (A) (A) (A) (A) (A) (A) (A) (A) (A) (A)
                 (A) (A) (A) (A) (A) (A) (A) (A) (A) (A) (A) (A)
                 (A) (A) (A) (A) (A) (A) (A) (A) (A) (A) (A) (A)
                 (A) (A) (A) (A) (A) (A) (A) (A) (A) (A) (A) (A)
                 (A) (A) (A) (A) (A) (A) (A) (A) (A) (A) (A) (A)
                 (A) (A) (A) (A) (A) (A) (A) (A) (A) (A) (A) (A)
                 (A) (A) (A) (A) (A) (A) (A) (A) (A) (A) (A) (A)
                 (A) (A) (A) (A) (A) (A) (A) (A) (A) (A) (A) (A)
                 (A) (A) (A) (A) (A) (A) (A) (A) (A) (A) (A) (A)
                 (A) (A) (A)
 The electronic state is 2-A.
 Alpha  occ. eigenvalues --  -19.69414 -19.66000 -19.63228 -10.69792 -10.62501
 Alpha  occ. eigenvalues --  -10.61592 -10.57594 -10.55057  -1.26472  -1.19640
 Alpha  occ. eigenvalues --   -1.16708  -0.90689  -0.88304  -0.77725  -0.70056
 Alpha  occ. eigenvalues --   -0.67386  -0.65354  -0.60087  -0.58469  -0.54828
 Alpha  occ. eigenvalues --   -0.52845  -0.51121  -0.48759  -0.47957  -0.47949
 Alpha  occ. eigenvalues --   -0.44620  -0.44569  -0.39649  -0.37806  -0.33093
 Alpha  occ. eigenvalues --   -0.32408
 Alpha virt. eigenvalues --   -0.01732  -0.00936   0.00993   0.01461   0.01643
 Alpha virt. eigenvalues --    0.02858   0.04285   0.04992   0.06192   0.06983
 Alpha virt. eigenvalues --    0.07030   0.07908   0.09475   0.10433   0.10571
 Alpha virt. eigenvalues --    0.11397   0.11534   0.12520   0.12939   0.13372
 Alpha virt. eigenvalues --    0.13467   0.14148   0.14615   0.15361   0.15758
 Alpha virt. eigenvalues --    0.16917   0.17810   0.18979   0.19536   0.20257
 Alpha virt. eigenvalues --    0.21710   0.22809   0.22855   0.24565   0.25030
 Alpha virt. eigenvalues --    0.26803   0.26889   0.27025   0.29044   0.30048
 Alpha virt. eigenvalues --    0.31051   0.31748   0.32234   0.32853   0.33610
 Alpha virt. eigenvalues --    0.34614   0.36018   0.36801   0.37731   0.40937
 Alpha virt. eigenvalues --    0.42308   0.44101   0.44950   0.45238   0.47653
 Alpha virt. eigenvalues --    0.51102   0.53209   0.55866   0.56203   0.58049
 Alpha virt. eigenvalues --    0.59894   0.62056   0.62808   0.63272   0.66393
 Alpha virt. eigenvalues --    0.67905   0.68236   0.68732   0.69373   0.70185
 Alpha virt. eigenvalues --    0.72678   0.75863   0.78025   0.79062   0.81580
 Alpha virt. eigenvalues --    0.82203   0.89234   0.91319   0.91864   0.93815
 Alpha virt. eigenvalues --    1.01412   1.02759   1.06481   1.08225   1.08357
 Alpha virt. eigenvalues --    1.11472   1.16120   1.18106   1.22175   1.22650
 Alpha virt. eigenvalues --    1.22871   1.25410   1.26797   1.26932   1.28748
 Alpha virt. eigenvalues --    1.30199   1.32977   1.39644   1.41676   1.46553
 Alpha virt. eigenvalues --    1.49152   1.52342   1.53358   1.56897   1.58196
 Alpha virt. eigenvalues --    1.58302   1.60659   1.62519   1.64439   1.67559
 Alpha virt. eigenvalues --    1.67915   1.70536   1.74921   1.75005   1.76928
 Alpha virt. eigenvalues --    1.78467   1.82068   1.84217   1.86167   1.87603
 Alpha virt. eigenvalues --    1.91072   1.94834   2.00958   2.02729   2.11355
 Alpha virt. eigenvalues --    2.11955   2.13673   2.14784   2.20170   2.21082
 Alpha virt. eigenvalues --    2.26406   2.29615   2.36173   2.40057   2.48453
 Alpha virt. eigenvalues --    2.49961   2.54335   2.57422   2.62265   2.62346
 Alpha virt. eigenvalues --    2.64274   2.66037   2.68203   2.68493   2.72346
 Alpha virt. eigenvalues --    2.75179   2.81695   2.84352   2.88725   2.88909
 Alpha virt. eigenvalues --    2.94639   2.95058   2.98441   3.03169   3.07232
 Alpha virt. eigenvalues --    3.10373   3.15755   3.18392   3.23062   3.27239
 Alpha virt. eigenvalues --    3.27895   3.32424   3.34911   3.43923   3.49040
 Alpha virt. eigenvalues --    3.62210   3.71088   3.75304   3.83204   3.84515
 Alpha virt. eigenvalues --    3.84680   3.96098   4.05616   4.12397   4.16775
 Alpha virt. eigenvalues --    4.26659   4.32763   5.09302   5.12472   5.16867
 Alpha virt. eigenvalues --    5.33144   5.47767   5.49798   5.75354   5.87524
 Alpha virt. eigenvalues --    5.94470  23.68327  23.92743  23.93064  24.04542
 Alpha virt. eigenvalues --   24.32542  49.98646  50.04529  50.14095
  Beta  occ. eigenvalues --  -19.69396 -19.66007 -19.63274 -10.69698 -10.62605
  Beta  occ. eigenvalues --  -10.61587 -10.56592 -10.55057  -1.26418  -1.19599
  Beta  occ. eigenvalues --   -1.16756  -0.90367  -0.86751  -0.77022  -0.69209
  Beta  occ. eigenvalues --   -0.66679  -0.64234  -0.60110  -0.58395  -0.53523
  Beta  occ. eigenvalues --   -0.52945  -0.51057  -0.48326  -0.48155  -0.47880
  Beta  occ. eigenvalues --   -0.44731  -0.44589  -0.39784  -0.37486  -0.30473
  Beta virt. eigenvalues --   -0.06724  -0.00876  -0.00783   0.01114   0.01610
  Beta virt. eigenvalues --    0.01650   0.03043   0.04450   0.04988   0.06255
  Beta virt. eigenvalues --    0.06990   0.07339   0.08228   0.09153   0.10421
  Beta virt. eigenvalues --    0.10853   0.11168   0.11530   0.12575   0.13068
  Beta virt. eigenvalues --    0.13355   0.13821   0.14231   0.14718   0.15039
  Beta virt. eigenvalues --    0.16187   0.16973   0.17715   0.18840   0.19529
  Beta virt. eigenvalues --    0.20367   0.21604   0.22822   0.23000   0.24685
  Beta virt. eigenvalues --    0.25168   0.26705   0.26742   0.27302   0.29134
  Beta virt. eigenvalues --    0.30003   0.30924   0.31491   0.32246   0.32571
  Beta virt. eigenvalues --    0.33558   0.34798   0.35588   0.36798   0.37763
  Beta virt. eigenvalues --    0.41077   0.42455   0.44066   0.44955   0.45362
  Beta virt. eigenvalues --    0.47665   0.51049   0.53204   0.55640   0.56697
  Beta virt. eigenvalues --    0.58290   0.60023   0.61446   0.63146   0.63565
  Beta virt. eigenvalues --    0.64940   0.66197   0.68233   0.68757   0.69276
  Beta virt. eigenvalues --    0.70173   0.72968   0.76077   0.78673   0.79390
  Beta virt. eigenvalues --    0.81497   0.82665   0.89350   0.91313   0.91978
  Beta virt. eigenvalues --    0.93822   1.01564   1.02800   1.06670   1.08304
  Beta virt. eigenvalues --    1.08850   1.11855   1.16032   1.18090   1.22507
  Beta virt. eigenvalues --    1.23005   1.23065   1.25082   1.26443   1.28268
  Beta virt. eigenvalues --    1.30233   1.30671   1.32475   1.41828   1.43513
  Beta virt. eigenvalues --    1.46664   1.49156   1.52476   1.54824   1.56906
  Beta virt. eigenvalues --    1.58381   1.58644   1.60952   1.62793   1.64520
  Beta virt. eigenvalues --    1.67819   1.67931   1.70616   1.75043   1.75518
  Beta virt. eigenvalues --    1.77335   1.78949   1.83199   1.84300   1.86523
  Beta virt. eigenvalues --    1.87610   1.91636   1.95131   2.00974   2.02812
  Beta virt. eigenvalues --    2.11467   2.12391   2.14795   2.14966   2.20324
  Beta virt. eigenvalues --    2.22510   2.26414   2.30874   2.36265   2.41054
  Beta virt. eigenvalues --    2.48453   2.49968   2.54359   2.57425   2.62267
  Beta virt. eigenvalues --    2.62358   2.64322   2.66057   2.68556   2.69620
  Beta virt. eigenvalues --    2.72548   2.75673   2.84357   2.84922   2.89094
  Beta virt. eigenvalues --    2.89247   2.94999   2.95981   2.98719   3.04351
  Beta virt. eigenvalues --    3.08261   3.10341   3.15589   3.18499   3.22929
  Beta virt. eigenvalues --    3.27202   3.28025   3.32641   3.35241   3.43823
  Beta virt. eigenvalues --    3.49077   3.63450   3.71381   3.75614   3.83215
  Beta virt. eigenvalues --    3.84519   3.84685   3.96187   4.05765   4.12760
  Beta virt. eigenvalues --    4.16805   4.26841   4.32790   5.09199   5.12342
  Beta virt. eigenvalues --    5.16694   5.33055   5.47799   5.49794   5.75401
  Beta virt. eigenvalues --    5.87520   5.94479  23.68663  23.92769  23.93093
  Beta virt. eigenvalues --   24.04544  24.33421  49.98643  50.04529  50.14151
          Condensed to atoms (all electrons):
               1          2          3          4          5          6
     1  C    6.504616   0.416284  -0.113168  -0.420569   0.101710   0.028795
     2  H    0.416284   0.474691  -0.041743  -0.053588   0.003355  -0.001500
     3  C   -0.113168  -0.041743   7.067970  -0.948606  -0.009565  -0.373683
     4  C   -0.420569  -0.053588  -0.948606   7.604655   0.307952  -0.068505
     5  O    0.101710   0.003355  -0.009565   0.307952   8.079655  -0.166669
     6  O    0.028795  -0.001500  -0.373683  -0.068505  -0.166669   8.648743
     7  C   -0.035863  -0.002919  -0.005236  -0.374053  -0.029193   0.216146
     8  C   -0.004737  -0.000183  -0.088629   0.183963   0.025195  -0.139095
     9  H   -0.003274  -0.000088  -0.007336  -0.001409  -0.013537  -0.040291
    10  H   -0.003274  -0.000088  -0.007336  -0.001408  -0.013537  -0.040292
    11  H   -0.000822   0.000007   0.004133  -0.001947  -0.000656  -0.007676
    12  H   -0.000822   0.000007   0.004133  -0.001947  -0.000656  -0.007676
    13  H   -0.000626  -0.000043  -0.001683   0.000263   0.001003   0.022118
    14  O   -0.270348   0.005626   0.267140  -0.030394   0.000805   0.021292
    15  H    0.060463   0.001643   0.047449  -0.133426  -0.000708   0.023377
               7          8          9         10         11         12
     1  C   -0.035863  -0.004737  -0.003274  -0.003274  -0.000822  -0.000822
     2  H   -0.002919  -0.000183  -0.000088  -0.000088   0.000007   0.000007
     3  C   -0.005236  -0.088629  -0.007336  -0.007336   0.004133   0.004133
     4  C   -0.374053   0.183963  -0.001409  -0.001408  -0.001947  -0.001947
     5  O   -0.029193   0.025195  -0.013537  -0.013537  -0.000656  -0.000656
     6  O    0.216146  -0.139095  -0.040291  -0.040292  -0.007676  -0.007676
     7  C    5.584552  -0.001463   0.434525   0.434525  -0.028271  -0.028271
     8  C   -0.001463   5.512850  -0.048396  -0.048395   0.397916   0.397917
     9  H    0.434525  -0.048396   0.525809  -0.049222   0.005663  -0.009542
    10  H    0.434525  -0.048395  -0.049222   0.525809  -0.009542   0.005663
    11  H   -0.028271   0.397916   0.005663  -0.009542   0.540782  -0.044446
    12  H   -0.028271   0.397917  -0.009542   0.005663  -0.044446   0.540782
    13  H   -0.058016   0.422583  -0.003773  -0.003773  -0.030356  -0.030356
    14  O   -0.005845   0.000455   0.001304   0.001304  -0.000009  -0.000009
    15  H    0.007264  -0.010198   0.000652   0.000652  -0.000009  -0.000009
              13         14         15
     1  C   -0.000626  -0.270348   0.060463
     2  H   -0.000043   0.005626   0.001643
     3  C   -0.001683   0.267140   0.047449
     4  C    0.000263  -0.030394  -0.133426
     5  O    0.001003   0.000805  -0.000708
     6  O    0.022118   0.021292   0.023377
     7  C   -0.058016  -0.005845   0.007264
     8  C    0.422583   0.000455  -0.010198
     9  H   -0.003773   0.001304   0.000652
    10  H   -0.003773   0.001304   0.000652
    11  H   -0.030356  -0.000009  -0.000009
    12  H   -0.030356  -0.000009  -0.000009
    13  H    0.511940   0.000032  -0.000199
    14  O    0.000032   7.948430   0.285384
    15  H   -0.000199   0.285384   0.409131
          Atomic-Atomic Spin Densities.
               1          2          3          4          5          6
     1  C    1.272859   0.015542  -0.065359  -0.116217  -0.013917   0.020998
     2  H    0.015542   0.020760  -0.017276  -0.028984  -0.000276   0.001441
     3  C   -0.065359  -0.017276  -0.075538   0.035107   0.018674  -0.020629
     4  C   -0.116217  -0.028984   0.035107   0.231354   0.007047  -0.029898
     5  O   -0.013917  -0.000276   0.018674   0.007047  -0.029769  -0.010131
     6  O    0.020998   0.001441  -0.020629  -0.029898  -0.010131   0.040889
     7  C   -0.025362  -0.001919   0.032375  -0.011534   0.008626  -0.020374
     8  C   -0.000981   0.000055  -0.012709   0.013896  -0.001358   0.004054
     9  H   -0.000112  -0.000034   0.000556  -0.000180  -0.000070  -0.000009
    10  H   -0.000112  -0.000034   0.000556  -0.000180  -0.000070  -0.000009
    11  H    0.000349   0.000014  -0.000102   0.000388  -0.000097   0.000071
    12  H    0.000349   0.000014  -0.000102   0.000388  -0.000097   0.000071
    13  H   -0.000493  -0.000024   0.000163  -0.000958   0.000186  -0.000295
    14  O    0.000625   0.005187  -0.001338  -0.039464  -0.003183   0.014184
    15  H    0.008552   0.000612   0.010710  -0.014413   0.000354  -0.003909
               7          8          9         10         11         12
     1  C   -0.025362  -0.000981  -0.000112  -0.000112   0.000349   0.000349
     2  H   -0.001919   0.000055  -0.000034  -0.000034   0.000014   0.000014
     3  C    0.032375  -0.012709   0.000556   0.000556  -0.000102  -0.000102
     4  C   -0.011534   0.013896  -0.000180  -0.000180   0.000388   0.000388
     5  O    0.008626  -0.001358  -0.000070  -0.000070  -0.000097  -0.000097
     6  O   -0.020374   0.004054  -0.000009  -0.000009   0.000071   0.000071
     7  C    0.052306  -0.020108  -0.000226  -0.000226  -0.000824  -0.000824
     8  C   -0.020108   0.017825   0.000134   0.000134   0.000025   0.000025
     9  H   -0.000226   0.000134   0.000078  -0.000231   0.000074  -0.000097
    10  H   -0.000226   0.000134  -0.000231   0.000078  -0.000097   0.000074
    11  H   -0.000824   0.000025   0.000074  -0.000097  -0.000004   0.000231
    12  H   -0.000824   0.000025  -0.000097   0.000074   0.000231  -0.000004
    13  H    0.002192  -0.000855   0.000024   0.000024  -0.000257  -0.000257
    14  O   -0.009829   0.001936  -0.000107  -0.000107   0.000084   0.000084
    15  H    0.001088  -0.001892  -0.000023  -0.000023   0.000063   0.000063
              13         14         15
     1  C   -0.000493   0.000625   0.008552
     2  H   -0.000024   0.005187   0.000612
     3  C    0.000163  -0.001338   0.010710
     4  C   -0.000958  -0.039464  -0.014413
     5  O    0.000186  -0.003183   0.000354
     6  O   -0.000295   0.014184  -0.003909
     7  C    0.002192  -0.009829   0.001088
     8  C   -0.000855   0.001936  -0.001892
     9  H    0.000024  -0.000107  -0.000023
    10  H    0.000024  -0.000107  -0.000023
    11  H   -0.000257   0.000084   0.000063
    12  H   -0.000257   0.000084   0.000063
    13  H    0.001189  -0.000106  -0.000089
    14  O   -0.000106   0.022327  -0.011433
    15  H   -0.000089  -0.011433   0.010499
 Mulliken charges and spin densities:
               1          2
     1  C   -0.258365   1.096723
     2  H    0.198540  -0.004922
     3  C    0.206161  -0.094913
     4  C   -0.060980   0.046353
     5  O   -0.285155  -0.024081
     6  O   -0.115083  -0.003547
     7  C   -0.107882   0.005360
     8  C   -0.599782   0.000181
     9  H    0.208914  -0.000225
    10  H    0.208914  -0.000225
    11  H    0.175233  -0.000083
    12  H    0.175233  -0.000083
    13  H    0.170887   0.000443
    14  O   -0.225168  -0.021139
    15  H    0.308533   0.000158
 Sum of Mulliken charges =   0.00000   1.00000
 Mulliken charges and spin densities with hydrogens summed into heavy atoms:
               1          2
     1  C   -0.059826   1.091801
     3  C    0.206161  -0.094913
     4  C   -0.060980   0.046353
     5  O   -0.285155  -0.024081
     6  O   -0.115083  -0.003547
     7  C    0.309946   0.004910
     8  C   -0.078429   0.000457
    14  O    0.083366  -0.020981
 APT charges:
               1
     1  C    0.244201
     2  H    0.566716
     3  C   -0.489576
     4  C   -0.292856
     5  O   -0.172852
     6  O    0.001765
     7  C   -0.643262
     8  C   -1.462010
     9  H    0.408922
    10  H    0.408921
    11  H    0.343988
    12  H    0.343988
    13  H    0.684499
    14  O   -0.248728
    15  H    0.306285
 Sum of APT charges =   0.00000
 APT charges with hydrogens summed into heavy atoms:
               1
     1  C    0.810917
     3  C   -0.489576
     4  C   -0.292856
     5  O   -0.172852
     6  O    0.001765
     7  C    0.174581
     8  C   -0.089534
    14  O    0.057556
 Electronic spatial extent (au):  <R**2>=           1123.8870
 Charge=              0.0000 electrons
 Dipole moment (field-independent basis, Debye):
    X=              3.2263    Y=              0.3427    Z=              0.0000  Tot=              3.2444
 Quadrupole moment (field-independent basis, Debye-Ang):
   XX=            -43.5355   YY=            -52.4837   ZZ=            -47.6330
   XY=              3.8899   XZ=              0.0000   YZ=              0.0000
 Traceless Quadrupole moment (field-independent basis, Debye-Ang):
   XX=              4.3485   YY=             -4.5996   ZZ=              0.2511
   XY=              3.8899   XZ=              0.0000   YZ=              0.0000
 Octapole moment (field-independent basis, Debye-Ang**2):
  XXX=             20.2959  YYY=             10.1921  ZZZ=              0.0000  XYY=              8.9023
  XXY=            -17.9765  XXZ=             -0.0001  XZZ=              5.5772  YZZ=             -0.3145
  YYZ=              0.0001  XYZ=              0.0000
 Hexadecapole moment (field-independent basis, Debye-Ang**3):
 XXXX=          -1086.6280 YYYY=           -335.0317 ZZZZ=            -61.3295 XXXY=             30.9681
 XXXZ=             -0.0003 YYYX=             11.0802 YYYZ=             -0.0007 ZZZX=             -0.0006
 ZZZY=             -0.0007 XXYY=           -241.8970 XXZZ=           -206.0874 YYZZ=            -61.9840
 XXYZ=             -0.0001 YYXZ=             -0.0001 ZZXY=             -0.9941
 N-N= 3.674164709236D+02 E-N=-1.719009255633D+03  KE= 4.188764132565D+02
  Exact polarizability:   0.000   0.000   0.000   0.000   0.000   0.000
 Approx polarizability:  90.988   9.576  83.152   0.000   0.000  58.440
                          Isotropic Fermi Contact Couplings
        Atom                 a.u.       MegaHertz       Gauss      10(-4) cm-1
     1  C(13)              0.41113     462.18599     164.91945     154.16865
     2  H(1)               0.00272      12.15657       4.33777       4.05499
     3  C(13)             -0.02870     -32.25974     -11.51108     -10.76069
     4  C(13)              0.06829      76.77550      27.39541      25.60955
     5  O(17)             -0.00352       2.13184       0.76069       0.71110
     6  O(17)              0.02700     -16.36435      -5.83921      -5.45856
     7  C(13)              0.00281       3.15719       1.12657       1.05313
     8  C(13)              0.00022       0.25071       0.08946       0.08363
     9  H(1)              -0.00019      -0.85355      -0.30457      -0.28471
    10  H(1)              -0.00019      -0.85354      -0.30457      -0.28471
    11  H(1)               0.00001       0.04195       0.01497       0.01399
    12  H(1)               0.00001       0.04195       0.01497       0.01399
    13  H(1)               0.00017       0.77737       0.27739       0.25930
    14  O(17)              0.03442     -20.86714      -7.44591      -6.96053
    15  H(1)               0.00055       2.46452       0.87940       0.82208
 --------------------------------------------------------
       Center         ----  Spin Dipole Couplings  ----
                      3XX-RR        3YY-RR        3ZZ-RR
 --------------------------------------------------------
     1   Atom        0.312179      0.027150     -0.339329
     2   Atom       -0.014068      0.076146     -0.062077
     3   Atom        0.121229      0.063088     -0.184317
     4   Atom        0.030657     -0.008252     -0.022405
     5   Atom        0.060289      0.052916     -0.113205
     6   Atom        0.031799     -0.008761     -0.023038
     7   Atom        0.007441     -0.002891     -0.004550
     8   Atom        0.001840     -0.000812     -0.001028
     9   Atom        0.001750     -0.000929     -0.000821
    10   Atom        0.001750     -0.000929     -0.000821
    11   Atom        0.001047     -0.000472     -0.000575
    12   Atom        0.001047     -0.000472     -0.000575
    13   Atom        0.000913     -0.000409     -0.000504
    14   Atom        0.032294      0.142696     -0.174991
    15   Atom        0.002100      0.002992     -0.005092
 --------------------------------------------------------
                        XY            XZ            YZ
 --------------------------------------------------------
     1   Atom       -0.769131     -0.000003      0.000001
     2   Atom        0.032366      0.000000      0.000001
     3   Atom        0.068421      0.000001      0.000002
     4   Atom       -0.036575      0.000000      0.000000
     5   Atom       -0.002416      0.000000      0.000001
     6   Atom        0.002857      0.000000      0.000000
     7   Atom       -0.003832      0.000000      0.000000
     8   Atom        0.000685      0.000000      0.000000
     9   Atom       -0.000883      0.000620     -0.000555
    10   Atom       -0.000883     -0.000620      0.000555
    11   Atom        0.000458     -0.000299     -0.000158
    12   Atom        0.000458      0.000299      0.000158
    13   Atom        0.000015      0.000000      0.000000
    14   Atom        0.036603      0.000001      0.000002
    15   Atom        0.004002      0.000000      0.000000
 --------------------------------------------------------


 ---------------------------------------------------------------------------------
              Anisotropic Spin Dipole Couplings in Principal Axis System
 ---------------------------------------------------------------------------------

       Atom             a.u.   MegaHertz   Gauss  10(-4) cm-1        Axes

              Baa    -0.6126   -82.199   -29.331   -27.419  0.6395  0.7688  0.0000
     1 C(13)  Bbb    -0.3393   -45.535   -16.248   -15.189  0.0000  0.0000  1.0000
              Bcc     0.9519   127.734    45.579    42.608  0.7688 -0.6395  0.0000
 
              Baa    -0.0621   -33.122   -11.819   -11.048  0.0000  0.0000  1.0000
     2 H(1)   Bbb    -0.0245   -13.061    -4.660    -4.357  0.9520 -0.3062  0.0000
              Bcc     0.0866    46.182    16.479    15.405  0.3062  0.9520  0.0000
 
              Baa    -0.1843   -24.734    -8.826    -8.250  0.0000  0.0000  1.0000
     3 C(13)  Bbb     0.0178     2.391     0.853     0.798 -0.5518  0.8340  0.0000
              Bcc     0.1665    22.343     7.972     7.453  0.8340  0.5518  0.0000
 
              Baa    -0.0302    -4.056    -1.447    -1.353  0.5150  0.8572  0.0000
     4 C(13)  Bbb    -0.0224    -3.007    -1.073    -1.003  0.0000  0.0000  1.0000
              Bcc     0.0526     7.062     2.520     2.356  0.8572 -0.5150  0.0000
 
              Baa    -0.1132     8.191     2.923     2.732  0.0000  0.0000  1.0000
     5 O(17)  Bbb     0.0522    -3.777    -1.348    -1.260  0.2860  0.9582  0.0000
              Bcc     0.0610    -4.415    -1.575    -1.473  0.9582 -0.2860  0.0000
 
              Baa    -0.0230     1.667     0.595     0.556  0.0000  0.0000  1.0000
     6 O(17)  Bbb    -0.0090     0.648     0.231     0.216 -0.0699  0.9976  0.0000
              Bcc     0.0320    -2.315    -0.826    -0.772  0.9976  0.0699  0.0000
 
              Baa    -0.0045    -0.611    -0.218    -0.204  0.0000  0.0000  1.0000
     7 C(13)  Bbb    -0.0042    -0.558    -0.199    -0.186  0.3138  0.9495  0.0000
              Bcc     0.0087     1.168     0.417     0.390  0.9495 -0.3138  0.0000
 
              Baa    -0.0010    -0.138    -0.049    -0.046  0.0000  0.0000  1.0000
     8 C(13)  Bbb    -0.0010    -0.131    -0.047    -0.044 -0.2361  0.9717  0.0000
              Bcc     0.0020     0.269     0.096     0.090  0.9717  0.2361  0.0000
 
              Baa    -0.0015    -0.778    -0.277    -0.259  0.1050  0.7982  0.5932
     9 H(1)   Bbb    -0.0007    -0.399    -0.142    -0.133 -0.3746 -0.5208  0.7671
              Bcc     0.0022     1.176     0.420     0.392  0.9212 -0.3027  0.2443
 
              Baa    -0.0015    -0.778    -0.277    -0.259  0.1050  0.7982 -0.5932
    10 H(1)   Bbb    -0.0007    -0.399    -0.142    -0.133  0.3746  0.5208  0.7671
              Bcc     0.0022     1.176     0.420     0.392  0.9212 -0.3027 -0.2443
 
              Baa    -0.0007    -0.368    -0.131    -0.123 -0.0320  0.6286  0.7770
    11 H(1)   Bbb    -0.0005    -0.290    -0.104    -0.097 -0.3233  0.7291 -0.6032
              Bcc     0.0012     0.659     0.235     0.220  0.9458  0.2705 -0.1799
 
              Baa    -0.0007    -0.368    -0.131    -0.123  0.0320 -0.6286  0.7770
    12 H(1)   Bbb    -0.0005    -0.290    -0.104    -0.097 -0.3233  0.7291  0.6032
              Bcc     0.0012     0.659     0.235     0.220  0.9458  0.2705  0.1799
 
              Baa    -0.0005    -0.269    -0.096    -0.090  0.0000  0.0000  1.0000
    13 H(1)   Bbb    -0.0004    -0.218    -0.078    -0.073 -0.0112  0.9999  0.0000
              Bcc     0.0009     0.487     0.174     0.163  0.9999  0.0112  0.0000
 
              Baa    -0.1750    12.662     4.518     4.224  0.0000  0.0000  1.0000
    14 O(17)  Bbb     0.0213    -1.538    -0.549    -0.513  0.9575 -0.2886  0.0000
              Bcc     0.1537   -11.124    -3.969    -3.710  0.2886  0.9575  0.0000
 
              Baa    -0.0051    -2.717    -0.969    -0.906  0.0000  0.0000  1.0000
    15 H(1)   Bbb    -0.0015    -0.790    -0.282    -0.263  0.7452 -0.6668  0.0000
              Bcc     0.0066     3.507     1.251     1.170  0.6668  0.7452  0.0000
 

 ---------------------------------------------------------------------------------

 Calling FoFJK, ICntrl=    100147 FMM=F ISym2X=0 I1Cent= 0 IOpClX= 1 NMat=1 NMatS=1 NMatT=0.
 ***** Axes restored to original set *****
 -------------------------------------------------------------------
 Center     Atomic                   Forces (Hartrees/Bohr)
 Number     Number              X              Y              Z
 -------------------------------------------------------------------
      1        6           0.000008643   -0.000014882    0.000000003
      2        1          -0.000008971   -0.000002138   -0.000000012
      3        6           0.000013344   -0.000030067    0.000000056
      4        6          -0.000007005    0.000006354   -0.000000006
      5        8          -0.000008039   -0.000021162   -0.000000015
      6        8          -0.000003513    0.000034524   -0.000000140
      7        6           0.000030684   -0.000011732    0.000000573
      8        6          -0.000012037   -0.000008746   -0.000000297
      9        1          -0.000005434    0.000003975   -0.000011282
     10        1          -0.000005540    0.000004058    0.000010947
     11        1           0.000004282    0.000010058   -0.000009139
     12        1           0.000004199    0.000009944    0.000009352
     13        1           0.000006541    0.000003834   -0.000000013
     14        8          -0.000009210    0.000038228   -0.000000026
     15        1          -0.000007944   -0.000022249   -0.000000001
 -------------------------------------------------------------------
 Cartesian Forces:  Max     0.000038228 RMS     0.000012892
 FormGI is forming the generalized inverse of G from B-inverse, IUseBI=4.
 GSVD:  received Info=                   1 from GESDD.

 GradGradGradGradGradGradGradGradGradGradGradGradGradGradGradGradGradGrad
 Berny optimization.
 Internal  Forces:  Max     0.000051424 RMS     0.000014161
 Search for a local minimum.
 Step number   1 out of a maximum of   67
 All quantities printed in internal units (Hartrees-Bohrs-Radians)
 Mixed Optimization -- En-DIIS/RFO-DIIS
 Second derivative matrix not updated -- analytic derivatives used.
 ITU=  0
     Eigenvalues ---    0.00219   0.00294   0.00372   0.00885   0.01535
     Eigenvalues ---    0.01911   0.03406   0.04307   0.04403   0.04765
     Eigenvalues ---    0.06043   0.06858   0.07701   0.09661   0.12155
     Eigenvalues ---    0.12548   0.13239   0.16160   0.16693   0.18712
     Eigenvalues ---    0.20662   0.24337   0.24663   0.25061   0.26412
     Eigenvalues ---    0.32034   0.34029   0.34239   0.34335   0.34452
     Eigenvalues ---    0.34975   0.36958   0.38395   0.43349   0.44968
     Eigenvalues ---    0.48366   0.54433   0.65371   0.93137
 RFO step:  Lambda=-4.51492995D-08 EMin= 2.18568306D-03
 Linear search not attempted -- first point.
 Iteration  1 RMS(Cart)=  0.00015317 RMS(Int)=  0.00000002
 Iteration  2 RMS(Cart)=  0.00000002 RMS(Int)=  0.00000000
 Variable       Old X    -DE/DX   Delta X   Delta X   Delta X     New X
                                 (Linear)    (Quad)   (Total)
    R1        2.03273  -0.00001   0.00000  -0.00001  -0.00001   2.03272
    R2        2.48848   0.00000   0.00000   0.00000   0.00000   2.48848
    R3        2.84286  -0.00001   0.00000   0.00000   0.00000   2.84286
    R4        2.56359   0.00002   0.00000   0.00007   0.00007   2.56366
    R5        2.26355   0.00002   0.00000   0.00001   0.00001   2.26356
    R6        2.54052   0.00000   0.00000   0.00004   0.00004   2.54056
    R7        2.72447  -0.00002   0.00000  -0.00003  -0.00003   2.72444
    R8        2.85365   0.00000   0.00000   0.00002   0.00002   2.85367
    R9        2.06258   0.00001   0.00000   0.00002   0.00002   2.06260
   R10        2.06258   0.00001   0.00000   0.00002   0.00002   2.06260
   R11        2.06159   0.00000   0.00000  -0.00001  -0.00001   2.06158
   R12        2.06159   0.00000   0.00000  -0.00001  -0.00001   2.06158
   R13        2.06219  -0.00001   0.00000  -0.00002  -0.00002   2.06217
   R14        1.82132   0.00001   0.00000   0.00002   0.00002   1.82134
    A1        2.33924  -0.00001   0.00000  -0.00016  -0.00016   2.33908
    A2        2.07442   0.00001   0.00000   0.00001   0.00001   2.07443
    A3        2.15507   0.00004   0.00000   0.00017   0.00017   2.15524
    A4        2.05369  -0.00005   0.00000  -0.00018  -0.00018   2.05352
    A5        2.19229   0.00002   0.00000   0.00007   0.00007   2.19236
    A6        1.92518  -0.00003   0.00000  -0.00006  -0.00006   1.92512
    A7        2.16572   0.00001   0.00000  -0.00001  -0.00001   2.16571
    A8        2.02538  -0.00005   0.00000  -0.00015  -0.00015   2.02523
    A9        1.87688   0.00000   0.00000   0.00001   0.00001   1.87688
   A10        1.88760   0.00000   0.00000   0.00002   0.00002   1.88762
   A11        1.88760   0.00000   0.00000   0.00002   0.00002   1.88762
   A12        1.96157  -0.00001   0.00000  -0.00007  -0.00007   1.96150
   A13        1.96157  -0.00001   0.00000  -0.00007  -0.00007   1.96150
   A14        1.88605   0.00001   0.00000   0.00009   0.00009   1.88614
   A15        1.93438   0.00000   0.00000   0.00002   0.00002   1.93440
   A16        1.93438   0.00000   0.00000   0.00002   0.00002   1.93440
   A17        1.91167   0.00000   0.00000  -0.00001  -0.00001   1.91167
   A18        1.89951  -0.00001   0.00000  -0.00014  -0.00014   1.89937
   A19        1.89143   0.00000   0.00000   0.00005   0.00005   1.89148
   A20        1.89143   0.00000   0.00000   0.00005   0.00005   1.89148
   A21        1.89085  -0.00004   0.00000  -0.00022  -0.00022   1.89063
    D1        0.00000   0.00000   0.00000   0.00000   0.00000   0.00000
    D2        3.14159   0.00000   0.00000   0.00000   0.00000  -3.14159
    D3        0.00000   0.00000   0.00000   0.00000   0.00000   0.00000
    D4        3.14159   0.00000   0.00000   0.00000   0.00000   3.14159
    D5        3.14159   0.00000   0.00000   0.00000   0.00000   3.14159
    D6        0.00000   0.00000   0.00000   0.00000   0.00000   0.00000
    D7       -3.14159   0.00000   0.00000   0.00000   0.00000  -3.14159
    D8        0.00000   0.00000   0.00000   0.00000   0.00000   0.00000
    D9        3.14159   0.00000   0.00000   0.00000   0.00000  -3.14159
   D10        0.00000   0.00000   0.00000   0.00000   0.00000   0.00000
   D11        3.14159   0.00000   0.00000   0.00000   0.00000   3.14159
   D12       -1.01927  -0.00001   0.00000  -0.00007  -0.00007  -1.01933
   D13        1.01926   0.00001   0.00000   0.00006   0.00006   1.01933
   D14       -1.05552   0.00000   0.00000   0.00007   0.00007  -1.05545
   D15        1.05552   0.00000   0.00000  -0.00007  -0.00007   1.05545
   D16       -3.14159   0.00000   0.00000   0.00000   0.00000  -3.14159
   D17       -3.13101   0.00000   0.00000   0.00009   0.00009  -3.13092
   D18       -1.01997   0.00000   0.00000  -0.00006  -0.00006  -1.02003
   D19        1.06611   0.00000   0.00000   0.00001   0.00001   1.06612
   D20        1.01996   0.00000   0.00000   0.00006   0.00006   1.02003
   D21        3.13100   0.00000   0.00000  -0.00008  -0.00008   3.13092
   D22       -1.06611   0.00000   0.00000  -0.00001  -0.00001  -1.06612
         Item               Value     Threshold  Converged?
 Maximum Force            0.000051     0.000015     NO 
 RMS     Force            0.000014     0.000010     NO 
 Maximum Displacement     0.000647     0.000060     NO 
 RMS     Displacement     0.000153     0.000040     NO 
 Predicted change in Energy=-2.257465D-08
 GradGradGradGradGradGradGradGradGradGradGradGradGradGradGradGradGradGrad

                          Input orientation:                          
 ---------------------------------------------------------------------
 Center     Atomic      Atomic             Coordinates (Angstroms)
 Number     Number       Type             X           Y           Z
 ---------------------------------------------------------------------
      1          6           0        2.852808   -0.247751    0.000007
      2          1           0        3.184117   -1.271126    0.000014
      3          6           0        1.670045    0.331177    0.000000
      4          6           0        0.438689   -0.533063    0.000003
      5          8           0        0.427202   -1.730835    0.000008
      6          8           0       -0.667467    0.231036   -0.000002
      7          6           0       -1.924404   -0.475106   -0.000001
      8          6           0       -3.026382    0.557386   -0.000004
      9          1           0       -1.954712   -1.115423   -0.883406
     10          1           0       -1.954713   -1.115418    0.883408
     11          1           0       -2.965937    1.189366    0.887184
     12          1           0       -2.965937    1.189361   -0.887195
     13          1           0       -3.995789    0.056306   -0.000002
     14          8           0        1.495182    1.676490   -0.000009
     15          1           0        0.548820    1.859059   -0.000011
 ---------------------------------------------------------------------
                    Distance matrix (angstroms):
                    1          2          3          4          5
     1  C    0.000000
     2  H    1.075668   0.000000
     3  C    1.316847   2.204493   0.000000
     4  C    2.430920   2.842906   1.504376   0.000000
     5  O    2.843079   2.794980   2.407602   1.197827   0.000000
     6  O    3.552686   4.134149   2.339656   1.344406   2.246605
     7  C    4.782619   5.170168   3.683769   2.363804   2.665878
     8  C    5.934064   6.474083   4.701871   3.632602   4.142849
     9  H    4.964426   5.216535   4.001490   2.616854   2.613937
    10  H    4.964424   5.216532   4.001489   2.616852   2.613935
    11  H    6.058893   6.683132   4.797490   3.917312   4.563776
    12  H    6.058895   6.683135   4.797491   3.917313   4.563777
    13  H    6.855344   7.301584   5.672497   4.473472   4.770401
    14  O    2.354964   3.397197   1.356630   2.449143   3.570776
    15  H    3.122020   4.091802   1.895143   2.394655   3.591953
                    6          7          8          9         10
     6  O    0.000000
     7  C    1.441709   0.000000
     8  C    2.381382   1.510097   0.000000
     9  H    2.061639   1.091481   2.174204   0.000000
    10  H    2.061639   1.091481   2.174204   1.766814   0.000000
    11  H    2.643569   2.154612   1.090942   3.077274   2.516867
    12  H    2.643570   2.154613   1.090942   2.516867   3.077274
    13  H    3.332905   2.138466   1.091252   2.513831   2.513831
    14  O    2.601229   4.040165   4.657997   4.525146   4.525147
    15  H    2.032195   3.400759   3.804789   3.986929   3.986931
                   11         12         13         14         15
    11  H    0.000000
    12  H    1.774379   0.000000
    13  H    1.769610   1.769610   0.000000
    14  O    4.574492   4.574492   5.725012   0.000000
    15  H    3.686342   3.686341   4.889109   0.963811   0.000000
 Stoichiometry    C5H7O3(2)
 Framework group  C1[X(C5H7O3)]
 Deg. of freedom    39
 Full point group                 C1      NOp   1
 Largest Abelian subgroup         C1      NOp   1
 Largest concise Abelian subgroup C1      NOp   1
                         Standard orientation:                         
 ---------------------------------------------------------------------
 Center     Atomic      Atomic             Coordinates (Angstroms)
 Number     Number       Type             X           Y           Z
 ---------------------------------------------------------------------
      1          6           0       -2.852818   -0.247719   -0.000007
      2          1           0       -3.184147   -1.271088   -0.000014
      3          6           0       -1.670043    0.331185    0.000000
      4          6           0       -0.438704   -0.533079   -0.000003
      5          8           0       -0.427241   -1.730851   -0.000008
      6          8           0        0.667467    0.230998    0.000002
      7          6           0        1.924390   -0.475169    0.000001
      8          6           0        3.026388    0.557301    0.000004
      9          1           0        1.954686   -1.115487    0.883406
     10          1           0        1.954686   -1.115482   -0.883408
     11          1           0        2.965956    1.189283   -0.887184
     12          1           0        2.965956    1.189277    0.887195
     13          1           0        3.995786    0.056202    0.000002
     14          8           0       -1.495153    1.676495    0.000009
     15          1           0       -0.548788    1.859045    0.000011
 ---------------------------------------------------------------------
 Rotational constants (GHZ):      4.2425190      1.3023375      1.0090253
 Standard basis: 6-311++G(d,p) (5D, 7F)
 There are   233 symmetry adapted cartesian basis functions of A   symmetry.
 There are   225 symmetry adapted basis functions of A   symmetry.
   225 basis functions,   351 primitive gaussians,   233 cartesian basis functions
    31 alpha electrons       30 beta electrons
       nuclear repulsion energy       367.4208015811 Hartrees.
 NAtoms=   15 NActive=   15 NUniq=   15 SFac= 1.00D+00 NAtFMM=   60 NAOKFM=F Big=F
 Integral buffers will be    262144 words long.
 Raffenetti 2 integral format.
 Two-electron integral symmetry is turned on.
 One-electron integrals computed using PRISM.
 NBasis=   225 RedAO= T EigKep=  1.90D-05  NBF=   225
 NBsUse=   225 1.00D-06 EigRej= -1.00D+00 NBFU=   225
 Initial guess from the checkpoint file:  "ethyl_propiolate.chk"
 B after Tr=     0.000000    0.000000    0.000000
         Rot=    1.000000    0.000000    0.000000    0.000011 Ang=   0.00 deg.
 Initial guess <Sx>= 0.0000 <Sy>= 0.0000 <Sz>= 0.5000 <S**2>= 0.7752 S= 0.5125
 Requested convergence on RMS density matrix=1.00D-08 within 128 cycles.
 Requested convergence on MAX density matrix=1.00D-06.
 Requested convergence on             energy=1.00D-06.
 No special actions if energy rises.
 SCF Done:  E(UM062X) =  -420.270641259     A.U. after    7 cycles
            NFock=  7  Conv=0.59D-08     -V/T= 2.0033
 <Sx>= 0.0000 <Sy>= 0.0000 <Sz>= 0.5000 <S**2>= 0.7752 S= 0.5125
 <L.S>= 0.000000000000E+00
 Annihilation of the first spin contaminant:
 S**2 before annihilation     0.7752,   after     0.7501
 Calling FoFJK, ICntrl=      2127 FMM=F ISym2X=0 I1Cent= 0 IOpClX= 1 NMat=1 NMatS=1 NMatT=0.
 ***** Axes restored to original set *****
 -------------------------------------------------------------------
 Center     Atomic                   Forces (Hartrees/Bohr)
 Number     Number              X              Y              Z
 -------------------------------------------------------------------
      1        6          -0.000000738   -0.000004670    0.000000000
      2        1          -0.000001677   -0.000005387    0.000000000
      3        6           0.000000842   -0.000003021    0.000000001
      4        6          -0.000000630   -0.000001263    0.000000001
      5        8          -0.000002621   -0.000001603    0.000000000
      6        8           0.000000263    0.000000070   -0.000000001
      7        6          -0.000000732    0.000001864    0.000000001
      8        6           0.000000723    0.000003413    0.000000000
      9        1          -0.000001644    0.000001927    0.000000045
     10        1          -0.000001644    0.000001928   -0.000000045
     11        1           0.000001623    0.000003317    0.000000019
     12        1           0.000001623    0.000003317   -0.000000019
     13        1           0.000000019    0.000004773    0.000000000
     14        8           0.000002185   -0.000003045   -0.000000001
     15        1           0.000002409   -0.000001622    0.000000000
 -------------------------------------------------------------------
 Cartesian Forces:  Max     0.000005387 RMS     0.000001984

 GradGradGradGradGradGradGradGradGradGradGradGradGradGradGradGradGradGrad
 Berny optimization.
 Using GEDIIS/GDIIS optimizer.
 FormGI is forming the generalized inverse of G from B-inverse, IUseBI=4.
 GSVD:  received Info=                   1 from GESDD.
 Internal  Forces:  Max     0.000000523 RMS     0.000000141
 Search for a local minimum.
 Step number   2 out of a maximum of   67
 All quantities printed in internal units (Hartrees-Bohrs-Radians)
 Mixed Optimization -- En-DIIS/RFO-DIIS
 Swapping is turned off.
 Update second derivatives using D2CorX and points    1    2
 DE= -1.78D-08 DEPred=-2.26D-08 R= 7.91D-01
 Trust test= 7.91D-01 RLast= 5.12D-04 DXMaxT set to 3.00D-01
 ITU=  0  0
     Eigenvalues ---    0.00219   0.00294   0.00372   0.00885   0.01535
     Eigenvalues ---    0.01911   0.03406   0.04306   0.04403   0.04765
     Eigenvalues ---    0.06043   0.06858   0.07714   0.09662   0.12155
     Eigenvalues ---    0.12549   0.13245   0.16145   0.16693   0.18706
     Eigenvalues ---    0.20665   0.24313   0.24692   0.24952   0.26445
     Eigenvalues ---    0.32044   0.34048   0.34239   0.34338   0.34452
     Eigenvalues ---    0.34976   0.36960   0.38400   0.43304   0.44978
     Eigenvalues ---    0.48348   0.54422   0.65380   0.93120
 En-DIIS/RFO-DIIS IScMMF=        0 using points:     2    1
 RFO step:  Lambda=-2.14596930D-12.
 DidBck=F Rises=F RFO-DIIS coefs:    1.00215   -0.00215
 Iteration  1 RMS(Cart)=  0.00000373 RMS(Int)=  0.00000000
 Iteration  2 RMS(Cart)=  0.00000000 RMS(Int)=  0.00000000
 Variable       Old X    -DE/DX   Delta X   Delta X   Delta X     New X
                                 (Linear)    (Quad)   (Total)
    R1        2.03272   0.00000   0.00000   0.00000   0.00000   2.03272
    R2        2.48848   0.00000   0.00000   0.00000   0.00000   2.48848
    R3        2.84286   0.00000   0.00000   0.00000   0.00000   2.84286
    R4        2.56366   0.00000   0.00000   0.00000   0.00000   2.56366
    R5        2.26356   0.00000   0.00000   0.00000   0.00000   2.26356
    R6        2.54056   0.00000   0.00000   0.00000   0.00000   2.54056
    R7        2.72444   0.00000   0.00000   0.00000   0.00000   2.72444
    R8        2.85367   0.00000   0.00000   0.00000   0.00000   2.85367
    R9        2.06260   0.00000   0.00000   0.00000   0.00000   2.06260
   R10        2.06260   0.00000   0.00000   0.00000   0.00000   2.06260
   R11        2.06158   0.00000   0.00000   0.00000   0.00000   2.06158
   R12        2.06158   0.00000   0.00000   0.00000   0.00000   2.06158
   R13        2.06217   0.00000   0.00000   0.00000   0.00000   2.06217
   R14        1.82134   0.00000   0.00000   0.00000   0.00000   1.82134
    A1        2.33908   0.00000   0.00000   0.00000   0.00000   2.33908
    A2        2.07443   0.00000   0.00000   0.00000   0.00000   2.07443
    A3        2.15524   0.00000   0.00000   0.00000   0.00000   2.15524
    A4        2.05352   0.00000   0.00000   0.00000   0.00000   2.05351
    A5        2.19236   0.00000   0.00000   0.00000   0.00000   2.19236
    A6        1.92512   0.00000   0.00000   0.00000   0.00000   1.92511
    A7        2.16571   0.00000   0.00000   0.00000   0.00000   2.16571
    A8        2.02523   0.00000   0.00000   0.00000   0.00000   2.02524
    A9        1.87688   0.00000   0.00000   0.00000   0.00000   1.87688
   A10        1.88762   0.00000   0.00000   0.00000   0.00000   1.88762
   A11        1.88762   0.00000   0.00000   0.00000   0.00000   1.88762
   A12        1.96150   0.00000   0.00000   0.00000   0.00000   1.96150
   A13        1.96150   0.00000   0.00000   0.00000   0.00000   1.96150
   A14        1.88614   0.00000   0.00000   0.00000   0.00000   1.88614
   A15        1.93440   0.00000   0.00000   0.00000   0.00000   1.93440
   A16        1.93440   0.00000   0.00000   0.00000   0.00000   1.93440
   A17        1.91167   0.00000   0.00000   0.00000   0.00000   1.91167
   A18        1.89937   0.00000   0.00000   0.00000   0.00000   1.89937
   A19        1.89148   0.00000   0.00000   0.00000   0.00000   1.89148
   A20        1.89148   0.00000   0.00000   0.00000   0.00000   1.89148
   A21        1.89063   0.00000   0.00000   0.00000   0.00000   1.89063
    D1        0.00000   0.00000   0.00000   0.00000   0.00000   0.00000
    D2       -3.14159   0.00000   0.00000   0.00000   0.00000  -3.14159
    D3        0.00000   0.00000   0.00000   0.00000   0.00000   0.00000
    D4        3.14159   0.00000   0.00000   0.00000   0.00000   3.14159
    D5        3.14159   0.00000   0.00000   0.00000   0.00000   3.14159
    D6        0.00000   0.00000   0.00000   0.00000   0.00000   0.00000
    D7       -3.14159   0.00000   0.00000   0.00000   0.00000  -3.14159
    D8        0.00000   0.00000   0.00000   0.00000   0.00000   0.00000
    D9       -3.14159   0.00000   0.00000   0.00000   0.00000  -3.14159
   D10        0.00000   0.00000   0.00000   0.00000   0.00000   0.00000
   D11        3.14159   0.00000   0.00000   0.00000   0.00000   3.14159
   D12       -1.01933   0.00000   0.00000   0.00000   0.00000  -1.01933
   D13        1.01933   0.00000   0.00000   0.00000   0.00000   1.01933
   D14       -1.05545   0.00000   0.00000   0.00000   0.00000  -1.05545
   D15        1.05545   0.00000   0.00000   0.00000   0.00000   1.05545
   D16       -3.14159   0.00000   0.00000   0.00000   0.00000  -3.14159
   D17       -3.13092   0.00000   0.00000   0.00000   0.00000  -3.13092
   D18       -1.02003   0.00000   0.00000   0.00000   0.00000  -1.02003
   D19        1.06612   0.00000   0.00000   0.00000   0.00000   1.06612
   D20        1.02003   0.00000   0.00000   0.00000   0.00000   1.02003
   D21        3.13092   0.00000   0.00000   0.00000   0.00000   3.13092
   D22       -1.06612   0.00000   0.00000   0.00000   0.00000  -1.06612
         Item               Value     Threshold  Converged?
 Maximum Force            0.000001     0.000015     YES
 RMS     Force            0.000000     0.000010     YES
 Maximum Displacement     0.000011     0.000060     YES
 RMS     Displacement     0.000004     0.000040     YES
 Predicted change in Energy=-2.182670D-12
 Optimization completed.
    -- Stationary point found.
                           ----------------------------
                           !   Optimized Parameters   !
                           ! (Angstroms and Degrees)  !
 --------------------------                            --------------------------
 ! Name  Definition              Value          Derivative Info.                !
 --------------------------------------------------------------------------------
 ! R1    R(1,2)                  1.0757         -DE/DX =    0.0                 !
 ! R2    R(1,3)                  1.3168         -DE/DX =    0.0                 !
 ! R3    R(3,4)                  1.5044         -DE/DX =    0.0                 !
 ! R4    R(3,14)                 1.3566         -DE/DX =    0.0                 !
 ! R5    R(4,5)                  1.1978         -DE/DX =    0.0                 !
 ! R6    R(4,6)                  1.3444         -DE/DX =    0.0                 !
 ! R7    R(6,7)                  1.4417         -DE/DX =    0.0                 !
 ! R8    R(7,8)                  1.5101         -DE/DX =    0.0                 !
 ! R9    R(7,9)                  1.0915         -DE/DX =    0.0                 !
 ! R10   R(7,10)                 1.0915         -DE/DX =    0.0                 !
 ! R11   R(8,11)                 1.0909         -DE/DX =    0.0                 !
 ! R12   R(8,12)                 1.0909         -DE/DX =    0.0                 !
 ! R13   R(8,13)                 1.0913         -DE/DX =    0.0                 !
 ! R14   R(14,15)                0.9638         -DE/DX =    0.0                 !
 ! A1    A(2,1,3)              134.0193         -DE/DX =    0.0                 !
 ! A2    A(1,3,4)              118.8561         -DE/DX =    0.0                 !
 ! A3    A(1,3,14)             123.4861         -DE/DX =    0.0                 !
 ! A4    A(4,3,14)             117.6578         -DE/DX =    0.0                 !
 ! A5    A(3,4,5)              125.613          -DE/DX =    0.0                 !
 ! A6    A(3,4,6)              110.301          -DE/DX =    0.0                 !
 ! A7    A(5,4,6)              124.0861         -DE/DX =    0.0                 !
 ! A8    A(4,6,7)              116.0374         -DE/DX =    0.0                 !
 ! A9    A(6,7,8)              107.5375         -DE/DX =    0.0                 !
 ! A10   A(6,7,9)              108.1525         -DE/DX =    0.0                 !
 ! A11   A(6,7,10)             108.1525         -DE/DX =    0.0                 !
 ! A12   A(8,7,9)              112.3859         -DE/DX =    0.0                 !
 ! A13   A(8,7,10)             112.3859         -DE/DX =    0.0                 !
 ! A14   A(9,7,10)             108.068          -DE/DX =    0.0                 !
 ! A15   A(7,8,11)             110.8331         -DE/DX =    0.0                 !
 ! A16   A(7,8,12)             110.8331         -DE/DX =    0.0                 !
 ! A17   A(7,8,13)             109.5304         -DE/DX =    0.0                 !
 ! A18   A(11,8,12)            108.8259         -DE/DX =    0.0                 !
 ! A19   A(11,8,13)            108.3741         -DE/DX =    0.0                 !
 ! A20   A(12,8,13)            108.3741         -DE/DX =    0.0                 !
 ! A21   A(3,14,15)            108.3249         -DE/DX =    0.0                 !
 ! D1    D(2,1,3,4)              0.0            -DE/DX =    0.0                 !
 ! D2    D(2,1,3,14)          -180.0            -DE/DX =    0.0                 !
 ! D3    D(1,3,4,5)             -0.0001         -DE/DX =    0.0                 !
 ! D4    D(1,3,4,6)            179.9999         -DE/DX =    0.0                 !
 ! D5    D(14,3,4,5)           179.9999         -DE/DX =    0.0                 !
 ! D6    D(14,3,4,6)            -0.0001         -DE/DX =    0.0                 !
 ! D7    D(1,3,14,15)         -179.9999         -DE/DX =    0.0                 !
 ! D8    D(4,3,14,15)            0.0001         -DE/DX =    0.0                 !
 ! D9    D(3,4,6,7)           -180.0            -DE/DX =    0.0                 !
 ! D10   D(5,4,6,7)              0.0            -DE/DX =    0.0                 !
 ! D11   D(4,6,7,8)            179.9999         -DE/DX =    0.0                 !
 ! D12   D(4,6,7,9)            -58.4034         -DE/DX =    0.0                 !
 ! D13   D(4,6,7,10)            58.4032         -DE/DX =    0.0                 !
 ! D14   D(6,7,8,11)           -60.4726         -DE/DX =    0.0                 !
 ! D15   D(6,7,8,12)            60.4727         -DE/DX =    0.0                 !
 ! D16   D(6,7,8,13)          -180.0            -DE/DX =    0.0                 !
 ! D17   D(9,7,8,11)          -179.3885         -DE/DX =    0.0                 !
 ! D18   D(9,7,8,12)           -58.4432         -DE/DX =    0.0                 !
 ! D19   D(9,7,8,13)            61.0842         -DE/DX =    0.0                 !
 ! D20   D(10,7,8,11)           58.4432         -DE/DX =    0.0                 !
 ! D21   D(10,7,8,12)          179.3885         -DE/DX =    0.0                 !
 ! D22   D(10,7,8,13)          -61.0841         -DE/DX =    0.0                 !
 --------------------------------------------------------------------------------
 GradGradGradGradGradGradGradGradGradGradGradGradGradGradGradGradGradGrad

                          Input orientation:                          
 ---------------------------------------------------------------------
 Center     Atomic      Atomic             Coordinates (Angstroms)
 Number     Number       Type             X           Y           Z
 ---------------------------------------------------------------------
      1          6           0        2.852808   -0.247751    0.000007
      2          1           0        3.184117   -1.271126    0.000014
      3          6           0        1.670045    0.331177    0.000000
      4          6           0        0.438689   -0.533063    0.000003
      5          8           0        0.427202   -1.730835    0.000008
      6          8           0       -0.667467    0.231036   -0.000002
      7          6           0       -1.924404   -0.475106   -0.000001
      8          6           0       -3.026382    0.557386   -0.000004
      9          1           0       -1.954712   -1.115423   -0.883406
     10          1           0       -1.954713   -1.115418    0.883408
     11          1           0       -2.965937    1.189366    0.887184
     12          1           0       -2.965937    1.189361   -0.887195
     13          1           0       -3.995789    0.056306   -0.000002
     14          8           0        1.495182    1.676490   -0.000009
     15          1           0        0.548820    1.859059   -0.000011
 ---------------------------------------------------------------------
                    Distance matrix (angstroms):
                    1          2          3          4          5
     1  C    0.000000
     2  H    1.075668   0.000000
     3  C    1.316847   2.204493   0.000000
     4  C    2.430920   2.842906   1.504376   0.000000
     5  O    2.843079   2.794980   2.407602   1.197827   0.000000
     6  O    3.552686   4.134149   2.339656   1.344406   2.246605
     7  C    4.782619   5.170168   3.683769   2.363804   2.665878
     8  C    5.934064   6.474083   4.701871   3.632602   4.142849
     9  H    4.964426   5.216535   4.001490   2.616854   2.613937
    10  H    4.964424   5.216532   4.001489   2.616852   2.613935
    11  H    6.058893   6.683132   4.797490   3.917312   4.563776
    12  H    6.058895   6.683135   4.797491   3.917313   4.563777
    13  H    6.855344   7.301584   5.672497   4.473472   4.770401
    14  O    2.354964   3.397197   1.356630   2.449143   3.570776
    15  H    3.122020   4.091802   1.895143   2.394655   3.591953
                    6          7          8          9         10
     6  O    0.000000
     7  C    1.441709   0.000000
     8  C    2.381382   1.510097   0.000000
     9  H    2.061639   1.091481   2.174204   0.000000
    10  H    2.061639   1.091481   2.174204   1.766814   0.000000
    11  H    2.643569   2.154612   1.090942   3.077274   2.516867
    12  H    2.643570   2.154613   1.090942   2.516867   3.077274
    13  H    3.332905   2.138466   1.091252   2.513831   2.513831
    14  O    2.601229   4.040165   4.657997   4.525146   4.525147
    15  H    2.032195   3.400759   3.804789   3.986929   3.986931
                   11         12         13         14         15
    11  H    0.000000
    12  H    1.774379   0.000000
    13  H    1.769610   1.769610   0.000000
    14  O    4.574492   4.574492   5.725012   0.000000
    15  H    3.686342   3.686341   4.889109   0.963811   0.000000
 Stoichiometry    C5H7O3(2)
 Framework group  C1[X(C5H7O3)]
 Deg. of freedom    39
 Full point group                 C1      NOp   1
 Largest Abelian subgroup         C1      NOp   1
 Largest concise Abelian subgroup C1      NOp   1
                         Standard orientation:                         
 ---------------------------------------------------------------------
 Center     Atomic      Atomic             Coordinates (Angstroms)
 Number     Number       Type             X           Y           Z
 ---------------------------------------------------------------------
      1          6           0       -2.852818   -0.247719   -0.000007
      2          1           0       -3.184147   -1.271088   -0.000014
      3          6           0       -1.670043    0.331185    0.000000
      4          6           0       -0.438704   -0.533079   -0.000003
      5          8           0       -0.427241   -1.730851   -0.000008
      6          8           0        0.667467    0.230998    0.000002
      7          6           0        1.924390   -0.475169    0.000001
      8          6           0        3.026388    0.557301    0.000004
      9          1           0        1.954686   -1.115487    0.883406
     10          1           0        1.954686   -1.115482   -0.883408
     11          1           0        2.965956    1.189283   -0.887184
     12          1           0        2.965956    1.189277    0.887195
     13          1           0        3.995786    0.056202    0.000002
[...]
 ! R4    R(3,14)                 1.3566         -DE/DX =    0.0                 !
 ! R5    R(4,5)                  1.1978         -DE/DX =    0.0                 !
 ! R6    R(4,6)                  1.3444         -DE/DX =    0.0                 !
 ! R7    R(6,7)                  1.4417         -DE/DX =    0.0                 !
 ! R8    R(7,8)                  1.5101         -DE/DX =    0.0                 !
 ! R9    R(7,9)                  1.0915         -DE/DX =    0.0                 !
 ! R10   R(7,10)                 1.0915         -DE/DX =    0.0                 !
 ! R11   R(8,11)                 1.0909         -DE/DX =    0.0                 !
 ! R12   R(8,12)                 1.0909         -DE/DX =    0.0                 !
 ! R13   R(8,13)                 1.0913         -DE/DX =    0.0                 !
 ! R14   R(14,15)                0.9638         -DE/DX =    0.0                 !
 ! A1    A(2,1,3)              134.0193         -DE/DX =    0.0                 !
 ! A2    A(1,3,4)              118.8561         -DE/DX =    0.0                 !
 ! A3    A(1,3,14)             123.4861         -DE/DX =    0.0                 !
 ! A4    A(4,3,14)             117.6578         -DE/DX =    0.0                 !
 ! A5    A(3,4,5)              125.613          -DE/DX =    0.0                 !
 ! A6    A(3,4,6)              110.301          -DE/DX =    0.0                 !
 ! A7    A(5,4,6)              124.0861         -DE/DX =    0.0                 !
 ! A8    A(4,6,7)              116.0374         -DE/DX =    0.0                 !
 ! A9    A(6,7,8)              107.5375         -DE/DX =    0.0                 !
 ! A10   A(6,7,9)              108.1525         -DE/DX =    0.0                 !
 ! A11   A(6,7,10)             108.1525         -DE/DX =    0.0                 !
 ! A12   A(8,7,9)              112.3859         -DE/DX =    0.0                 !
 ! A13   A(8,7,10)             112.3859         -DE/DX =    0.0                 !
 ! A14   A(9,7,10)             108.068          -DE/DX =    0.0                 !
 ! A15   A(7,8,11)             110.8331         -DE/DX =    0.0                 !
 ! A16   A(7,8,12)             110.8331         -DE/DX =    0.0                 !
 ! A17   A(7,8,13)             109.5304         -DE/DX =    0.0                 !
 ! A18   A(11,8,12)            108.8259         -DE/DX =    0.0                 !
 ! A19   A(11,8,13)            108.3741         -DE/DX =    0.0                 !
 ! A20   A(12,8,13)            108.3741         -DE/DX =    0.0                 !
 ! A21   A(3,14,15)            108.3249         -DE/DX =    0.0                 !
 ! D1    D(2,1,3,4)              0.0            -DE/DX =    0.0                 !
 ! D2    D(2,1,3,14)          -180.0            -DE/DX =    0.0                 !
 ! D3    D(1,3,4,5)             -0.0001         -DE/DX =    0.0                 !
 ! D4    D(1,3,4,6)            179.9999         -DE/DX =    0.0                 !
 ! D5    D(14,3,4,5)           179.9999         -DE/DX =    0.0                 !
 ! D6    D(14,3,4,6)            -0.0001         -DE/DX =    0.0                 !
 ! D7    D(1,3,14,15)         -179.9999         -DE/DX =    0.0                 !
 ! D8    D(4,3,14,15)            0.0001         -DE/DX =    0.0                 !
 ! D9    D(3,4,6,7)           -180.0            -DE/DX =    0.0                 !
 ! D10   D(5,4,6,7)              0.0            -DE/DX =    0.0                 !
 ! D11   D(4,6,7,8)            179.9999         -DE/DX =    0.0                 !
 ! D12   D(4,6,7,9)            -58.4034         -DE/DX =    0.0                 !
 ! D13   D(4,6,7,10)            58.4032         -DE/DX =    0.0                 !
 ! D14   D(6,7,8,11)           -60.4726         -DE/DX =    0.0                 !
 ! D15   D(6,7,8,12)            60.4727         -DE/DX =    0.0                 !
 ! D16   D(6,7,8,13)          -180.0            -DE/DX =    0.0                 !
 ! D17   D(9,7,8,11)          -179.3885         -DE/DX =    0.0                 !
 ! D18   D(9,7,8,12)           -58.4432         -DE/DX =    0.0                 !
 ! D19   D(9,7,8,13)            61.0842         -DE/DX =    0.0                 !
 ! D20   D(10,7,8,11)           58.4432         -DE/DX =    0.0                 !
 ! D21   D(10,7,8,12)          179.3885         -DE/DX =    0.0                 !
 ! D22   D(10,7,8,13)          -61.0841         -DE/DX =    0.0                 !
 --------------------------------------------------------------------------------
 GradGradGradGradGradGradGradGradGradGradGradGradGradGradGradGradGradGrad

 1|1|UNPC-DIT|Freq|UM062X|6-311++G(d,p)|C5H7O3(2)|NDITM|23-Jan-2025|0||
 #N Geom=AllCheck Guess=TCheck SCRF=Check GenChk UM062X/6-311++G(d,p) F
 req||Title Card Required||0,2|C,2.8528081523,-0.2477510519,0.000006807
 8|H,3.1841170272,-1.2711261436,0.0000137971|C,1.6700447344,0.331176752
 3,0.0000001241|C,0.4386890731,-0.5330630611,0.0000025412|O,0.427202328
 3,-1.7308345083,0.0000080257|O,-0.6674671876,0.2310355076,-0.000002232
 |C,-1.9244039684,-0.4751060431,-0.000000542|C,-3.0263817299,0.55738577
 35,-0.0000039232|H,-1.9547124054,-1.1154234237,-0.8834057576|H,-1.9547
 129439,-1.1154183149,0.8834083411|H,-2.9659367583,1.1893664402,0.88718
 35955|H,-2.9659365787,1.1893609278,-0.8871953569|H,-3.9957891062,0.056
 3062145,-0.000002469|O,1.4951819521,1.6764903708,-0.0000087201|H,0.548
 8204109,1.8590585598,-0.0000112319||Version=IA32W-G09RevD.01|State=2-A
 |HF=-420.2706413|S2=0.775175|S2-1=0.|S2A=0.750137|RMSD=3.028e-009|RMSF
 =1.984e-006|ZeroPoint=0.1162091|Thermal=0.1250441|Dipole=-1.2691654,0.
 1344605,-0.0000015|DipoleDeriv=-0.2461378,0.2313126,0.0000063,-0.08731
 67,-0.2225212,0.0000091,0.0000185,0.0000112,-0.2317189,0.1698058,-0.06
 47028,0.0000077,0.011676,0.1021624,-0.0000111,-0.0000061,-0.0000019,0.
 2220046,-0.2029584,-0.3515576,-0.0000155,-0.5878815,1.0725885,-0.00001
 54,0.0000212,0.0000022,0.0229327,2.1747065,-0.2310083,0.0000204,-0.205
 8937,1.4306298,-0.0000173,-0.000005,-0.0000129,0.3219372,-0.7438516,-0
 .0958805,-0.000005,-0.0257509,-1.1549983,0.0000112,-0.0000045,0.000001
 4,-0.3375617,-2.0234135,0.3154468,-0.0000131,0.1954946,-0.7546192,0.00
 00059,0.0000145,0.000013,-0.2843796,1.0680436,-0.0044073,0.0000017,0.2
 19994,0.2995815,-0.0000075,-0.0000449,-0.0000259,0.3000362,-0.0774215,
 0.0376815,-0.0000033,0.0452547,0.0138646,-0.0000018,0.000049,0.0000299
 ,0.062331,-0.04445,0.0383542,0.0369573,-0.0488733,0.0091477,-0.0515084
 ,-0.007787,-0.0696338,-0.0372862,-0.0444604,0.0383476,-0.0369578,-0.04
 88807,0.0091444,0.0515174,0.0077971,0.069639,-0.0373024,0.0702779,-0.0
 105096,-0.0349535,0.040488,0.0043964,-0.0643223,-0.0077326,-0.0837801,
 -0.0409687,0.0702818,-0.0105067,0.0349498,0.0405107,0.0044114,0.064319
 9,0.0076915,0.0837549,-0.0409729,-0.0795255,-0.0378733,0.0000077,-0.06
 68439,0.0214297,0.0000038,0.0000014,0.000001,0.0913144,-0.4828095,0.15
 20604,0.0000012,0.4964594,-1.2093012,0.0000124,-0.0000066,0.0000056,-0
 .3409583,0.3919128,-0.0067571,-0.0000038,0.0215634,0.3740834,0.0000041
 ,-0.0000066,-0.0000038,0.3305928|Polar=91.5132448,-7.322044,67.0676547
 ,0.0010041,0.0003926,48.2500605|PG=C01 [X(C5H7O3)]|NImag=0||0.57010709
 ,-0.32555689,0.54857802,0.00000310,-0.00000403,0.03798011,-0.05902058,
 0.08722968,-0.00000066,0.05931994,0.12229269,-0.34454475,0.00000246,-0
 .11314942,0.34345343,-0.00000062,0.00000224,-0.01940841,0.00000076,-0.
 00000233,0.01554834,-0.45856975,0.20564998,-0.00000200,0.00072675,-0.0
 1129211,-0.00000010,0.75364359,0.17021481,-0.16994119,0.00000135,0.028
 17202,0.00075574,0.,-0.18782604,0.65188042,-0.00000232,0.00000111,-0.0
 3549806,-0.00000033,0.00000021,-0.00144186,0.00000298,-0.00000341,0.12
 024984,-0.03864284,-0.00432898,-0.00000046,0.00121078,0.00176082,0.000
 00009,-0.14067787,-0.07543087,0.00000001,0.57245092,0.00165418,0.01346
 622,0.00000032,-0.00060150,-0.00070249,-0.00000003,-0.01803370,-0.1044
 4229,0.00000035,0.02338384,1.04743418,-0.00000036,-0.00000010,0.015833
 25,0.,0.,-0.00203653,0.00000012,0.00000005,-0.08111967,0.00000053,-0.0
 0000415,0.19692368,-0.00224384,-0.00326705,0.00000012,-0.00043269,-0.0
 0147000,-0.00000002,0.00691820,-0.02702394,0.00000021,-0.11205708,-0.0
 2599673,0.,0.11305690,0.00547252,-0.00329774,-0.00000014,-0.00081761,-
 0.00066655,0.00000001,-0.02600340,-0.03963262,0.00000006,-0.02614077,-
 0.77286457,0.00000318,-0.00435105,0.90285349,0.00000004,0.00000008,-0.
 00057524,0.00000005,-0.00000008,-0.00050348,0.,0.00000018,0.01785526,0
 .00000015,0.00000295,-0.07734983,0.00000008,-0.00000377,0.03500718,-0.
 00488153,-0.00785433,0.00000024,0.00201415,0.00045585,-0.00000003,-0.0
 5566747,0.02208591,0.,-0.23097720,0.05916876,-0.00000061,-0.00361329,0
 .06579361,-0.00000037,0.53509740,-0.00536505,0.00057293,-0.00000008,-0
 .00003208,0.00024098,0.00000003,-0.00757725,0.00200806,0.,0.04808704,-
 0.15843209,0.00000047,0.06504379,-0.07971351,0.00000059,-0.02194668,0.
 37883374,-0.00000006,-0.00000015,-0.00027137,-0.00000012,0.00000020,-0
 .00013290,0.00000021,0.00000021,0.01246507,-0.00000070,0.00000079,-0.0
 6533037,-0.00000024,0.00000038,0.02861925,0.00000079,-0.00000142,0.079
 07703,-0.00036550,0.00036020,-0.00000004,-0.00023528,0.00005664,-0.000
 00003,0.00319396,0.00366093,-0.00000002,-0.06530112,0.01068593,0.00000
 003,0.00384218,-0.01813792,0.00000009,-0.14422489,-0.04460775,0.000000
 05,0.45569737,0.00102704,0.00119689,0.00000009,-0.00033727,-0.00007930
 ,-0.00000014,0.00569154,-0.00407601,0.00000028,0.00899202,0.02739910,0
 .00000022,0.00547930,-0.00882995,-0.00000007,-0.06866923,-0.13525813,0
 .00000026,-0.04346670,0.57415717,0.00000031,0.00000041,-0.00073896,0.0
 0000034,-0.00000055,0.00012050,-0.00000082,-0.00000029,0.00597053,0.00
 000075,-0.00000085,0.00223987,-0.00000024,0.00000044,-0.00601344,-0.00
 000032,0.00000040,-0.06883310,0.00000021,-0.00000023,0.63194747,-0.000
 45027,-0.00031049,0.00000009,0.00010814,0.00003511,0.00000002,-0.00136
 196,0.00109236,0.00000003,-0.00176229,-0.00758568,-0.00000015,0.001410
 66,0.00252462,0.,-0.04735408,0.02219123,0.,-0.14011280,0.06943228,-0.0
 0000040,0.53997627,-0.00034973,-0.00036232,0.00000005,0.00009490,0.000
 02920,0.,-0.00103022,0.00132047,0.00000002,-0.00188810,-0.00696282,-0.
 00000004,0.00157922,0.00271012,0.,-0.02284143,0.01576264,0.,0.08574135
 ,-0.16206188,0.00000012,0.04042983,0.55154380,-0.00000029,-0.00000040,
 -0.00000715,-0.00000035,0.00000058,0.00000671,0.00000081,0.00000035,0.
 00006954,-0.00000097,0.00000090,-0.00010758,0.00000027,-0.00000053,0.0
 0103964,0.00000067,-0.00000020,0.00161787,-0.00000038,0.00000040,-0.08
 704083,0.00000019,0.00000026,0.58413622,-0.00006575,-0.00006430,-0.000
 10259,0.00002919,0.00000335,-0.00000851,-0.00039040,-0.00032394,0.0011
 4255,0.00413158,-0.00775154,-0.00143902,0.00003630,0.00333685,0.000014
 87,-0.01984109,-0.02455345,-0.02750716,-0.04818503,0.00291848,0.004375
 24,0.00187901,0.01446104,0.02168707,0.06257066,-0.00006422,-0.00001369
 ,-0.00002458,0.00002534,0.00000762,0.00001987,-0.00022722,-0.00028806,
 0.00003516,0.00306315,-0.00128129,0.00004766,-0.00026975,0.00094999,0.
 00014695,-0.01285387,-0.01392660,-0.01306859,-0.00135254,-0.13756896,-
 0.12349534,0.00069401,-0.01129834,-0.01729985,0.00722470,0.15194120,0.
 00000085,0.00003771,0.00002905,-0.00000428,0.00000377,0.00000232,-0.00
 004987,0.00002555,-0.00043726,0.00129153,-0.00308611,0.00044862,0.0012
 7479,0.00154541,0.00026434,-0.00410296,0.00180237,0.00628680,-0.003896
 95,-0.12637868,-0.23875143,0.00089117,0.00234291,0.00309782,0.00382605
 ,0.13830011,0.24767923,-0.00006568,-0.00006421,0.00010259,0.00002927,0
 .00000322,0.00000852,-0.00039057,-0.00032403,-0.00114255,0.00413180,-0
 .00775172,0.00143909,0.00003626,0.00333696,-0.00001491,-0.01984123,-0.
 02455324,0.02750727,-0.04818499,0.00291826,-0.00437520,0.00187897,0.01
 446087,-0.02168715,0.00208769,0.00146318,0.00030526,0.06257061,-0.0000
 6415,-0.00001360,0.00002444,0.00002541,0.00000752,-0.00001974,-0.00022
 737,-0.00028813,-0.00003540,0.00306328,-0.00128137,-0.00004785,-0.0002
 6979,0.00095004,-0.00014688,-0.01285392,-0.01392651,0.01306859,-0.0013
 5266,-0.13756769,0.12349525,0.00069396,-0.01129825,0.01729960,0.001463
 15,0.01182656,-0.01511293,0.00722487,0.15193979,-0.00000092,-0.0000378
 1,0.00002929,0.00000420,-0.00000364,0.00000212,0.00005005,-0.00002547,
 -0.00043688,-0.00129174,0.00308628,0.00044890,-0.00127475,-0.00154551,
 0.00026422,0.00410313,-0.00180230,0.00628694,0.00389701,0.12637828,-0.
 23875361,-0.00089114,-0.00234280,0.00309831,-0.00030518,0.01511277,-0.
 02081541,-0.00382621,-0.13829978,0.24768108,0.00004940,-0.00003264,-0.
 00000667,-0.00000591,-0.00000012,0.00000435,0.00004377,0.00015811,-0.0
 0000493,-0.00054501,0.00130835,-0.00006232,-0.00039163,-0.00076313,-0.
 00014601,0.00336652,-0.00100990,-0.00007433,0.00009539,0.01609430,0.02
 337668,-0.04797543,-0.01090024,-0.01522838,-0.00363858,0.00330299,-0.0
 0056423,0.00093163,-0.00106771,-0.00040531,0.04953226,0.00003083,0.000
 02890,0.00001645,-0.00001178,0.00000131,-0.00000659,0.00005217,-0.0000
 0494,-0.00007525,-0.00013457,-0.00046760,0.00005577,0.00035138,0.00028
 423,0.00017994,-0.00102423,0.00169896,0.00109037,-0.00283284,-0.015537
 68,-0.02098364,-0.00889089,-0.13640880,-0.12527159,0.00398870,-0.00183
 807,0.00103702,-0.00072080,0.00045158,0.00018779,0.00749782,0.14770999
 ,-0.00002026,0.00006966,0.00000537,-0.00000495,-0.00000116,-0.00000250
 ,0.00006913,-0.00026392,-0.00000648,0.00019295,-0.00004557,0.00003323,
 -0.00007937,0.00029453,-0.00005483,0.00044612,0.00038834,0.00017207,0.
 00029537,0.00086028,0.00147008,-0.01412546,-0.12688448,-0.23034495,-0.
 00077002,0.00027406,0.00145535,0.00065325,0.00002461,0.00074982,0.0154
 6396,0.13901882,0.24508368,0.00004939,-0.00003266,0.00000674,-0.000005
 94,-0.00000008,-0.00000439,0.00004381,0.00015813,0.00000501,-0.0005450
 9,0.00130843,0.00006233,-0.00039161,-0.00076318,0.00014600,0.00336658,
 -0.00100991,0.00007440,0.00009539,0.01609415,-0.02337696,-0.04797539,-
 0.01090024,0.01522862,0.00093165,-0.00106770,0.00040533,-0.00363860,0.
 00330297,0.00056424,-0.00105206,0.00150579,-0.00223882,0.04953227,0.00
 003072,0.00002873,-0.00001641,-0.00001193,0.00000156,0.00000657,0.0000
 5251,-0.00000478,0.00007529,-0.00013502,-0.00046718,-0.00005578,0.0003
 5152,0.00028398,-0.00017996,-0.00102394,0.00169887,-0.00109033,-0.0028
 3294,-0.01553752,0.02098364,-0.00889076,-0.13640709,0.12527110,-0.0007
 2079,0.00045154,-0.00018789,0.00398870,-0.00183815,-0.00103688,0.00150
 584,0.01243702,-0.01574867,0.00749787,0.14770824,0.00002049,-0.0000693
 3,0.00000542,0.00000523,0.00000068,-0.00000254,-0.00006979,0.00026363,
 -0.00000641,-0.00019214,0.00004484,0.00003329,0.00007913,-0.00029409,-
 0.00005485,-0.00044663,-0.00038821,0.00017212,-0.00029522,-0.00086030,
 0.00146982,0.01412526,0.12688377,-0.23034644,-0.00065324,-0.00002447,0
 .00075007,0.00076997,-0.00027392,0.00145514,0.00223874,0.01574840,-0.0
 1942965,-0.01546408,-0.13901823,0.24508537,-0.00018307,-0.00013695,-0.
 00000018,0.00004962,0.00000526,0.00000003,-0.00030864,0.00040782,-0.00
 000014,0.00068723,-0.00256491,0.00000020,0.00006214,0.00103025,0.00000
 002,-0.00578292,0.00516311,-0.00000020,-0.01769488,-0.01498592,0.00000
 047,-0.25855489,-0.10889886,-0.00000020,0.00056685,0.00010614,0.000561
 62,0.00056695,0.00010620,-0.00056171,-0.00023801,0.00018046,-0.0000591
 0,-0.00023806,0.00018022,0.00005952,0.28104068,0.00011730,0.00016569,-
 0.00000008,-0.00003667,-0.00001107,0.,0.00044624,-0.00059065,-0.000000
 06,0.00081386,0.00203677,0.00000009,-0.00032632,-0.00049238,0.00000001
 ,0.00709623,-0.00326008,-0.00000007,0.01740791,0.01275711,0.00000016,-
 0.11141104,-0.10652305,-0.00000006,-0.00086491,0.00062012,-0.00054645,
 -0.00086485,0.00062016,0.00054640,-0.01591609,-0.00836755,0.00192200,-
 0.01591596,-0.00836761,-0.00192174,0.11934802,0.11136776,0.,-0.0000000
 1,0.00000510,0.,0.00000002,0.00000104,0.00000002,0.00000001,-0.0000602
 0,-0.00000003,0.00000002,0.00044611,0.,-0.00000001,-0.00013765,-0.0000
 0001,0.00000001,0.00103363,-0.00000006,-0.00000004,-0.00230072,0.00000
 032,0.00000019,-0.04538563,-0.00008624,0.00004163,-0.00004090,0.000086
 25,-0.00004164,-0.00004088,-0.02467879,-0.01098639,0.00093076,0.024678
 89,0.01098645,0.00093070,-0.00000034,-0.00000021,0.04468398,-0.0074208
 8,0.05086115,-0.00000039,-0.00433395,0.00121067,-0.00000001,-0.0999535
 6,0.05899068,-0.00000055,-0.00223595,-0.02276563,0.00000011,-0.0029137
 9,-0.00505977,0.00000003,-0.00523548,-0.00850948,0.,0.00368349,-0.0010
 9828,0.00000013,0.00012817,0.00013374,-0.00000012,-0.00052115,-0.00033
 832,0.00000813,-0.00052112,-0.00033829,-0.00000816,0.00006594,0.000043
 18,-0.00008360,0.00006593,0.00004313,0.00008370,-0.00004770,-0.0000817
 5,0.,0.62947852,0.03074491,-0.03879587,0.00000021,-0.00164928,0.001775
 45,0.00000003,-0.00713871,-0.31973945,0.00000159,0.01433200,-0.0369963
 1,0.00000046,-0.00979394,-0.00546672,0.00000003,-0.00661181,0.00395505
 ,-0.00000017,0.00064009,0.00058691,0.00000032,0.00007166,-0.00031447,-
 0.00000039,0.00023948,0.00002367,0.00018692,0.00023956,0.00002371,-0.0
 0018698,-0.00019903,0.00003088,0.00023386,-0.00019906,0.00003069,-0.00
 023353,-0.00009872,0.00021957,-0.00000001,-0.12322961,0.45144836,-0.00
 000005,0.00000051,0.00276941,0.00000006,-0.00000008,0.00550763,-0.0000
 0029,0.00000172,-0.03127427,-0.00000008,0.00000029,0.00584307,0.000000
 04,0.,0.00212812,0.00000005,0.,0.00018382,-0.00000007,-0.00000024,0.00
 017692,0.00000007,0.00000002,-0.00025335,0.00004914,0.00014293,0.00003
 177,-0.00004914,-0.00014274,0.00003149,-0.00008711,0.00002084,0.000048
 97,0.00008707,-0.00002085,0.00004892,-0.00000003,-0.00000002,0.0000561
 8,0.00000174,-0.00000282,0.01694208,0.00170379,-0.00245251,0.00000009,
 0.00054649,0.00008814,-0.00000004,-0.00724986,0.00598804,0.00000005,0.
 01013213,-0.00445810,0.00000005,-0.00331872,0.00054202,-0.00000003,-0.
 00642548,-0.00132038,0.00000007,-0.00230330,-0.00008997,-0.00000019,0.
 00016590,-0.00009214,0.00000019,0.00040905,0.00029409,0.00005355,0.000
 40901,0.00029405,-0.00005351,-0.00023828,-0.00003521,0.00026078,-0.000
 23827,-0.00003513,-0.00026094,0.00007469,0.00018803,0.,-0.51023848,0.1
 0265248,-0.00000140,0.51657132,-0.00018497,-0.00706822,-0.00000003,0.0
 0110021,-0.00026863,0.00000007,0.04746357,-0.01695656,0.00000004,0.004
 56229,-0.00643825,0.,-0.00003664,0.00293218,0.00000002,0.00107908,-0.0
 0025430,-0.00000006,-0.00396970,0.00041993,0.00000017,-0.00007620,0.00
 027079,-0.00000017,0.00064319,0.00039430,0.00003029,0.00064324,0.00039
 435,-0.00003034,0.00002144,-0.00001823,-0.00014236,0.00002144,-0.00001
 829,0.00014250,0.00015787,-0.00017478,0.,0.05013858,-0.05678145,0.0000
 0045,-0.10156341,0.08356715,0.00000009,0.00000013,-0.00015782,0.000000
 05,-0.00000008,0.00233955,-0.00000046,0.00000003,-0.00632917,0.0000000
 9,-0.00000002,0.00369397,-0.00000003,0.00000002,-0.00048867,-0.0000000
 7,0.00000002,-0.00134686,0.00000001,-0.00000011,-0.00096310,0.,-0.0000
 0001,0.00041982,-0.00022296,-0.00020830,-0.00000038,0.00022295,0.00020
 840,-0.00000054,0.00017434,-0.00003196,-0.00011092,-0.00017438,0.00003
 194,-0.00011096,0.00000005,0.00000002,-0.00012153,-0.00000100,0.000000
 49,-0.00224075,0.00000131,-0.00000057,0.00541736||0.00000071,0.0000046
 9,0.,0.00000169,0.00000540,0.,-0.00000080,0.00000295,0.,0.00000059,0.0
 0000146,0.,0.00000263,0.00000149,0.,-0.00000024,-0.00000013,0.,0.00000
 073,-0.00000185,0.,-0.00000070,-0.00000342,0.,0.00000164,-0.00000192,-
 0.00000004,0.00000164,-0.00000192,0.00000004,-0.00000163,-0.00000332,-
 0.00000003,-0.00000163,-0.00000332,0.00000003,-0.00000002,-0.00000477,
 0.,-0.00000221,0.00000306,0.,-0.00000240,0.00000162,0.|||@


 Luck is a matter of preparation meeting opportunity.
                                    -- Oprah Winfrey
 Job cpu time:       0 days  0 hours 23 minutes  8.0 seconds.
 File lengths (MBytes):  RWF=    153 Int=      0 D2E=      0 Chk=      8 Scr=      1
 Normal termination of Gaussian 09 at Thu Jan 23 15:11:39 2025.
