 Entering Gaussian System, Link 0=g16
 Initial command:
 /opt/g16/l1.exe "/home/aayush/scratches/g16/Gau-28694.inp" -scrdir="/home/aayush/scratches/g16/"
 Entering Link 1 = /opt/g16/l1.exe PID=     28697.
  
 Copyright (c) 1988,1990,1992,1993,1995,1998,2003,2009,2016,
            Gaussian, Inc.  All Rights Reserved.
  
 This is part of the Gaussian(R) 16 program.  It is based on
 the Gaussian(R) 09 system (copyright 2009, Gaussian, Inc.),
 the Gaussian(R) 03 system (copyright 2003, Gaussian, Inc.),
 the Gaussian(R) 98 system (copyright 1998, Gaussian, Inc.),
 the Gaussian(R) 94 system (copyright 1995, Gaussian, Inc.),
 the Gaussian 92(TM) system (copyright 1992, Gaussian, Inc.),
 the Gaussian 90(TM) system (copyright 1990, Gaussian, Inc.),
 the Gaussian 88(TM) system (copyright 1988, Gaussian, Inc.),
 the Gaussian 86(TM) system (copyright 1986, Carnegie Mellon
 University), and the Gaussian 82(TM) system (copyright 1983,
 Carnegie Mellon University). Gaussian is a federally registered
 trademark of Gaussian, Inc.
  
 This software contains proprietary and confidential information,
 including trade secrets, belonging to Gaussian, Inc.
  
 This software is provided under written license and may be
 used, copied, transmitted, or stored only in accord with that
 written license.
  
 The following legend is applicable only to US Government
 contracts under FAR:
  
                    RESTRICTED RIGHTS LEGEND
  
 Use, reproduction and disclosure by the US Government is
 subject to restrictions as set forth in subparagraphs (a)
 and (c) of the Commercial Computer Software - Restricted
 Rights clause in FAR 52.227-19.
  
 Gaussian, Inc.
 340 Quinnipiac St., Bldg. 40, Wallingford CT 06492
  
  
 ---------------------------------------------------------------
 Warning -- This program may not be used in any manner that
 competes with the business of Gaussian, Inc. or will provide
 assistance to any competitor of Gaussian, Inc.  The licensee
 of this program is prohibited from giving any competitor of
 Gaussian, Inc. access to this program.  By using this program,
 the user acknowledges that Gaussian, Inc. is engaged in the
 business of creating and licensing software in the field of
 computational chemistry and represents and warrants to the
 licensee that it is not a competitor of Gaussian, Inc. and that
 it will not use this program in any manner prohibited above.
 ---------------------------------------------------------------
  

 Cite this work as:
 Gaussian 16, Revision A.03,
 M. J. Frisch, G. W. Trucks, H. B. Schlegel, G. E. Scuseria, 
 M. A. Robb, J. R. Cheeseman, G. Scalmani, V. Barone, 
 G. A. Petersson, H. Nakatsuji, X. Li, M. Caricato, A. V. Marenich, 
 J. Bloino, B. G. Janesko, R. Gomperts, B. Mennucci, H. P. Hratchian, 
 J. V. Ortiz, A. F. Izmaylov, J. L. Sonnenberg, D. Williams-Young, 
 F. Ding, F. Lipparini, F. Egidi, J. Goings, B. Peng, A. Petrone, 
 T. Henderson, D. Ranasinghe, V. G. Zakrzewski, J. Gao, N. Rega, 
 G. Zheng, W. Liang, M. Hada, M. Ehara, K. Toyota, R. Fukuda, 
 J. Hasegawa, M. Ishida, T. Nakajima, Y. Honda, O. Kitao, H. Nakai, 
 T. Vreven, K. Throssell, J. A. Montgomery, Jr., J. E. Peralta, 
 F. Ogliaro, M. J. Bearpark, J. J. Heyd, E. N. Brothers, K. N. Kudin, 
 V. N. Staroverov, T. A. Keith, R. Kobayashi, J. Normand, 
 K. Raghavachari, A. P. Rendell, J. C. Burant, S. S. Iyengar, 
 J. Tomasi, M. Cossi, J. M. Millam, M. Klene, C. Adamo, R. Cammi, 
 J. W. Ochterski, R. L. Martin, K. Morokuma, O. Farkas, 
 J. B. Foresman, and D. J. Fox, Gaussian, Inc., Wallingford CT, 2016.
 
 ******************************************
 Gaussian 16:  ES64L-G16RevA.03 25-Dec-2016
                23-Jun-2025 
 ******************************************
 %nprocshared=24
 Will use up to   24 processors via shared memory.
 %mem=12GB
 %chk=ethyl_propiolate_ts1.chk
 --------------------------
 # freq 6-311++g(d,p) m062x
 --------------------------
 1/10=4,30=1,38=1/1,3;
 2/12=2,17=6,18=5,40=1/2;
 3/5=4,6=6,7=1111,11=2,25=1,30=1,71=2,74=-55,140=1/1,2,3;
 4//1;
 5/5=2,38=5,98=1/2;
 8/6=4,10=90,11=11/1;
 11/6=1,8=1,9=11,15=111,16=1/1,2,10;
 10/6=1/2;
 6/7=2,8=2,9=2,10=2,28=1/1;
 7/8=1,10=1,25=1/1,2,3,16;
 1/10=4,30=1/3;
 99//99;
 -------------------
 Title Card Required
 -------------------
 Symbolic Z-matrix:
 Charge =  0 Multiplicity = 2
 O                     2.28787   1.69815  -0.3215 
 H                     1.47458   1.79976   0.20517 
 C                    -3.37289   0.21346  -0.50654 
 H                    -4.38885   0.28565  -0.81792 
 C                    -2.2307    0.13183  -0.15546 
 C                    -0.84615   0.08587   0.28302 
 O                    -0.28477   1.01191   0.80806 
 O                    -0.30034  -1.10067   0.03745 
 C                     1.06696  -1.29338   0.45317 
 C                     2.04447  -0.79702  -0.58194 
 H                     1.14968  -2.3736    0.57566 
 H                     1.21871  -0.81026   1.41971 
 H                     3.0552   -1.14849  -0.37375 
 H                     1.74346  -1.04813  -1.59901 
 H                     2.15509   0.37541  -0.55534 
 

 GradGradGradGradGradGradGradGradGradGradGradGradGradGradGradGradGradGrad
 Berny optimization.
 Initialization pass.
 Trust Radius=3.00D-01 FncErr=1.00D-07 GrdErr=1.00D-07 EigMax=2.50D+02 EigMin=1.00D-04
 Number of steps in this run=      2 maximum allowed number of steps=      2.
 GradGradGradGradGradGradGradGradGradGradGradGradGradGradGradGradGradGrad

                          Input orientation:                          
 ---------------------------------------------------------------------
 Center     Atomic      Atomic             Coordinates (Angstroms)
 Number     Number       Type             X           Y           Z
 ---------------------------------------------------------------------
      1          8           0        2.287865    1.698150   -0.321499
      2          1           0        1.474583    1.799762    0.205172
      3          6           0       -3.372885    0.213463   -0.506542
      4          1           0       -4.388851    0.285650   -0.817919
      5          6           0       -2.230705    0.131831   -0.155464
      6          6           0       -0.846153    0.085872    0.283021
      7          8           0       -0.284767    1.011906    0.808055
      8          8           0       -0.300343   -1.100672    0.037451
      9          6           0        1.066957   -1.293377    0.453165
     10          6           0        2.044467   -0.797024   -0.581943
     11          1           0        1.149680   -2.373603    0.575659
     12          1           0        1.218710   -0.810258    1.419713
     13          1           0        3.055199   -1.148489   -0.373746
     14          1           0        1.743455   -1.048133   -1.599014
     15          1           0        2.155089    0.375410   -0.555339
 ---------------------------------------------------------------------
                    Distance matrix (angstroms):
                    1          2          3          4          5
     1  O    0.000000
     2  H    0.974236   0.000000
     3  C    5.855137   5.149838   0.000000
     4  H    6.842523   6.141588   1.065060   0.000000
     5  C    4.785227   4.079364   1.197704   2.262764   0.000000
     6  C    3.575885   2.886052   2.650295   3.715197   1.453054
     7  O    2.892276   2.019777   3.449949   4.473784   2.342984
     8  O    3.828978   3.404557   3.385763   4.401073   2.298386
     9  C    3.322643   3.129723   4.785792   5.820208   3.643655
    10  C    2.520509   2.772655   5.511304   6.528051   4.395651
    11  H    4.321982   4.202356   5.321434   6.299922   4.270684
    12  H    3.235278   2.890119   5.083425   6.136184   3.907324
    13  H    2.948709   3.394949   6.572124   7.593940   5.443128
    14  H    3.077417   3.381994   5.381641   6.324102   4.389772
    15  H    1.349797   1.752211   5.530561   6.549821   4.410716
                    6          7          8          9         10
     6  C    0.000000
     7  O    1.203476   0.000000
     8  O    1.328947   2.248791   0.000000
     9  C    2.364586   2.695818   1.442034   0.000000
    10  C    3.143780   3.260315   2.444174   1.507760   0.000000
    11  H    3.180881   3.684198   2.003144   1.090292   2.150881
    12  H    2.521662   2.440256   2.074249   1.091168   2.165335
    13  H    4.144338   4.149618   3.380981   2.158212   1.090162
    14  H    3.396188   3.761838   2.618757   2.174680   1.089999
    15  H    3.129558   2.866508   2.925639   2.232927   1.177942
                   11         12         13         14         15
    11  H    0.000000
    12  H    1.777988   0.000000
    13  H    2.456273   2.589129   0.000000
    14  H    2.615080   3.073216   1.797783   0.000000
    15  H    3.138005   2.486653   1.779169   1.812505   0.000000
 Stoichiometry    C5H7O3(2)
 Framework group  C1[X(C5H7O3)]
 Deg. of freedom    39
 Full point group                 C1      NOp   1
 Largest Abelian subgroup         C1      NOp   1
 Largest concise Abelian subgroup C1      NOp   1
                         Standard orientation:                         
 ---------------------------------------------------------------------
 Center     Atomic      Atomic             Coordinates (Angstroms)
 Number     Number       Type             X           Y           Z
 ---------------------------------------------------------------------
      1          8           0        2.287865    1.698150   -0.321499
      2          1           0        1.474583    1.799762    0.205172
      3          6           0       -3.372885    0.213463   -0.506542
      4          1           0       -4.388851    0.285650   -0.817919
      5          6           0       -2.230705    0.131831   -0.155464
      6          6           0       -0.846153    0.085872    0.283021
      7          8           0       -0.284767    1.011906    0.808055
      8          8           0       -0.300343   -1.100672    0.037451
      9          6           0        1.066957   -1.293377    0.453165
     10          6           0        2.044467   -0.797024   -0.581943
     11          1           0        1.149680   -2.373603    0.575659
     12          1           0        1.218710   -0.810258    1.419713
     13          1           0        3.055199   -1.148489   -0.373746
     14          1           0        1.743455   -1.048133   -1.599014
     15          1           0        2.155089    0.375410   -0.555339
 ---------------------------------------------------------------------
 Rotational constants (GHZ):           3.3355626           1.1874943           0.9738431
 Standard basis: 6-311++G(d,p) (5D, 7F)
 There are   233 symmetry adapted cartesian basis functions of A   symmetry.
 There are   225 symmetry adapted basis functions of A   symmetry.
   225 basis functions,   351 primitive gaussians,   233 cartesian basis functions
    31 alpha electrons       30 beta electrons
       nuclear repulsion energy       353.4199825413 Hartrees.
 NAtoms=   15 NActive=   15 NUniq=   15 SFac= 1.00D+00 NAtFMM=   60 NAOKFM=F Big=F
 Integral buffers will be    131072 words long.
 Raffenetti 2 integral format.
 Two-electron integral symmetry is turned on.
 One-electron integrals computed using PRISM.
 NBasis=   225 RedAO= T EigKep=  7.23D-06  NBF=   225
 NBsUse=   224 1.00D-06 EigRej=  7.37D-07 NBFU=   224
 ExpMin= 3.60D-02 ExpMax= 8.59D+03 ExpMxC= 1.30D+03 IAcc=3 IRadAn=         5 AccDes= 0.00D+00
 Harris functional with IExCor= 1009 and IRadAn=       5 diagonalized for initial guess.
 HarFok:  IExCor= 1009 AccDes= 0.00D+00 IRadAn=         5 IDoV= 1 UseB2=F ITyADJ=14
 ICtDFT=  3500011 ScaDFX=  1.000000  1.000000  1.000000  1.000000
 FoFCou: FMM=F IPFlag=           0 FMFlag=      100000 FMFlg1=           0
         NFxFlg=           0 DoJE=T BraDBF=F KetDBF=T FulRan=T
         wScrn=  0.000000 ICntrl=       500 IOpCl=  0 I1Cent=   200000004 NGrid=           0
         NMat0=    1 NMatS0=      1 NMatT0=    0 NMatD0=    1 NMtDS0=    0 NMtDT0=    0
 Petite list used in FoFCou.
 Initial guess <Sx>= 0.0000 <Sy>= 0.0000 <Sz>= 0.5000 <S**2>= 0.7500 S= 0.5000
 Requested convergence on RMS density matrix=1.00D-08 within 128 cycles.
 Requested convergence on MAX density matrix=1.00D-06.
 Requested convergence on             energy=1.00D-06.
 No special actions if energy rises.
 SCF Done:  E(UM062X) =  -420.201054240     A.U. after   20 cycles
            NFock= 20  Conv=0.42D-08     -V/T= 2.0032
 <Sx>= 0.0000 <Sy>= 0.0000 <Sz>= 0.5000 <S**2>= 0.7584 S= 0.5042
 <L.S>=  0.00000000000    
 Annihilation of the first spin contaminant:
 S**2 before annihilation     0.7584,   after     0.7500
 DoSCS=F DFT=T ScalE2(SS,OS)=  1.000000  1.000000
 Range of M.O.s used for correlation:     1   224
 NBasis=   225 NAE=    31 NBE=    30 NFC=     0 NFV=     0
 NROrb=    224 NOA=    31 NOB=    30 NVA=   193 NVB=   194

 **** Warning!!: The largest alpha MO coefficient is  0.10536690D+03


 **** Warning!!: The largest beta MO coefficient is  0.97065234D+02

 Symmetrizing basis deriv contribution to polar:
 IMax=3 JMax=2 DiffMx= 0.00D+00
 G2DrvN: will do    16 centers at a time, making    1 passes.
 Calling FoFCou, ICntrl=  3107 FMM=F I1Cent=   0 AccDes= 0.00D+00.
 End of G2Drv F.D. properties file   721 does not exist.
 End of G2Drv F.D. properties file   722 does not exist.
 End of G2Drv F.D. properties file   788 does not exist.
          IDoAtm=111111111111111
          Differentiating once with respect to electric field.
                with respect to dipole field.
          Differentiating once with respect to nuclear coordinates.
 Keep R1 and R2 ints in memory in canonical form, NReq=671901989.
          There are    48 degrees of freedom in the 1st order CPHF.  IDoFFX=6 NUNeed=     3.
     45 vectors produced by pass  0 Test12= 2.46D-14 2.08D-09 XBig12= 9.61D+01 4.13D+00.
 AX will form    45 AO Fock derivatives at one time.
     45 vectors produced by pass  1 Test12= 2.46D-14 2.08D-09 XBig12= 2.07D+01 8.39D-01.
     45 vectors produced by pass  2 Test12= 2.46D-14 2.08D-09 XBig12= 7.81D-01 1.61D-01.
     45 vectors produced by pass  3 Test12= 2.46D-14 2.08D-09 XBig12= 1.08D-02 1.49D-02.
     45 vectors produced by pass  4 Test12= 2.46D-14 2.08D-09 XBig12= 9.06D-05 1.03D-03.
     45 vectors produced by pass  5 Test12= 2.46D-14 2.08D-09 XBig12= 6.32D-07 7.60D-05.
     45 vectors produced by pass  6 Test12= 2.46D-14 2.08D-09 XBig12= 3.92D-09 5.93D-06.
     18 vectors produced by pass  7 Test12= 2.46D-14 2.08D-09 XBig12= 2.64D-11 4.90D-07.
      3 vectors produced by pass  8 Test12= 2.46D-14 2.08D-09 XBig12= 1.73D-13 4.12D-08.
      2 vectors produced by pass  9 Test12= 2.46D-14 2.08D-09 XBig12= 1.43D-15 5.67D-09.
 InvSVY:  IOpt=1 It=  1 EMax= 1.07D-14
 Solved reduced A of dimension   338 with    48 vectors.
 Isotropic polarizability for W=    0.000000       74.63 Bohr**3.
 End of Minotr F.D. properties file   721 does not exist.
 End of Minotr F.D. properties file   722 does not exist.
 End of Minotr F.D. properties file   788 does not exist.

 **********************************************************************

            Population analysis using the SCF density.

 **********************************************************************

 Orbital symmetries:
 Alpha Orbitals:
       Occupied  (A) (A) (A) (A) (A) (A) (A) (A) (A) (A) (A) (A)
                 (A) (A) (A) (A) (A) (A) (A) (A) (A) (A) (A) (A)
                 (A) (A) (A) (A) (A) (A) (A)
       Virtual   (A) (A) (A) (A) (A) (A) (A) (A) (A) (A) (A) (A)
                 (A) (A) (A) (A) (A) (A) (A) (A) (A) (A) (A) (A)
                 (A) (A) (A) (A) (A) (A) (A) (A) (A) (A) (A) (A)
                 (A) (A) (A) (A) (A) (A) (A) (A) (A) (A) (A) (A)
                 (A) (A) (A) (A) (A) (A) (A) (A) (A) (A) (A) (A)
                 (A) (A) (A) (A) (A) (A) (A) (A) (A) (A) (A) (A)
                 (A) (A) (A) (A) (A) (A) (A) (A) (A) (A) (A) (A)
                 (A) (A) (A) (A) (A) (A) (A) (A) (A) (A) (A) (A)
                 (A) (A) (A) (A) (A) (A) (A) (A) (A) (A) (A) (A)
                 (A) (A) (A) (A) (A) (A) (A) (A) (A) (A) (A) (A)
                 (A) (A) (A) (A) (A) (A) (A) (A) (A) (A) (A) (A)
                 (A) (A) (A) (A) (A) (A) (A) (A) (A) (A) (A) (A)
                 (A) (A) (A) (A) (A) (A) (A) (A) (A) (A) (A) (A)
                 (A) (A) (A) (A) (A) (A) (A) (A) (A) (A) (A) (A)
                 (A) (A) (A) (A) (A) (A) (A) (A) (A) (A) (A) (A)
                 (A) (A) (A) (A) (A) (A) (A) (A) (A) (A) (A) (A)
                 (A)
 Beta  Orbitals:
       Occupied  (A) (A) (A) (A) (A) (A) (A) (A) (A) (A) (A) (A)
                 (A) (A) (A) (A) (A) (A) (A) (A) (A) (A) (A) (A)
                 (A) (A) (A) (A) (A) (A)
       Virtual   (A) (A) (A) (A) (A) (A) (A) (A) (A) (A) (A) (A)
                 (A) (A) (A) (A) (A) (A) (A) (A) (A) (A) (A) (A)
                 (A) (A) (A) (A) (A) (A) (A) (A) (A) (A) (A) (A)
                 (A) (A) (A) (A) (A) (A) (A) (A) (A) (A) (A) (A)
                 (A) (A) (A) (A) (A) (A) (A) (A) (A) (A) (A) (A)
                 (A) (A) (A) (A) (A) (A) (A) (A) (A) (A) (A) (A)
                 (A) (A) (A) (A) (A) (A) (A) (A) (A) (A) (A) (A)
                 (A) (A) (A) (A) (A) (A) (A) (A) (A) (A) (A) (A)
                 (A) (A) (A) (A) (A) (A) (A) (A) (A) (A) (A) (A)
                 (A) (A) (A) (A) (A) (A) (A) (A) (A) (A) (A) (A)
                 (A) (A) (A) (A) (A) (A) (A) (A) (A) (A) (A) (A)
                 (A) (A) (A) (A) (A) (A) (A) (A) (A) (A) (A) (A)
                 (A) (A) (A) (A) (A) (A) (A) (A) (A) (A) (A) (A)
                 (A) (A) (A) (A) (A) (A) (A) (A) (A) (A) (A) (A)
                 (A) (A) (A) (A) (A) (A) (A) (A) (A) (A) (A) (A)
                 (A) (A) (A) (A) (A) (A) (A) (A) (A) (A) (A) (A)
                 (A) (A)
 The electronic state is 2-A.
 Alpha  occ. eigenvalues --  -19.69946 -19.64860 -19.64465 -10.72384 -10.62228
 Alpha  occ. eigenvalues --  -10.58030 -10.57553 -10.56086  -1.27358  -1.18030
 Alpha  occ. eigenvalues --   -1.11453  -0.91827  -0.88260  -0.79655  -0.72015
 Alpha  occ. eigenvalues --   -0.66141  -0.62138  -0.60640  -0.59280  -0.56941
 Alpha  occ. eigenvalues --   -0.53777  -0.51169  -0.49542  -0.48655  -0.45310
 Alpha  occ. eigenvalues --   -0.41154  -0.40597  -0.40100  -0.38218  -0.37387
 Alpha  occ. eigenvalues --   -0.35336
 Alpha virt. eigenvalues --   -0.02905  -0.00482   0.00399   0.01635   0.02323
 Alpha virt. eigenvalues --    0.02907   0.03394   0.04975   0.05574   0.06435
 Alpha virt. eigenvalues --    0.06684   0.07344   0.07796   0.09271   0.10050
 Alpha virt. eigenvalues --    0.11271   0.11770   0.12398   0.12662   0.13004
 Alpha virt. eigenvalues --    0.14149   0.14502   0.14831   0.16174   0.16593
 Alpha virt. eigenvalues --    0.17487   0.17917   0.18861   0.19603   0.21619
 Alpha virt. eigenvalues --    0.22659   0.22839   0.23248   0.24714   0.26470
 Alpha virt. eigenvalues --    0.27131   0.27584   0.28510   0.29430   0.30670
 Alpha virt. eigenvalues --    0.31222   0.32081   0.32394   0.32897   0.33987
 Alpha virt. eigenvalues --    0.34308   0.36949   0.37894   0.40082   0.41132
 Alpha virt. eigenvalues --    0.42329   0.43696   0.47778   0.48429   0.49557
 Alpha virt. eigenvalues --    0.51227   0.54292   0.56674   0.56840   0.59567
 Alpha virt. eigenvalues --    0.61158   0.62432   0.65411   0.66218   0.67621
 Alpha virt. eigenvalues --    0.69258   0.70782   0.71703   0.72887   0.74276
 Alpha virt. eigenvalues --    0.75063   0.75574   0.77728   0.79459   0.84138
 Alpha virt. eigenvalues --    0.87652   0.91581   0.97062   1.04105   1.04486
 Alpha virt. eigenvalues --    1.06861   1.08510   1.10194   1.11679   1.15009
 Alpha virt. eigenvalues --    1.15037   1.16299   1.17798   1.19450   1.20958
 Alpha virt. eigenvalues --    1.21623   1.22997   1.27751   1.31107   1.33430
 Alpha virt. eigenvalues --    1.35032   1.36234   1.37980   1.42819   1.43267
 Alpha virt. eigenvalues --    1.46478   1.49697   1.53209   1.55009   1.58874
 Alpha virt. eigenvalues --    1.60099   1.60950   1.62451   1.63049   1.65908
 Alpha virt. eigenvalues --    1.67384   1.67694   1.71276   1.71891   1.78040
 Alpha virt. eigenvalues --    1.80467   1.82879   1.83817   1.84207   1.90629
 Alpha virt. eigenvalues --    1.95702   1.99934   2.01560   2.05219   2.09063
 Alpha virt. eigenvalues --    2.12376   2.16628   2.21796   2.26051   2.31068
 Alpha virt. eigenvalues --    2.38493   2.41880   2.48119   2.51357   2.54067
 Alpha virt. eigenvalues --    2.59373   2.59713   2.61218   2.63355   2.65255
 Alpha virt. eigenvalues --    2.67181   2.69142   2.71519   2.74476   2.80541
 Alpha virt. eigenvalues --    2.81035   2.84493   2.89442   2.92526   2.96303
 Alpha virt. eigenvalues --    2.97711   3.00738   3.03525   3.05584   3.09912
 Alpha virt. eigenvalues --    3.14568   3.19451   3.19709   3.22213   3.24828
 Alpha virt. eigenvalues --    3.29907   3.32702   3.36096   3.42182   3.45909
 Alpha virt. eigenvalues --    3.55656   3.64132   3.71269   3.77020   3.84121
 Alpha virt. eigenvalues --    3.92024   3.96869   4.05210   4.12160   4.17019
 Alpha virt. eigenvalues --    4.29123   5.08793   5.12593   5.17509   5.31570
 Alpha virt. eigenvalues --    5.37503   5.44227   5.61123   5.73128   5.95464
 Alpha virt. eigenvalues --   23.61511  23.92231  23.92798  24.02115  25.17032
 Alpha virt. eigenvalues --   49.98014  49.98793  50.09474
  Beta  occ. eigenvalues --  -19.69946 -19.64863 -19.63146 -10.72384 -10.62242
  Beta  occ. eigenvalues --  -10.58030 -10.57553 -10.55735  -1.27355  -1.18025
  Beta  occ. eigenvalues --   -1.06121  -0.91571  -0.87883  -0.78924  -0.71539
  Beta  occ. eigenvalues --   -0.66039  -0.62097  -0.60430  -0.58718  -0.54516
  Beta  occ. eigenvalues --   -0.52040  -0.49833  -0.48381  -0.45987  -0.43129
  Beta  occ. eigenvalues --   -0.40967  -0.39887  -0.38223  -0.37365  -0.37122
  Beta virt. eigenvalues --   -0.09747  -0.02882  -0.00423   0.00422   0.01747
  Beta virt. eigenvalues --    0.02516   0.03040   0.03405   0.05347   0.05659
  Beta virt. eigenvalues --    0.06526   0.06959   0.07472   0.07843   0.09489
  Beta virt. eigenvalues --    0.10231   0.11303   0.11909   0.12361   0.12613
  Beta virt. eigenvalues --    0.13144   0.14291   0.14618   0.15100   0.16275
  Beta virt. eigenvalues --    0.16740   0.17721   0.17999   0.19085   0.19804
  Beta virt. eigenvalues --    0.21765   0.22815   0.22978   0.23683   0.24654
  Beta virt. eigenvalues --    0.26214   0.27194   0.27756   0.28845   0.29493
  Beta virt. eigenvalues --    0.30704   0.31411   0.32035   0.32324   0.33085
  Beta virt. eigenvalues --    0.34130   0.34433   0.37165   0.38774   0.40560
  Beta virt. eigenvalues --    0.41775   0.42636   0.43826   0.47969   0.48434
  Beta virt. eigenvalues --    0.50045   0.51306   0.54334   0.56715   0.56913
  Beta virt. eigenvalues --    0.59590   0.61266   0.62747   0.65689   0.66687
  Beta virt. eigenvalues --    0.67799   0.69608   0.70876   0.71970   0.73142
  Beta virt. eigenvalues --    0.74321   0.75400   0.75710   0.78019   0.79566
  Beta virt. eigenvalues --    0.84153   0.87703   0.91615   0.97469   1.04237
  Beta virt. eigenvalues --    1.04916   1.07462   1.08862   1.10219   1.12726
  Beta virt. eigenvalues --    1.15119   1.15987   1.16517   1.18395   1.20335
  Beta virt. eigenvalues --    1.21131   1.22147   1.23874   1.27801   1.31271
  Beta virt. eigenvalues --    1.33688   1.35101   1.36342   1.38006   1.43023
  Beta virt. eigenvalues --    1.43287   1.46682   1.50627   1.53856   1.56340
  Beta virt. eigenvalues --    1.59028   1.60093   1.61362   1.62563   1.63171
  Beta virt. eigenvalues --    1.65985   1.67459   1.67852   1.71701   1.71994
  Beta virt. eigenvalues --    1.78687   1.80550   1.82997   1.83838   1.84302
  Beta virt. eigenvalues --    1.90653   1.95785   2.00006   2.01782   2.05239
  Beta virt. eigenvalues --    2.09143   2.13079   2.16849   2.22429   2.26722
  Beta virt. eigenvalues --    2.31325   2.39809   2.41909   2.48235   2.51673
  Beta virt. eigenvalues --    2.54205   2.59201   2.59726   2.61548   2.63504
  Beta virt. eigenvalues --    2.65082   2.65867   2.67878   2.71757   2.74146
  Beta virt. eigenvalues --    2.80583   2.81031   2.84422   2.88473   2.92715
  Beta virt. eigenvalues --    2.97709   2.99954   3.01920   3.03589   3.05591
  Beta virt. eigenvalues --    3.09948   3.14553   3.19854   3.21100   3.23799
  Beta virt. eigenvalues --    3.27261   3.30005   3.32920   3.36176   3.42344
  Beta virt. eigenvalues --    3.48248   3.55724   3.64176   3.71375   3.78563
  Beta virt. eigenvalues --    3.84640   3.92357   3.98704   4.06318   4.12208
  Beta virt. eigenvalues --    4.17022   4.29969   5.10575   5.13035   5.17532
  Beta virt. eigenvalues --    5.31634   5.43280   5.44263   5.63658   5.73380
  Beta virt. eigenvalues --    5.95497  23.61511  23.92244  23.92821  24.02421
  Beta virt. eigenvalues --   25.17032  49.98013  49.98194  50.09470
          Condensed to atoms (all electrons):
               1          2          3          4          5          6
     1  O    8.062176   0.277807   0.004594   0.000169  -0.015965   0.012588
     2  H    0.277807   0.450826  -0.005452  -0.000272   0.011169  -0.031172
     3  C    0.004594  -0.005452   6.385354   0.497119  -1.438431   1.367080
     4  H    0.000169  -0.000272   0.497119   0.438205  -0.162188   0.055471
     5  C   -0.015965   0.011169  -1.438431  -0.162188   9.649221  -2.846417
     6  C    0.012588  -0.031172   1.367080   0.055471  -2.846417   7.763490
     7  O   -0.003310   0.016152  -0.083928  -0.002265   0.058674   0.325356
     8  O   -0.002544   0.000248  -0.100364  -0.005479  -0.180845   0.159521
     9  C   -0.005212   0.046776   0.017949  -0.002421  -0.285543  -0.148438
    10  C   -0.025223   0.000928  -0.010857  -0.000413  -0.003069  -0.009178
    11  H    0.000815   0.003101  -0.005315  -0.000395   0.009489  -0.032614
    12  H   -0.004530  -0.007588   0.003097   0.000236  -0.001466   0.023564
    13  H   -0.008355   0.003350   0.000558   0.000017  -0.005316   0.003493
    14  H    0.004863  -0.001171  -0.004093  -0.000187   0.021932  -0.003905
    15  H    0.036164  -0.030928   0.008957   0.000345  -0.030000   0.020499
               7          8          9         10         11         12
     1  O   -0.003310  -0.002544  -0.005212  -0.025223   0.000815  -0.004530
     2  H    0.016152   0.000248   0.046776   0.000928   0.003101  -0.007588
     3  C   -0.083928  -0.100364   0.017949  -0.010857  -0.005315   0.003097
     4  H   -0.002265  -0.005479  -0.002421  -0.000413  -0.000395   0.000236
     5  C    0.058674  -0.180845  -0.285543  -0.003069   0.009489  -0.001466
     6  C    0.325356   0.159521  -0.148438  -0.009178  -0.032614   0.023564
     7  O    8.092218  -0.153450   0.113549  -0.081347   0.005932  -0.023276
     8  O   -0.153450   8.218799   0.194025  -0.052884  -0.094373  -0.002031
     9  C    0.113549   0.194025   5.916180  -0.149633   0.492180   0.333065
    10  C   -0.081347  -0.052884  -0.149633   5.789584  -0.085319  -0.009964
    11  H    0.005932  -0.094373   0.492180  -0.085319   0.563339  -0.054216
    12  H   -0.023276  -0.002031   0.333065  -0.009964  -0.054216   0.524423
    13  H    0.000545   0.012348  -0.000891   0.366003   0.000707  -0.006582
    14  H   -0.002691  -0.000430  -0.065247   0.408509  -0.014502   0.011090
    15  H    0.011206  -0.019553  -0.036083   0.316697   0.012340  -0.017845
              13         14         15
     1  O   -0.008355   0.004863   0.036164
     2  H    0.003350  -0.001171  -0.030928
     3  C    0.000558  -0.004093   0.008957
     4  H    0.000017  -0.000187   0.000345
     5  C   -0.005316   0.021932  -0.030000
     6  C    0.003493  -0.003905   0.020499
     7  O    0.000545  -0.002691   0.011206
     8  O    0.012348  -0.000430  -0.019553
     9  C   -0.000891  -0.065247  -0.036083
    10  C    0.366003   0.408509   0.316697
    11  H    0.000707  -0.014502   0.012340
    12  H   -0.006582   0.011090  -0.017845
    13  H    0.513992  -0.035339  -0.027031
    14  H   -0.035339   0.540046  -0.058768
    15  H   -0.027031  -0.058768   0.544194
          Atomic-Atomic Spin Densities.
               1          2          3          4          5          6
     1  O    0.811657  -0.006450  -0.000460  -0.000027  -0.001333  -0.015186
     2  H   -0.006450  -0.019063   0.000744   0.000021  -0.001240   0.005642
     3  C   -0.000460   0.000744  -0.028333  -0.002912   0.048262  -0.016298
     4  H   -0.000027   0.000021  -0.002912  -0.001330   0.004453  -0.000543
     5  C   -0.001333  -0.001240   0.048262   0.004453  -0.122782   0.048580
     6  C   -0.015186   0.005642  -0.016298  -0.000543   0.048580  -0.031452
     7  O    0.006779  -0.000764  -0.001313  -0.000048   0.005150  -0.000273
     8  O    0.002105  -0.001569   0.001835   0.000045  -0.008585  -0.004912
     9  C    0.042993  -0.010442  -0.002542   0.000353   0.032902  -0.001113
    10  C   -0.118468   0.015423  -0.000258  -0.000063  -0.006794  -0.004507
    11  H   -0.000256   0.000566   0.000052   0.000049   0.003175   0.010247
    12  H   -0.000504  -0.000736   0.000589  -0.000020  -0.006039  -0.006201
    13  H    0.008156  -0.001997  -0.000066   0.000004   0.000420  -0.002683
    14  H    0.002945  -0.001400   0.000288  -0.000020  -0.002678  -0.003300
    15  H   -0.019487   0.015598  -0.000704   0.000020   0.012680   0.028962
               7          8          9         10         11         12
     1  O    0.006779   0.002105   0.042993  -0.118468  -0.000256  -0.000504
     2  H   -0.000764  -0.001569  -0.010442   0.015423   0.000566  -0.000736
     3  C   -0.001313   0.001835  -0.002542  -0.000258   0.000052   0.000589
     4  H   -0.000048   0.000045   0.000353  -0.000063   0.000049  -0.000020
     5  C    0.005150  -0.008585   0.032902  -0.006794   0.003175  -0.006039
     6  C   -0.000273  -0.004912  -0.001113  -0.004507   0.010247  -0.006201
     7  O   -0.001724   0.001598  -0.003192  -0.001677  -0.000850   0.001328
     8  O    0.001598   0.001877   0.014791  -0.007600  -0.002462   0.000142
     9  C   -0.003192   0.014791  -0.041677  -0.025324  -0.012782   0.019437
    10  C   -0.001677  -0.007600  -0.025324   0.457198   0.005610  -0.012556
    11  H   -0.000850  -0.002462  -0.012782   0.005610   0.020228   0.000712
    12  H    0.001328   0.000142   0.019437  -0.012556   0.000712   0.000506
    13  H    0.000295   0.000559   0.010881  -0.017002  -0.002182   0.000733
    14  H    0.000825   0.000299   0.015337  -0.029928   0.000280  -0.001335
    15  H   -0.009624   0.001883  -0.072155   0.106284  -0.005542   0.009844
              13         14         15
     1  O    0.008156   0.002945  -0.019487
     2  H   -0.001997  -0.001400   0.015598
     3  C   -0.000066   0.000288  -0.000704
     4  H    0.000004  -0.000020   0.000020
     5  C    0.000420  -0.002678   0.012680
     6  C   -0.002683  -0.003300   0.028962
     7  O    0.000295   0.000825  -0.009624
     8  O    0.000559   0.000299   0.001883
     9  C    0.010881   0.015337  -0.072155
    10  C   -0.017002  -0.029928   0.106284
    11  H   -0.002182   0.000280  -0.005542
    12  H    0.000733  -0.001335   0.009844
    13  H   -0.007718   0.005094  -0.005418
    14  H    0.005094  -0.004869   0.014384
    15  H   -0.005418   0.014384  -0.127594
 Mulliken charges and spin densities:
               1          2
     1  O   -0.334039   0.712464
     2  H    0.266225  -0.005666
     3  C   -0.636267  -0.001114
     4  H    0.182059  -0.000017
     5  C    1.218755   0.006172
     6  C   -0.659339   0.006964
     7  O   -0.273366  -0.003490
     8  O    0.027012   0.000007
     9  C   -0.420257  -0.032535
    10  C   -0.453835   0.360340
    11  H    0.198829   0.016844
    12  H    0.232024   0.005900
    13  H    0.182501  -0.010924
    14  H    0.199892  -0.004077
    15  H    0.269804  -0.050868
 Sum of Mulliken charges =  -0.00000   1.00000
 Mulliken charges and spin densities with hydrogens summed into heavy atoms:
               1          2
     1  O   -0.067814   0.706798
     3  C   -0.454208  -0.001131
     5  C    1.218755   0.006172
     6  C   -0.659339   0.006964
     7  O   -0.273366  -0.003490
     8  O    0.027012   0.000007
     9  C    0.010596  -0.009791
    10  C    0.198363   0.294471
 APT charges:
               1
     1  O   -0.214342
     2  H    0.365920
     3  C   -0.170365
     4  H    0.237976
     5  C   -0.314323
     6  C    1.454600
     7  O   -0.801953
     8  O   -0.906242
     9  C    0.435776
    10  C    0.278736
    11  H   -0.001608
    12  H    0.002640
    13  H   -0.017727
    14  H   -0.021876
    15  H   -0.327213
 Sum of APT charges =   0.00000
 APT charges with hydrogens summed into heavy atoms:
               1
     1  O    0.151579
     3  C    0.067611
     5  C   -0.314323
     6  C    1.454600
     7  O   -0.801953
     8  O   -0.906242
     9  C    0.436807
    10  C   -0.088079
 Electronic spatial extent (au):  <R**2>=           1188.2841
 Charge=             -0.0000 electrons
 Dipole moment (field-independent basis, Debye):
    X=             -1.9568    Y=             -3.0131    Z=             -0.0249  Tot=              3.5928
 Quadrupole moment (field-independent basis, Debye-Ang):
   XX=            -40.3853   YY=            -50.8836   ZZ=            -47.9270
   XY=             -8.3207   XZ=              4.1360   YZ=             -0.6986
 Traceless Quadrupole moment (field-independent basis, Debye-Ang):
   XX=              6.0134   YY=             -4.4850   ZZ=             -1.5284
   XY=             -8.3207   XZ=              4.1360   YZ=             -0.6986
 Octapole moment (field-independent basis, Debye-Ang**2):
  XXX=            -61.5453  YYY=             -3.1886  ZZZ=              2.7639  XYY=              4.7493
  XXY=            -13.4744  XXZ=            -10.5077  XZZ=              3.4848  YZZ=             -2.6218
  YYZ=              4.7210  XYZ=              5.1656
 Hexadecapole moment (field-independent basis, Debye-Ang**3):
 XXXX=           -841.9700 YYYY=           -333.1366 ZZZZ=           -125.4171 XXXY=            -64.7326
 XXXZ=             70.0092 YYYX=             -3.8006 YYYZ=              2.8255 ZZZX=             -2.4192
 ZZZY=              1.7094 XXYY=           -271.3200 XXZZ=           -201.8258 YYZZ=            -82.6440
 XXYZ=              1.2432 YYXZ=              8.0217 ZZXY=             -0.3266
 N-N= 3.534199825413D+02 E-N=-1.691100730152D+03  KE= 4.188428746661D+02
  Exact polarizability:  93.272  -0.639  78.502   7.698   2.515  52.125
 Approx polarizability: 100.165   1.123  87.406  12.297   6.092  63.082
                          Isotropic Fermi Contact Couplings
        Atom                 a.u.       MegaHertz       Gauss      10(-4) cm-1
     1  O(17)              0.12398     -75.15626     -26.81762     -25.06943
     2  H(1)              -0.01225     -54.73719     -19.53159     -18.25836
     3  C(13)             -0.00005      -0.05075      -0.01811      -0.01693
     4  H(1)               0.00000       0.01554       0.00555       0.00518
     5  C(13)             -0.00006      -0.06844      -0.02442      -0.02283
     6  C(13)             -0.00007      -0.08166      -0.02914      -0.02724
     7  O(17)             -0.00496       3.00473       1.07216       1.00227
     8  O(17)              0.00187      -1.13300      -0.40428      -0.37793
     9  C(13)             -0.01059     -11.91028      -4.24988      -3.97284
    10  C(13)              0.14107     158.59433      56.59040      52.90138
    11  H(1)               0.00822      36.76295      13.11793      12.26280
    12  H(1)               0.00293      13.07603       4.66585       4.36169
    13  H(1)              -0.00333     -14.89432      -5.31466      -4.96821
    14  H(1)              -0.00114      -5.08124      -1.81311      -1.69492
    15  H(1)              -0.01927     -86.11954     -30.72959     -28.72639
 --------------------------------------------------------
       Center         ----  Spin Dipole Couplings  ----
                      3XX-RR        3YY-RR        3ZZ-RR
 --------------------------------------------------------
     1   Atom       -1.343976      2.759414     -1.415439
     2   Atom        0.065864     -0.034177     -0.031687
     3   Atom        0.001455     -0.000535     -0.000920
     4   Atom        0.000868     -0.000399     -0.000470
     5   Atom        0.002338     -0.001024     -0.001313
     6   Atom        0.005704     -0.001578     -0.004126
     7   Atom        0.001777     -0.002290      0.000513
     8   Atom        0.004519     -0.000974     -0.003546
     9   Atom       -0.001045      0.008360     -0.007315
    10   Atom       -0.215730      0.429970     -0.214240
    11   Atom       -0.002454      0.004716     -0.002263
    12   Atom       -0.004226     -0.001150      0.005375
    13   Atom        0.020386      0.005140     -0.025526
    14   Atom       -0.022969      0.000144      0.022826
    15   Atom       -0.111294      0.219580     -0.108286
 --------------------------------------------------------
                        XY            XZ            YZ
 --------------------------------------------------------
     1   Atom        0.721602      0.082202      0.416611
     2   Atom       -0.012555     -0.107193      0.021679
     3   Atom        0.000212      0.000220      0.000123
     4   Atom        0.000115      0.000082      0.000014
     5   Atom        0.000554     -0.000296     -0.000029
     6   Atom        0.001257     -0.001900      0.000064
     7   Atom       -0.000688     -0.004551     -0.001659
     8   Atom        0.001589      0.000161     -0.000696
     9   Atom        0.013106     -0.006872     -0.007345
    10   Atom        0.021090      0.002431      0.049930
    11   Atom        0.002128     -0.002866     -0.003864
    12   Atom        0.002304     -0.005482     -0.004212
    13   Atom       -0.016376      0.010589     -0.001304
    14   Atom        0.003746      0.015542      0.012013
    15   Atom        0.031609      0.002964      0.039324
 --------------------------------------------------------


 ---------------------------------------------------------------------------------
              Anisotropic Spin Dipole Couplings in Principal Axis System
 ---------------------------------------------------------------------------------

       Atom             a.u.   MegaHertz   Gauss  10(-4) cm-1        Axes

              Baa    -1.4741   106.663    38.060    35.579  0.8409 -0.0908 -0.5335
     1 O(17)  Bbb    -1.4501   104.926    37.440    34.999  0.5146 -0.1714  0.8402
              Bcc     2.9241  -211.589   -75.500   -70.578  0.1677  0.9810  0.0974
 
              Baa    -0.1026   -54.769   -19.543   -18.269  0.5199 -0.1697  0.8372
     2 H(1)   Bbb    -0.0351   -18.731    -6.684    -6.248  0.2000  0.9770  0.0739
              Bcc     0.1378    73.500    26.227    24.517  0.8305 -0.1290 -0.5419
 
              Baa    -0.0010    -0.130    -0.046    -0.043 -0.0667 -0.2430  0.9677
     3 C(13)  Bbb    -0.0005    -0.072    -0.026    -0.024 -0.1288  0.9639  0.2331
              Bcc     0.0015     0.201     0.072     0.067  0.9894  0.1091  0.0956
 
              Baa    -0.0005    -0.254    -0.091    -0.085 -0.0512 -0.1098  0.9926
     4 H(1)   Bbb    -0.0004    -0.218    -0.078    -0.073 -0.0958  0.9899  0.1045
              Bcc     0.0009     0.471     0.168     0.157  0.9941  0.0897  0.0612
 
              Baa    -0.0013    -0.180    -0.064    -0.060  0.0900 -0.0673  0.9937
     5 C(13)  Bbb    -0.0011    -0.149    -0.053    -0.050 -0.1513  0.9852  0.0805
              Bcc     0.0025     0.329     0.117     0.110  0.9844  0.1576 -0.0785
 
              Baa    -0.0045    -0.605    -0.216    -0.202  0.1942 -0.1045  0.9754
     6 C(13)  Bbb    -0.0017    -0.233    -0.083    -0.078 -0.1323  0.9824  0.1317
              Bcc     0.0063     0.839     0.299     0.280  0.9720  0.1547 -0.1770
 
              Baa    -0.0047     0.339     0.121     0.113  0.5079  0.5852  0.6321
     7 O(17)  Bbb    -0.0011     0.080     0.028     0.027 -0.4355  0.8076 -0.3977
              Bcc     0.0058    -0.418    -0.149    -0.140  0.7432  0.0733 -0.6651
 
              Baa    -0.0038     0.272     0.097     0.091 -0.0724  0.2802  0.9572
     8 O(17)  Bbb    -0.0012     0.086     0.031     0.029 -0.2493  0.9242 -0.2894
              Bcc     0.0049    -0.358    -0.128    -0.119  0.9657  0.2596 -0.0029
 
              Baa    -0.0119    -1.595    -0.569    -0.532  0.6599 -0.1609  0.7339
     9 C(13)  Bbb    -0.0092    -1.235    -0.441    -0.412 -0.5066  0.6261  0.5928
              Bcc     0.0211     2.829     1.010     0.944  0.5549  0.7630 -0.3316
 
              Baa    -0.2184   -29.309   -10.458    -9.776 -0.3744 -0.0591  0.9254
    10 C(13)  Bbb    -0.2161   -28.998   -10.347    -9.673  0.9267 -0.0589  0.3712
              Bcc     0.4345    58.307    20.805    19.449  0.0326  0.9965  0.0768
 
              Baa    -0.0054    -2.889    -1.031    -0.964  0.6245  0.1604  0.7644
    11 H(1)   Bbb    -0.0020    -1.079    -0.385    -0.360  0.7181 -0.5027 -0.4812
              Bcc     0.0074     3.968     1.416     1.324  0.3071  0.8495 -0.4291
 
              Baa    -0.0067    -3.598    -1.284    -1.200  0.9187 -0.0886  0.3848
    12 H(1)   Bbb    -0.0032    -1.701    -0.607    -0.567 -0.0790  0.9136  0.3988
              Bcc     0.0099     5.299     1.891     1.768 -0.3869 -0.3968  0.8324
 
              Baa    -0.0280   -14.955    -5.336    -4.989 -0.2387 -0.0798  0.9678
    13 H(1)   Bbb    -0.0044    -2.354    -0.840    -0.785  0.4834  0.8546  0.1896
              Bcc     0.0324    17.309     6.176     5.774  0.8423 -0.5131  0.1654
 
              Baa    -0.0277   -14.804    -5.282    -4.938  0.9560 -0.0021 -0.2933
    14 H(1)   Bbb    -0.0048    -2.535    -0.904    -0.846 -0.1045  0.9320 -0.3471
              Bcc     0.0325    17.339     6.187     5.784  0.2741  0.3625  0.8908
 
              Baa    -0.1146   -61.155   -21.822   -20.399  0.9062 -0.1329  0.4014
    15 H(1)   Bbb    -0.1126   -60.072   -21.435   -20.038 -0.4124 -0.0683  0.9084
              Bcc     0.2272   121.227    43.257    40.437  0.0934  0.9888  0.1167
 

 ---------------------------------------------------------------------------------

 Calling FoFJK, ICntrl=    100127 FMM=F ISym2X=0 I1Cent= 0 IOpClX= 1 NMat=1 NMatS=1 NMatT=0.
 Full mass-weighted force constant matrix:
 Low frequencies --- -995.0104  -37.4178  -19.2358   -0.0006   -0.0003    0.0006
 Low frequencies ---    4.8191   23.8862   88.2087
 ******    2 imaginary frequencies (negative Signs) ****** 
 Diagonal vibrational polarizability:
     1265.1956311      64.3811053     349.1779619
 Harmonic frequencies (cm**-1), IR intensities (KM/Mole), Raman scattering
 activities (A**4/AMU), depolarization ratios for plane and unpolarized
 incident light, reduced masses (AMU), force constants (mDyne/A),
 and normal coordinates:
                      1                      2                      3
                      A                      A                      A
 Frequencies --   -995.0103                -5.8247                87.9644
 Red. masses --      1.3300                 7.8561                 3.7664
 Frc consts  --      0.7758                 0.0002                 0.0172
 IR Inten    --    873.7420                 1.9750                 3.5809
  Atom  AN      X      Y      Z        X      Y      Z        X      Y      Z
     1   8    -0.01  -0.14  -0.03    -0.33   0.07  -0.31    -0.02   0.00   0.01
     2   1     0.04   0.01  -0.02    -0.18   0.00  -0.07     0.01   0.01   0.04
     3   6    -0.00  -0.00  -0.00     0.12   0.19  -0.14     0.12   0.03  -0.23
     4   1    -0.00   0.00   0.00     0.16   0.28  -0.22     0.18   0.06  -0.41
     5   6    -0.00  -0.00  -0.00     0.09   0.09  -0.04     0.05  -0.00  -0.01
     6   6    -0.00   0.01   0.00     0.04  -0.03   0.09     0.01  -0.03   0.12
     7   8    -0.00  -0.00   0.00     0.00  -0.15   0.33     0.02  -0.01   0.07
     8   8     0.01  -0.01  -0.00     0.05   0.01  -0.09    -0.02  -0.07   0.23
     9   6    -0.00   0.03  -0.01    -0.00  -0.09   0.02     0.05   0.02   0.01
    10   6    -0.00   0.04   0.02     0.11  -0.05   0.15    -0.18   0.05  -0.20
    11   1     0.05   0.01  -0.03    -0.05  -0.11  -0.06     0.14   0.03   0.03
    12   1     0.01  -0.00   0.01    -0.07  -0.18   0.07     0.20   0.07  -0.04
    13   1     0.05   0.23   0.01     0.11   0.07   0.33    -0.13   0.04  -0.46
    14   1    -0.01   0.33  -0.04     0.29  -0.14   0.12    -0.43   0.10  -0.14
    15   1     0.13   0.85   0.26    -0.04  -0.03   0.07    -0.16   0.05  -0.17
                      4                      5                      6
                      A                      A                      A
 Frequencies --    106.2350               157.6884               188.1800
 Red. masses --      4.6081                 4.3675                 5.1516
 Frc consts  --      0.0306                 0.0640                 0.1075
 IR Inten    --      2.7047                 0.2744                 9.3300
  Atom  AN      X      Y      Z        X      Y      Z        X      Y      Z
     1   8    -0.00  -0.20   0.03     0.27   0.10  -0.14     0.26   0.03  -0.09
     2   1     0.02  -0.34   0.10     0.32   0.33  -0.11     0.23   0.13  -0.16
     3   6    -0.01  -0.17  -0.06    -0.01  -0.22  -0.09    -0.08   0.23   0.00
     4   1    -0.00  -0.32  -0.12     0.01  -0.44  -0.19    -0.07   0.53   0.01
     5   6    -0.02   0.01   0.01    -0.03   0.06   0.04    -0.10  -0.16  -0.02
     6   6    -0.03   0.11   0.06    -0.03   0.06   0.07    -0.11  -0.15   0.02
     7   8    -0.13   0.10   0.20     0.03  -0.03   0.15    -0.23  -0.11   0.08
     8   8     0.07   0.19  -0.08    -0.10   0.04  -0.04     0.06  -0.07  -0.02
     9   6     0.05   0.14  -0.03    -0.13  -0.08  -0.04     0.07   0.14   0.05
    10   6     0.07  -0.15  -0.14    -0.07   0.06   0.08     0.06   0.04  -0.02
    11   1    -0.05   0.16   0.20    -0.16  -0.10  -0.24     0.18   0.17   0.25
    12   1     0.09   0.33  -0.13    -0.14  -0.26   0.05     0.01   0.34  -0.04
    13   1     0.05  -0.15  -0.07    -0.09  -0.03   0.05     0.07   0.09   0.03
    14   1     0.04  -0.34  -0.08    -0.04   0.22   0.03     0.07  -0.11   0.02
    15   1     0.09  -0.15  -0.33     0.01   0.03   0.21     0.04   0.03  -0.17
                      7                      8                      9
                      A                      A                      A
 Frequencies --    272.4489               288.7707               340.0295
 Red. masses --      4.1509                 1.1998                 2.6777
 Frc consts  --      0.1815                 0.0589                 0.1824
 IR Inten    --      3.4781                 3.4785                15.3022
  Atom  AN      X      Y      Z        X      Y      Z        X      Y      Z
     1   8    -0.02   0.00   0.01     0.01  -0.03   0.01    -0.02   0.01   0.02
     2   1    -0.15  -0.06  -0.18     0.15   0.01   0.22    -0.14  -0.05  -0.15
     3   6     0.04   0.06  -0.17     0.01  -0.01  -0.02     0.01  -0.02  -0.03
     4   1     0.17   0.20  -0.58     0.02  -0.03  -0.08     0.04  -0.08  -0.13
     5   6    -0.14  -0.12   0.37    -0.01   0.02   0.05    -0.02   0.05   0.11
     6   6    -0.05  -0.01   0.12    -0.00  -0.01   0.01     0.00  -0.04  -0.02
     7   8     0.00   0.09  -0.12     0.06  -0.03  -0.02     0.15  -0.14  -0.01
     8   8    -0.00   0.04  -0.02    -0.03  -0.02  -0.01    -0.02  -0.02  -0.13
     9   6     0.01  -0.05  -0.10    -0.02   0.04  -0.02    -0.05   0.18   0.10
    10   6     0.13  -0.03   0.02    -0.02   0.04  -0.00    -0.05  -0.00   0.01
    11   1    -0.05  -0.07  -0.21     0.03   0.04   0.02     0.03   0.23   0.44
    12   1     0.04  -0.17  -0.04    -0.04   0.07  -0.03    -0.20   0.50  -0.04
    13   1     0.07  -0.16   0.09     0.06   0.49   0.34    -0.10  -0.27  -0.18
    14   1     0.22   0.10  -0.04     0.28  -0.40   0.01    -0.28   0.13   0.05
    15   1     0.24  -0.04   0.14    -0.41   0.09  -0.36     0.21  -0.03   0.07
                     10                     11                     12
                      A                      A                      A
 Frequencies --    415.1829               428.7348               566.9248
 Red. masses --      1.2169                 2.5829                 4.0185
 Frc consts  --      0.1236                 0.2797                 0.7610
 IR Inten    --     80.1246                10.9960                 1.2187
  Atom  AN      X      Y      Z        X      Y      Z        X      Y      Z
     1   8    -0.02   0.01  -0.04    -0.02   0.02  -0.03     0.00  -0.01   0.00
     2   1     0.49  -0.17   0.78     0.26  -0.36   0.47     0.01   0.19  -0.02
     3   6     0.02   0.01  -0.00    -0.10  -0.02  -0.02    -0.19  -0.00  -0.07
     4   1     0.03   0.07  -0.03    -0.11  -0.14  -0.00    -0.18  -0.26  -0.18
     5   6     0.00  -0.06   0.03    -0.07   0.14  -0.05    -0.18   0.26   0.06
     6   6     0.01   0.00  -0.02    -0.06  -0.01   0.02    -0.02  -0.02  -0.05
     7   8    -0.02   0.02  -0.02     0.04  -0.07  -0.01    -0.00  -0.05  -0.02
     8   8     0.03   0.02  -0.05    -0.09  -0.07   0.13     0.17   0.02  -0.03
     9   6    -0.01  -0.01   0.04     0.03   0.07  -0.08     0.21  -0.13   0.14
    10   6    -0.04  -0.00   0.02     0.18   0.00  -0.03    -0.01  -0.01   0.01
    11   1    -0.02  -0.02   0.03     0.08   0.08  -0.06     0.11  -0.16  -0.02
    12   1    -0.05  -0.03   0.05     0.09   0.07  -0.09     0.20  -0.23   0.19
    13   1    -0.04  -0.09  -0.14     0.07  -0.27   0.11     0.15   0.25  -0.35
    14   1    -0.20   0.10   0.04     0.29   0.12  -0.09    -0.31  -0.05   0.10
    15   1    -0.01  -0.01   0.04     0.43  -0.01   0.02    -0.30   0.01  -0.01
                     13                     14                     15
                      A                      A                      A
 Frequencies --    610.7533               700.1781               746.8728
 Red. masses --      7.1594                 1.3353                 1.3142
 Frc consts  --      1.5735                 0.3857                 0.4319
 IR Inten    --     10.4394                15.9540                38.9341
  Atom  AN      X      Y      Z        X      Y      Z        X      Y      Z
     1   8    -0.01  -0.02   0.00    -0.02   0.04   0.02     0.00   0.00  -0.00
     2   1    -0.05  -0.06  -0.06     0.14   0.62   0.14    -0.00  -0.00  -0.00
     3   6    -0.25   0.03  -0.07    -0.02   0.00  -0.01     0.00  -0.14  -0.04
     4   1    -0.27   0.45   0.06    -0.02   0.03  -0.01    -0.02   0.94   0.29
     5   6    -0.20  -0.36  -0.19    -0.02  -0.02  -0.01    -0.00   0.07   0.02
     6   6    -0.02   0.14   0.03     0.01   0.02   0.01     0.00  -0.00  -0.00
     7   8     0.34  -0.09   0.07     0.02   0.02   0.01    -0.01   0.00  -0.00
     8   8     0.04   0.22   0.08    -0.01  -0.01   0.01    -0.00  -0.00  -0.00
     9   6     0.02   0.02   0.02    -0.00  -0.04  -0.03     0.01  -0.00   0.00
    10   6    -0.01   0.02   0.01     0.03  -0.13  -0.05     0.00   0.00  -0.00
    11   1    -0.15  -0.03  -0.27    -0.06  -0.00   0.39     0.01  -0.00   0.00
    12   1     0.14  -0.24   0.14     0.08   0.31  -0.21     0.00  -0.00   0.00
    13   1    -0.01   0.01  -0.02     0.09   0.10   0.02     0.01   0.01  -0.01
    14   1    -0.07  -0.07   0.05     0.17   0.14  -0.15    -0.01  -0.00   0.00
    15   1    -0.02  -0.02  -0.08    -0.19   0.06   0.33    -0.00   0.00  -0.00
                     16                     17                     18
                      A                      A                      A
 Frequencies --    779.8629               789.2316               875.0934
 Red. masses --      1.4641                 5.5373                 2.5012
 Frc consts  --      0.5246                 2.0322                 1.1285
 IR Inten    --     17.9713                46.1608                11.8414
  Atom  AN      X      Y      Z        X      Y      Z        X      Y      Z
     1   8     0.00   0.00   0.00    -0.00  -0.01  -0.00    -0.02  -0.03   0.00
     2   1     0.00   0.00   0.00     0.02  -0.00   0.03     0.12   0.58   0.10
     3   6     0.05   0.04  -0.14     0.02   0.02  -0.07     0.06  -0.01   0.02
     4   1    -0.29  -0.28   0.89    -0.23  -0.21   0.69     0.07  -0.03   0.01
     5   6    -0.03  -0.03   0.09     0.05   0.06  -0.16     0.04   0.05   0.03
     6   6     0.02   0.03  -0.07    -0.16  -0.18   0.50    -0.06  -0.08  -0.04
     7   8    -0.01  -0.01   0.02     0.05   0.05  -0.14    -0.04  -0.14  -0.06
     8   8    -0.01  -0.01   0.02     0.04   0.05  -0.13     0.11   0.14   0.08
     9   6    -0.00   0.00  -0.00     0.01  -0.01  -0.00    -0.04   0.13  -0.07
    10   6     0.00  -0.00  -0.00     0.00   0.01   0.02    -0.07  -0.05   0.02
    11   1     0.00   0.00  -0.00    -0.01  -0.00   0.03    -0.14   0.08  -0.41
    12   1     0.01  -0.00  -0.00    -0.06   0.02  -0.00     0.20  -0.19   0.05
    13   1    -0.00  -0.00   0.01     0.02   0.02  -0.07    -0.21  -0.29   0.28
    14   1     0.01  -0.00  -0.01    -0.09   0.01   0.04     0.06  -0.09  -0.01
    15   1     0.01   0.00   0.00    -0.07  -0.02  -0.00     0.00  -0.07   0.15
                     19                     20                     21
                      A                      A                      A
 Frequencies --    913.3331               938.6234              1008.4594
 Red. masses --      1.7023                 2.5471                 1.8538
 Frc consts  --      0.8366                 1.3221                 1.1108
 IR Inten    --     94.6953               169.9974               244.2140
  Atom  AN      X      Y      Z        X      Y      Z        X      Y      Z
     1   8    -0.02  -0.05   0.01     0.03   0.09   0.00    -0.00  -0.11  -0.03
     2   1     0.09   0.59   0.05    -0.08  -0.48  -0.06    -0.01  -0.09  -0.01
     3   6     0.04  -0.00   0.01     0.09  -0.01   0.03     0.03  -0.00   0.01
     4   1     0.05   0.01   0.02     0.10  -0.01   0.03     0.03  -0.00   0.01
     5   6     0.03  -0.03   0.00     0.06  -0.00   0.02     0.02  -0.00   0.01
     6   6    -0.04   0.03  -0.01    -0.12  -0.01  -0.04    -0.04  -0.01  -0.03
     7   8     0.00  -0.01  -0.00    -0.02  -0.12  -0.05    -0.01  -0.04  -0.01
     8   8    -0.12  -0.01  -0.02    -0.04   0.15   0.04    -0.04   0.07   0.03
     9   6     0.04   0.06   0.05    -0.05  -0.07   0.11     0.06  -0.05  -0.05
    10   6     0.15   0.02   0.00     0.08  -0.09  -0.09     0.02   0.17   0.07
    11   1    -0.01   0.02  -0.24    -0.39  -0.09   0.16    -0.08  -0.01   0.28
    12   1    -0.16  -0.20   0.20     0.06  -0.05   0.08     0.07   0.26  -0.21
    13   1     0.21  -0.04  -0.42     0.29   0.43  -0.24     0.02   0.05  -0.12
    14   1    -0.32  -0.13   0.17     0.02   0.08  -0.11     0.10   0.44  -0.02
    15   1    -0.13  -0.04  -0.18    -0.03   0.27  -0.05    -0.39  -0.56   0.19
                     22                     23                     24
                      A                      A                      A
 Frequencies --   1089.9607              1131.4915              1185.5143
 Red. masses --      3.4970                 2.2458                 1.4425
 Frc consts  --      2.4478                 1.6940                 1.1945
 IR Inten    --     40.2400                68.4085                 9.6602
  Atom  AN      X      Y      Z        X      Y      Z        X      Y      Z
     1   8     0.00   0.03  -0.00    -0.02  -0.05  -0.00     0.01  -0.01  -0.01
     2   1     0.01  -0.08   0.04     0.07   0.32   0.06    -0.03  -0.18  -0.02
     3   6     0.07  -0.00   0.02    -0.00   0.00  -0.00    -0.02   0.00  -0.00
     4   1     0.07   0.01   0.03    -0.00  -0.00  -0.00    -0.02  -0.00  -0.01
     5   6     0.03  -0.03  -0.00    -0.00  -0.00   0.00    -0.01  -0.00  -0.00
     6   6    -0.12   0.07  -0.02     0.01  -0.02   0.00     0.04  -0.02   0.01
     7   8     0.01  -0.02  -0.01    -0.00   0.00  -0.00     0.00   0.03   0.01
     8   8    -0.19   0.03  -0.09    -0.01   0.02  -0.03    -0.01  -0.05  -0.03
     9   6     0.33  -0.01   0.04    -0.03  -0.08   0.20    -0.00   0.14   0.07
    10   6    -0.15  -0.06   0.03     0.01   0.15  -0.18    -0.01  -0.07  -0.05
    11   1     0.29  -0.02  -0.10    -0.08  -0.10   0.12    -0.11   0.08  -0.34
    12   1     0.55   0.00  -0.00    -0.05  -0.11   0.23     0.06  -0.24   0.25
    13   1    -0.21  -0.06   0.39    -0.20  -0.25   0.25     0.09   0.28   0.04
    14   1     0.08  -0.18   0.01     0.53   0.01  -0.30     0.19   0.37  -0.21
    15   1     0.21   0.08   0.29     0.38  -0.09  -0.05    -0.31  -0.33   0.40
                     25                     26                     27
                      A                      A                      A
 Frequencies --   1292.8696              1312.3315              1353.9710
 Red. masses --      2.3296                 1.0817                 1.5604
 Frc consts  --      2.2942                 1.0976                 1.6854
 IR Inten    --    455.8804                14.9413               271.5511
  Atom  AN      X      Y      Z        X      Y      Z        X      Y      Z
     1   8    -0.00   0.00  -0.00    -0.00  -0.01  -0.01    -0.00  -0.02  -0.00
     2   1     0.01   0.01   0.03     0.01  -0.03   0.03     0.01   0.03   0.01
     3   6    -0.06   0.00  -0.02     0.01  -0.00   0.00     0.02  -0.00   0.01
     4   1    -0.07  -0.01  -0.03     0.01   0.00   0.00     0.03   0.01   0.01
     5   6    -0.01   0.01  -0.00     0.00   0.00   0.00     0.00  -0.00  -0.00
     6   6     0.23  -0.18   0.02    -0.03   0.01  -0.00    -0.10   0.08  -0.00
     7   8    -0.03   0.02  -0.00     0.00  -0.01  -0.00     0.02   0.01   0.01
     8   8    -0.10   0.07   0.00     0.02   0.02   0.02     0.06  -0.11  -0.02
     9   6     0.07   0.02  -0.03     0.00  -0.01  -0.03    -0.06   0.02  -0.01
    10   6    -0.01   0.03   0.01    -0.02   0.03  -0.05     0.01   0.07   0.00
    11   1    -0.76  -0.02   0.06     0.24   0.01  -0.01    -0.54  -0.00   0.08
    12   1     0.12   0.08  -0.07    -0.47   0.02   0.03     0.63  -0.05  -0.07
    13   1     0.04   0.14  -0.03     0.09   0.28  -0.07     0.06   0.13  -0.13
    14   1    -0.15  -0.32   0.14    -0.04  -0.42   0.08    -0.06  -0.30   0.12
    15   1     0.25   0.07   0.18     0.24  -0.18   0.59     0.21  -0.11   0.21
                     28                     29                     30
                      A                      A                      A
 Frequencies --   1413.5852              1431.5512              1460.2673
 Red. masses --      1.1828                 1.3432                 1.0703
 Frc consts  --      1.3925                 1.6218                 1.3447
 IR Inten    --     63.0042                59.2919                64.2488
  Atom  AN      X      Y      Z        X      Y      Z        X      Y      Z
     1   8    -0.01  -0.01   0.00     0.01   0.01  -0.00     0.01   0.01   0.00
     2   1     0.03   0.15   0.03    -0.02  -0.13  -0.01    -0.02  -0.08  -0.01
     3   6    -0.01   0.00  -0.00    -0.01   0.00  -0.00     0.00  -0.00   0.00
     4   1    -0.01  -0.00  -0.00    -0.02  -0.00  -0.01     0.00  -0.00   0.00
     5   6    -0.00   0.00   0.00    -0.00   0.00   0.00     0.00   0.00  -0.00
     6   6     0.04  -0.02   0.01     0.06  -0.03   0.01    -0.00   0.00  -0.00
     7   8    -0.01  -0.01  -0.01    -0.01  -0.00  -0.01     0.00   0.00   0.00
     8   8    -0.02   0.03  -0.01    -0.03   0.04  -0.01     0.00  -0.01   0.00
     9   6    -0.05  -0.01   0.02    -0.11  -0.02   0.05     0.03   0.02  -0.01
    10   6    -0.06  -0.03   0.07     0.07   0.03  -0.03    -0.04   0.01   0.05
    11   1     0.34   0.01  -0.17     0.47  -0.00  -0.18    -0.10   0.01   0.03
    12   1     0.28   0.12  -0.10     0.52   0.15  -0.13    -0.11  -0.06   0.05
    13   1     0.19   0.36  -0.39    -0.02  -0.22  -0.01    -0.03  -0.33  -0.57
    14   1     0.28   0.10  -0.06    -0.12  -0.27   0.10     0.58  -0.26  -0.08
    15   1     0.46  -0.21  -0.22    -0.34   0.12   0.33    -0.24   0.22   0.11
                     31                     32                     33
                      A                      A                      A
 Frequencies --   1499.3033              1823.5450              2271.9477
 Red. masses --      1.1022                11.7965                 5.7387
 Frc consts  --      1.4598                23.1119                17.4526
 IR Inten    --     22.6268               347.8718                87.6054
  Atom  AN      X      Y      Z        X      Y      Z        X      Y      Z
     1   8    -0.00  -0.00   0.00    -0.00  -0.00   0.00     0.00  -0.00  -0.00
     2   1    -0.00   0.01  -0.00    -0.00  -0.07  -0.04    -0.00   0.01   0.00
     3   6    -0.01   0.00  -0.00    -0.07   0.01  -0.02    -0.36   0.03  -0.11
     4   1    -0.01  -0.00  -0.00    -0.10   0.03  -0.02    -0.72   0.05  -0.22
     5   6    -0.00   0.00   0.00     0.03  -0.02   0.01     0.51  -0.03   0.16
     6   6     0.03  -0.01   0.01     0.38   0.59   0.34    -0.09  -0.00  -0.03
     7   8    -0.01  -0.01  -0.01    -0.25  -0.39  -0.22     0.00   0.00   0.00
     8   8    -0.02   0.02  -0.01    -0.01  -0.06  -0.02    -0.00   0.00   0.00
     9   6    -0.02   0.04  -0.06     0.04   0.01   0.02     0.00  -0.00  -0.00
    10   6     0.00   0.00  -0.00    -0.01   0.02  -0.01    -0.00  -0.00   0.00
    11   1     0.25   0.12   0.65    -0.19  -0.02  -0.12     0.00  -0.00   0.00
    12   1     0.19  -0.62   0.25    -0.11   0.13  -0.00    -0.00  -0.00   0.00
    13   1     0.01   0.04  -0.01    -0.03  -0.04   0.03     0.00   0.00   0.00
    14   1    -0.01  -0.02   0.01     0.03  -0.00  -0.01     0.00   0.00  -0.00
    15   1     0.03  -0.03   0.01    -0.04  -0.10   0.03     0.00  -0.00  -0.00
                     34                     35                     36
                      A                      A                      A
 Frequencies --   3098.6618              3106.1222              3150.6166
 Red. masses --      1.0579                 1.0570                 1.1081
 Frc consts  --      5.9849                 6.0083                 6.4806
 IR Inten    --     13.8612                 5.5752                 3.3719
  Atom  AN      X      Y      Z        X      Y      Z        X      Y      Z
     1   8     0.00  -0.00  -0.00    -0.00   0.00   0.00     0.00   0.00  -0.00
     2   1    -0.00  -0.00   0.00     0.00   0.00  -0.00    -0.00   0.00   0.00
     3   6    -0.00   0.00  -0.00    -0.00   0.00  -0.00    -0.00   0.00  -0.00
     4   1     0.00   0.00  -0.00     0.00  -0.00   0.00     0.00  -0.00   0.00
     5   6     0.00  -0.00   0.00     0.00  -0.00   0.00     0.00   0.00  -0.00
     6   6    -0.00   0.00   0.00    -0.00   0.00   0.00    -0.00  -0.00  -0.00
     7   8    -0.00  -0.00  -0.00    -0.00  -0.00  -0.00     0.00   0.00   0.00
     8   8     0.00  -0.00   0.00     0.00  -0.00   0.00     0.00   0.00  -0.00
     9   6     0.01  -0.03   0.06     0.00   0.01   0.01    -0.00  -0.08  -0.04
    10   6    -0.01   0.00  -0.00     0.04  -0.03  -0.04     0.01  -0.01   0.00
    11   1    -0.05   0.67  -0.06     0.00  -0.02   0.00    -0.05   0.73  -0.08
    12   1    -0.10  -0.33  -0.64    -0.02  -0.07  -0.14     0.09   0.29   0.58
    13   1     0.10  -0.04   0.03    -0.64   0.21  -0.14    -0.15   0.05  -0.03
    14   1    -0.01  -0.00  -0.03     0.20   0.16   0.66     0.00  -0.00   0.01
    15   1    -0.00   0.01   0.00     0.01  -0.00  -0.01     0.00   0.01   0.00
                     37                     38                     39
                      A                      A                      A
 Frequencies --   3181.0447              3490.2555              3749.4910
 Red. masses --      1.1073                 1.1715                 1.0664
 Frc consts  --      6.6016                 8.4086                 8.8333
 IR Inten    --      4.6368                63.2877               137.5678
  Atom  AN      X      Y      Z        X      Y      Z        X      Y      Z
     1   8     0.00   0.00   0.00    -0.00   0.00   0.00    -0.05   0.01   0.03
     2   1    -0.00  -0.00  -0.00     0.00  -0.00  -0.00     0.83  -0.11  -0.54
     3   6     0.00  -0.00   0.00    -0.11   0.01  -0.03     0.00  -0.00   0.00
     4   1    -0.00  -0.00  -0.00     0.95  -0.07   0.29    -0.00  -0.00  -0.00
     5   6    -0.00   0.00  -0.00     0.03  -0.00   0.01     0.00   0.00   0.00
     6   6     0.00  -0.00  -0.00    -0.00   0.00  -0.00    -0.00  -0.00  -0.00
     7   8     0.00   0.00   0.00     0.00  -0.00  -0.00     0.00   0.00   0.00
     8   8     0.00   0.00   0.00     0.00   0.00   0.00    -0.00   0.00   0.00
     9   6    -0.00  -0.01  -0.01    -0.00   0.00  -0.00     0.00  -0.00  -0.00
    10   6    -0.07   0.00  -0.06     0.00  -0.00   0.00     0.00   0.00  -0.00
    11   1    -0.00   0.03  -0.00     0.00  -0.00   0.00    -0.00   0.00   0.00
    12   1     0.01   0.05   0.10     0.00   0.00   0.00    -0.00   0.00   0.00
    13   1     0.64  -0.23   0.13     0.00  -0.00  -0.00    -0.00  -0.00   0.00
    14   1     0.19   0.17   0.65    -0.00   0.00  -0.00     0.00  -0.00   0.00
    15   1    -0.01   0.01  -0.01    -0.00   0.00   0.00    -0.01  -0.02   0.00

 -------------------
 - Thermochemistry -
 -------------------
 Temperature   298.150 Kelvin.  Pressure   1.00000 Atm.
 Atom     1 has atomic number  8 and mass  15.99491
 Atom     2 has atomic number  1 and mass   1.00783
 Atom     3 has atomic number  6 and mass  12.00000
 Atom     4 has atomic number  1 and mass   1.00783
 Atom     5 has atomic number  6 and mass  12.00000
 Atom     6 has atomic number  6 and mass  12.00000
 Atom     7 has atomic number  8 and mass  15.99491
 Atom     8 has atomic number  8 and mass  15.99491
 Atom     9 has atomic number  6 and mass  12.00000
 Atom    10 has atomic number  6 and mass  12.00000
 Atom    11 has atomic number  1 and mass   1.00783
 Atom    12 has atomic number  1 and mass   1.00783
 Atom    13 has atomic number  1 and mass   1.00783
 Atom    14 has atomic number  1 and mass   1.00783
 Atom    15 has atomic number  1 and mass   1.00783
 Molecular mass:   115.03952 amu.
 Principal axes and moments of inertia in atomic units:
                           1         2         3
     Eigenvalues --   541.060521519.789311853.21550
           X            0.99968  -0.02527   0.00304
           Y            0.02529   0.99967  -0.00505
           Z           -0.00291   0.00512   0.99998
 This molecule is an asymmetric top.
 Rotational symmetry number  1.
 Warning -- assumption of classical behavior for rotation
           may cause significant error
 Rotational temperatures (Kelvin)      0.16008     0.05699     0.04674
 Rotational constants (GHZ):           3.33556     1.18749     0.97384
    2 imaginary frequencies ignored.
 Zero-point vibrational energy     282660.2 (Joules/Mol)
                                   67.55741 (Kcal/Mol)
 Warning -- explicit consideration of  11 degrees of freedom as
           vibrations may cause significant error
 Vibrational temperatures:    126.56   152.85   226.88   270.75   391.99
          (Kelvin)            415.48   489.23   597.36   616.85   815.68
                              878.74  1007.40  1074.58  1122.05  1135.53
                             1259.06  1314.08  1350.47  1450.95  1568.21
                             1627.96  1705.69  1860.15  1888.15  1948.06
                             2033.83  2059.68  2101.00  2157.16  2623.67
                             3268.83  4458.28  4469.02  4533.03  4576.81
                             5021.70  5394.68
 
 Zero-point correction=                           0.107660 (Hartree/Particle)
 Thermal correction to Energy=                    0.116045
 Thermal correction to Enthalpy=                  0.116989
 Thermal correction to Gibbs Free Energy=         0.073763
 Sum of electronic and zero-point Energies=           -420.093395
 Sum of electronic and thermal Energies=              -420.085009
 Sum of electronic and thermal Enthalpies=            -420.084065
 Sum of electronic and thermal Free Energies=         -420.127291
 
                     E (Thermal)             CV                S
                      KCal/Mol        Cal/Mol-Kelvin    Cal/Mol-Kelvin
 Total                   72.819             29.903             90.976
 Electronic               0.000              0.000              1.377
 Translational            0.889              2.981             40.136
 Rotational               0.889              2.981             28.812
 Vibrational             71.042             23.941             20.651
 Vibration     1          0.601              1.958              3.705
 Vibration     2          0.605              1.944              3.337
 Vibration     3          0.621              1.894              2.577
 Vibration     4          0.633              1.856              2.246
 Vibration     5          0.675              1.724              1.581
 Vibration     6          0.685              1.695              1.481
 Vibration     7          0.720              1.595              1.212
 Vibration     8          0.779              1.437              0.908
 Vibration     9          0.790              1.408              0.863
 Vibration    10          0.923              1.103              0.510
 Vibration    11          0.970              1.009              0.432
                       Q            Log10(Q)             Ln(Q)
 Total Bot       0.117828D-33        -33.928751        -78.123835
 Total V=0       0.390103D+16         15.591179         35.900017
 Vib (Bot)       0.274898D-47        -47.560828       -109.512854
 Vib (Bot)    1  0.233818D+01          0.368879          0.849374
 Vib (Bot)    2  0.192943D+01          0.285428          0.657223
 Vib (Bot)    3  0.128296D+01          0.108213          0.249171
 Vib (Bot)    4  0.106426D+01          0.027047          0.062278
 Vib (Bot)    5  0.708460D+00         -0.149685         -0.344662
 Vib (Bot)    6  0.662675D+00         -0.178700         -0.411471
 Vib (Bot)    7  0.546074D+00         -0.262748         -0.605000
 Vib (Bot)    8  0.424472D+00         -0.372151         -0.856910
 Vib (Bot)    9  0.406802D+00         -0.390617         -0.899428
 Vib (Bot)   10  0.272298D+00         -0.564956         -1.300859
 Vib (Bot)   11  0.241776D+00         -0.616586         -1.419742
 Vib (V=0)       0.910127D+02          1.959102          4.510999
 Vib (V=0)    1  0.289105D+01          0.461055          1.061618
 Vib (V=0)    2  0.249316D+01          0.396750          0.913551
 Vib (V=0)    3  0.187695D+01          0.273453          0.629648
 Vib (V=0)    4  0.167586D+01          0.224237          0.516326
 Vib (V=0)    5  0.136713D+01          0.135810          0.312714
 Vib (V=0)    6  0.133014D+01          0.123898          0.285287
 Vib (V=0)    7  0.124040D+01          0.093563          0.215437
 Vib (V=0)    8  0.115588D+01          0.062912          0.144860
 Vib (V=0)    9  0.114458D+01          0.058648          0.135041
 Vib (V=0)   10  0.106934D+01          0.029115          0.067040
 Vib (V=0)   11  0.105539D+01          0.023412          0.053908
 Electronic      0.200000D+01          0.301030          0.693147
 Translational   0.484981D+08          7.685724         17.697035
 Rotational      0.441899D+06          5.645323         12.998837
 ***** Axes restored to original set *****
 -------------------------------------------------------------------
 Center     Atomic                   Forces (Hartrees/Bohr)
 Number     Number              X              Y              Z
 -------------------------------------------------------------------
      1        8           0.000394426    0.004676836    0.000871387
      2        1          -0.000082300   -0.000067215    0.000037306
      3        6          -0.000004527    0.000007823    0.000000207
      4        1           0.000000097   -0.000003465   -0.000001440
      5        6          -0.000002450    0.000035278    0.000025823
      6        6           0.000107767   -0.000309678   -0.000090891
      7        8           0.000155258    0.000194695   -0.000072147
      8        8          -0.000262168    0.000256194    0.000048129
      9        6           0.000152151   -0.000671342    0.000138353
     10        6           0.000143000   -0.000771868   -0.000481854
     11        1          -0.000105827   -0.000020902    0.000056595
     12        1          -0.000032139    0.000005717   -0.000012873
     13        1          -0.000155678   -0.000557877   -0.000043386
     14        1           0.000030170   -0.000726587    0.000126130
     15        1          -0.000337778   -0.002047611   -0.000601338
 -------------------------------------------------------------------
 Cartesian Forces:  Max     0.004676836 RMS     0.000816905

 GradGradGradGradGradGradGradGradGradGradGradGradGradGradGradGradGradGrad
 Berny optimization.
 Search for a local minimum.
 Step number   1 out of a maximum of    2
 All quantities printed in internal units (Hartrees-Bohrs-Radians)
 Second derivative matrix not updated -- analytic derivatives used.
 ITU=  0
     Eigenvalues ---   -0.09596  -0.00002   0.00121   0.00194   0.00388
     Eigenvalues ---    0.00427   0.00948   0.00969   0.01482   0.02261
     Eigenvalues ---    0.02968   0.03331   0.04310   0.05230   0.06410
     Eigenvalues ---    0.06959   0.07419   0.09032   0.09268   0.09515
     Eigenvalues ---    0.09684   0.12058   0.15949   0.17015   0.19046
     Eigenvalues ---    0.25311   0.29885   0.38390   0.45416   0.55211
     Eigenvalues ---    0.65145   0.72042   0.80209   0.85344   0.90252
     Eigenvalues ---    0.91217   0.94427   1.69213   2.74334
 Eigenvalue     1 is  -9.60D-02 should be greater than     0.000000 Eigenvector:
                          Y15       Y1        Y14       Y13       Z15
   1                    0.74234  -0.54044   0.20105   0.17963   0.15666
                          X15       X1        Z1        Y9        Z7
   1                    0.08063  -0.07930  -0.07821   0.07654   0.07283
 Eigenvalue     2 is  -2.30D-05 should be greater than     0.000000 Eigenvector:
                          Z1        X1        Z7        Y4        X14
   1                    0.39491   0.38511  -0.35574  -0.26813  -0.26539
                          Z13       X2        Y12       Y3        Y7
   1                   -0.26391   0.21123   0.18755  -0.17509   0.16042
 Quadratic step=4.530D-01 exceeds max=3.000D-01 adjusted using Lamda=-1.198D-05.
 Angle between NR and scaled steps=   3.50 degrees.
 Angle between quadratic step and forces=  80.98 degrees.
 Linear search not attempted -- first point.
 B after Tr=    -0.002360    0.001767    0.000568
         Rot=    0.999999    0.000193   -0.001411   -0.000804 Ang=   0.19 deg.
 Variable       Old X    -DE/DX   Delta X   Delta X   Delta X     New X
                                 (Linear)    (Quad)   (Total)
    X1        4.32344   0.00039   0.00000  -0.10467  -0.11436   4.20908
    Y1        3.20904   0.00468   0.00000   0.06705   0.07531   3.28435
    Z1       -0.60755   0.00087   0.00000  -0.11679  -0.12938  -0.73693
    X2        2.78656  -0.00008   0.00000  -0.06116  -0.06803   2.71853
    Y2        3.40106  -0.00007   0.00000   0.00692   0.01319   3.41425
    Z2        0.38772   0.00004   0.00000  -0.03762  -0.04605   0.34167
    X3       -6.37383  -0.00000   0.00000   0.03077   0.02495  -6.34888
    Y3        0.40339   0.00001   0.00000   0.05323   0.04442   0.44781
    Z3       -0.95723   0.00000   0.00000  -0.02057  -0.00227  -0.95950
    X4       -8.29373   0.00000   0.00000   0.03896   0.03117  -8.26256
    Y4        0.53980  -0.00000   0.00000   0.08094   0.06883   0.60863
    Z4       -1.54564  -0.00000   0.00000  -0.04098  -0.01734  -1.56299
    X5       -4.21542  -0.00000   0.00000   0.02161   0.01801  -4.19741
    Y5        0.24912   0.00004   0.00000   0.02037   0.01529   0.26442
    Z5       -0.29378   0.00003   0.00000   0.00187   0.01417  -0.27961
    X6       -1.59900   0.00011   0.00000   0.01122   0.01024  -1.58876
    Y6        0.16227  -0.00031   0.00000  -0.01693  -0.01749   0.14478
    Z6        0.53483  -0.00009   0.00000   0.03158   0.03657   0.57140
    X7       -0.53813   0.00016   0.00000   0.00578   0.00501  -0.53312
    Y7        1.91223   0.00019   0.00000  -0.05056  -0.04902   1.86320
    Z7        1.52700  -0.00007   0.00000   0.09902   0.10037   1.62737
    X8       -0.56757  -0.00026   0.00000   0.00928   0.01041  -0.55716
    Y8       -2.07997   0.00026   0.00000  -0.00500  -0.00411  -2.08408
    Z8        0.07077   0.00005   0.00000  -0.02442  -0.02148   0.04930
    X9        2.01626   0.00015   0.00000   0.00018   0.00421   2.02047
    Y9       -2.44413  -0.00067   0.00000  -0.03512  -0.02978  -2.47391
    Z9        0.85636   0.00014   0.00000  -0.00150  -0.00568   0.85068
   X10        3.86348   0.00014   0.00000   0.02694   0.02398   3.88746
   Y10       -1.50616  -0.00077   0.00000  -0.00829  -0.00068  -1.50684
   Z10       -1.09971  -0.00048   0.00000   0.03160   0.02177  -1.07794
   X11        2.17258  -0.00011   0.00000  -0.01385  -0.00596   2.16662
   Y11       -4.48546  -0.00002   0.00000  -0.03846  -0.03281  -4.51827
   Z11        1.08784   0.00006   0.00000  -0.03118  -0.03498   1.05286
   X12        2.30303  -0.00003   0.00000  -0.01668  -0.00888   2.29415
   Y12       -1.53117   0.00001   0.00000  -0.06250  -0.05601  -1.58718
   Z12        2.68287  -0.00001   0.00000   0.01476   0.00948   2.69234
   X13        5.77349  -0.00016   0.00000   0.02769   0.02698   5.80047
   Y13       -2.17033  -0.00056   0.00000   0.01870   0.02954  -2.14079
   Z13       -0.70628  -0.00004   0.00000   0.07776   0.06278  -0.64350
   X14        3.29465   0.00003   0.00000   0.07620   0.06861   3.36326
   Y14       -1.98068  -0.00073   0.00000  -0.03959  -0.03357  -2.01425
   Z14       -3.02170   0.00013   0.00000   0.02459   0.01643  -3.00527
   X15        4.07253  -0.00034   0.00000  -0.01993  -0.02634   4.04619
   Y15        0.70942  -0.00205   0.00000  -0.03099  -0.02311   0.68631
   Z15       -1.04944  -0.00060   0.00000   0.00674  -0.00439  -1.05383
         Item               Value     Threshold  Converged?
 Maximum Force            0.004677     0.000450     NO 
 RMS     Force            0.000817     0.000300     NO 
 Maximum Displacement     0.129381     0.001800     NO 
 RMS     Displacement     0.044005     0.001200     NO 
 Predicted change in Energy=-3.522716D-04
 GradGradGradGradGradGradGradGradGradGradGradGradGradGradGradGradGradGrad


 ----------------------------------------------------------------------

 Electric dipole moment (input orientation):
 (Debye = 10**-18 statcoulomb cm , SI units = C m)
                  (au)            (Debye)         (10**-30 SI)
   Tot        0.141354D+01      0.359285D+01      0.119845D+02
   x         -0.769846D+00     -0.195675D+01     -0.652703D+01
   y         -0.118546D+01     -0.301315D+01     -0.100508D+02
   z         -0.977698D-02     -0.248506D-01     -0.828927D-01

 Dipole polarizability, Alpha (input orientation).
 (esu units = cm**3 , SI units = C**2 m**2 J**-1)
 Alpha(0;0):
               (au)            (10**-24 esu)      (10**-40 SI)
   iso        0.746329D+02      0.110594D+02      0.123053D+02
   aniso      0.387489D+02      0.574200D+01      0.638884D+01
   xx         0.932720D+02      0.138215D+02      0.153785D+02
   yx        -0.638820D+00     -0.946634D-01     -0.105327D+00
   yy         0.785020D+02      0.116328D+02      0.129432D+02
   zx         0.769759D+01      0.114066D+01      0.126916D+01
   zy         0.251528D+01      0.372726D+00      0.414714D+00
   zz         0.521246D+02      0.772406D+01      0.859418D+01

 ----------------------------------------------------------------------

 Dipole orientation:
     8          1.22528696         -1.56171861         -5.04171239
     1          0.60117366          0.03584468         -4.37261106
     6         -5.17694302          2.24643788          3.13966149
     1         -6.90661000          2.67578223          4.07495050
     6         -3.23093567          1.76510686          2.08892396
     6         -0.90475920          1.23131271          0.73106161
     8         -0.42525115          2.08604673         -1.32117314
     8          0.59714210         -0.28646700          2.05298986
     6          3.00456220         -0.92226387          0.94574703
     6          2.80333060         -3.13865582         -0.83339869
     1          4.17913662         -1.39561936          2.57097413
     1          3.78054258          0.74401772          0.01127326
     1          4.66260187         -3.88095443         -1.31934637
     1          1.57588935         -4.62735982         -0.11234315
     1          1.95830454         -2.54621180         -2.80569672

 Electric dipole moment (dipole orientation):
 (Debye = 10**-18 statcoulomb cm , SI units = C m)
                  (au)            (Debye)         (10**-30 SI)
   Tot        0.141354D+01      0.359285D+01      0.119845D+02
   x          0.000000D+00      0.000000D+00      0.000000D+00
   y          0.000000D+00      0.000000D+00      0.000000D+00
   z          0.141354D+01      0.359285D+01      0.119845D+02

 Dipole polarizability, Alpha (dipole orientation).
 (esu units = cm**3 , SI units = C**2 m**2 J**-1)
 Alpha(0;0):
               (au)            (10**-24 esu)      (10**-40 SI)
   iso        0.746329D+02      0.110594D+02      0.123053D+02
   aniso      0.387489D+02      0.574200D+01      0.638884D+01
   xx         0.829749D+02      0.122956D+02      0.136807D+02
   yx        -0.150492D+02     -0.223006D+01     -0.248128D+01
   yy         0.585383D+02      0.867448D+01      0.965166D+01
   zx        -0.878784D+01     -0.130222D+01     -0.144892D+01
   zy        -0.155769D+01     -0.230826D+00     -0.256829D+00
   zz         0.823853D+02      0.122082D+02      0.135835D+02

 ----------------------------------------------------------------------
 1\1\GINC-AJ\Freq\UM062X\6-311++G(d,p)\C5H7O3(2)\AAYUSH\23-Jun-2025\0\\
 # freq 6-311++g(d,p) m062x\\Title Card Required\\0,2\O,2.287865,1.6981
 5,-0.321499\H,1.474583,1.799762,0.205172\C,-3.372885,0.213463,-0.50654
 2\H,-4.388851,0.28565,-0.817919\C,-2.230705,0.131831,-0.155464\C,-0.84
 6153,0.085872,0.283021\O,-0.284767,1.011906,0.808055\O,-0.300343,-1.10
 0672,0.037451\C,1.066957,-1.293377,0.453165\C,2.044467,-0.797024,-0.58
 1943\H,1.14968,-2.373603,0.575659\H,1.21871,-0.810258,1.419713\H,3.055
 199,-1.148489,-0.373746\H,1.743455,-1.048133,-1.599014\H,2.155089,0.37
 541,-0.555339\\Version=ES64L-G16RevA.03\State=2-A\HF=-420.2010542\S2=0
 .75844\S2-1=0.\S2A=0.750036\RMSD=4.190e-09\RMSF=8.169e-04\ZeroPoint=0.
 1076596\Thermal=0.1160448\Dipole=-0.7698459,-1.1854643,-0.009777\Dipol
 eDeriv=-0.4424053,0.075496,-0.0419818,0.0689328,0.2074293,0.0577797,0.
 0001914,0.1085461,-0.4080497,0.3947715,-0.0419867,0.0245498,0.1051346,
 0.42309,-0.0000571,-0.0009554,0.072447,0.2799,-0.2250974,0.0020164,-0.
 0142501,0.0113724,-0.1479638,-0.0018951,-0.0205548,-0.0055445,-0.13803
 44,0.2771765,-0.0057135,0.0185345,-0.0057164,0.223239,0.0047344,0.0213
 533,0.004334,0.2135136,-0.6860674,0.0389412,-0.154422,0.0629752,-0.115
 0044,0.0025988,-0.1883089,0.0080631,-0.1418974,2.0881397,-0.1711292,0.
 3922751,-0.5946666,1.61127,0.3744548,0.3127059,0.3949182,0.6643908,-0.
 9892787,-0.2197484,-0.2167411,-0.1077467,-0.8781105,-0.2446521,-0.1484
 093,-0.2901413,-0.5384702,-1.3838164,0.4186526,-0.0249657,0.7123957,-0
 .9718134,-0.1077524,-0.0513761,-0.0763627,-0.3630956,0.9509108,-0.0960
 036,0.0021033,-0.1976824,0.0828856,-0.0235968,0.0970825,-0.0882258,0.2
 735303,-0.0359649,0.1346298,0.0038115,0.1778912,0.8840137,0.0623883,0.
 0082342,-0.0139928,-0.0118408,-0.0254278,-0.0729231,0.0154659,0.036428
 5,-0.0603488,0.042032,0.0084248,0.0580543,0.0809517,-0.024091,0.017711
 1,0.0318798,-0.0146271,0.0631649,-0.0759477,-0.0217602,-0.0049694,-0.0
 311533,-0.0653102,0.0150241,-0.0091099,0.0323022,-0.0529836,0.0160843,
 -0.0154117,0.0018329,0.0651137,0.0587818,-0.0170718,-0.0464303,-0.0642
 669,-0.0863646,-0.0452353,0.0070365,0.0180554,-0.0380443,0.1076787,-0.
 0778948,0.019281,-0.2227266,-1.1825033,-0.0609358,-0.008252,-0.1870144
 ,0.0931856\Polar=93.2720311,-0.6388202,78.5019666,7.6975867,2.5152803,
 52.1245635\Quadrupole=4.4707941,-3.3344541,-1.13634,-6.1862442,3.075,-
 0.5194157\PG=C01 [X(C5H7O3)]\NImag=2\\0.36494927,-0.03359020,0.0306412
 9,-0.23107895,0.02527660,0.15266418,-0.35020591,0.04957997,0.22571263,
 0.35287672,0.03044250,-0.02879664,-0.02404026,-0.04311049,0.03271020,0
 .22101485,-0.03607170,-0.15021764,-0.22415679,0.03332708,0.15275183,-0
 .00020420,-0.00006300,0.00017004,0.00033446,0.00041776,-0.00015125,1.4
 3627365,-0.00003405,0.00000905,-0.00009899,0.00006008,-0.00010117,0.00
 011944,-0.09693832,0.06432504,-0.00005246,-0.00004285,0.00013906,0.000
 07166,0.00006972,-0.00018925,0.42230610,-0.03134153,0.19097629,0.00010
 081,-0.00000229,-0.00001166,-0.00013648,-0.00007502,-0.00000499,-0.388
 40444,0.02525110,-0.10983694,0.37871606,0.00003751,0.00003490,0.000009
 72,-0.00005681,0.00002573,0.00001806,0.02530429,-0.02932911,0.00864429
 ,-0.02552343,0.01872310,0.00004985,0.00003823,-0.00005323,-0.00007268,
 -0.00004780,0.00006013,-0.10975787,0.00864573,-0.06369626,0.11058383,-
 0.00819076,0.05197562,-0.00051075,-0.00001584,0.00048302,0.00094577,0.
 00059782,-0.00052786,-1.04725858,0.07215322,-0.31095804,0.00977276,0.0
 0018020,0.00056454,1.36852223,-0.00030627,-0.00045175,0.00032037,0.000
 46640,0.00017233,-0.00072890,0.07046578,-0.03962556,0.02199797,-0.0000
 4800,0.00513215,-0.00105704,-0.09080555,0.11224934,-0.00065961,-0.0003
 9932,0.00026469,0.00097307,0.00083036,-0.00020281,-0.31148094,0.022532
 99,-0.13030151,0.00054822,-0.00095742,0.00779722,0.40078926,-0.0126031
 0,0.19089535,0.00118609,-0.00018598,-0.00046092,-0.00316100,-0.0033514
 6,-0.00051029,0.00572184,-0.00145635,0.00041611,-0.00105441,0.00010654
 ,-0.00222944,-0.25652996,0.01044091,-0.05577608,0.70434394,0.00812984,
 0.00619749,-0.00134148,-0.01288679,-0.00259311,0.00362176,-0.00152987,
 0.00329208,-0.00035991,0.00089615,0.00549201,0.00016783,0.02019551,-0.
 06183496,0.01148784,0.10932664,0.78021228,0.00347282,0.00250576,-0.001
 50623,-0.00562036,-0.00143858,0.00235946,0.00017536,-0.00040488,0.0025
 4898,-0.00196018,-0.00002421,0.00518181,-0.05230062,0.00753148,-0.0884
 8675,0.20356261,0.24136213,0.36714144,-0.00735388,-0.00568005,0.002736
 80,-0.00039170,0.00209942,0.00085525,-0.00276581,0.00108957,-0.0006392
 6,0.00053992,0.00130036,0.00099687,-0.03652789,-0.03740804,-0.03302924
 ,-0.26009167,-0.23285757,-0.14324627,0.27067033,-0.00755441,-0.0040257
 8,0.00199875,0.00669687,0.00076113,-0.00201161,0.00222064,0.00084977,0
 .00090178,-0.00008209,-0.00009708,0.00032960,-0.03104228,-0.00203882,-
 0.01915299,-0.22849503,-0.46226751,-0.21392293,0.26850761,0.56190186,0
 .00134784,0.00050700,0.00160737,0.00315325,0.00003624,-0.00406644,-0.0
 0001927,0.00049414,0.00055364,0.00045768,0.00071786,-0.00060199,-0.030
 25089,-0.02016425,0.00406385,-0.14307648,-0.22021449,-0.20764645,0.170
 27257,0.27922480,0.19600353,0.00263646,0.00237381,0.00037217,-0.004360
 36,0.00056534,0.00122125,-0.00449669,-0.00010731,-0.00161176,0.0007293
 1,-0.00133299,-0.00010540,-0.04085001,0.04576909,-0.00105169,-0.155801
 95,0.08582810,0.00256647,0.03702264,0.00192890,-0.00019409,0.42588783,
 -0.00356060,-0.00349190,0.00037594,0.00659630,0.00023129,-0.00233836,-
 0.00013547,0.00026007,-0.00014256,-0.00051368,-0.00004760,-0.00006502,
 0.02694770,-0.01084283,0.00113399,0.06725480,-0.25244571,-0.04776640,-
 0.00227569,-0.09932086,-0.04515426,-0.13490711,0.44031740,-0.00068365,
 -0.00071621,0.00050967,0.00119967,-0.00012195,-0.00077284,-0.00165784,
 -0.00011345,-0.00012736,0.00018076,-0.00032961,-0.00043760,-0.00734014
 ,0.00734573,0.01125447,-0.00585832,-0.03864303,-0.08286484,-0.00047229
 ,-0.04594642,0.01440683,0.07066414,0.08703026,0.14053861,-0.00186347,-
 0.00100681,-0.00048135,0.00415861,-0.00090945,-0.00114048,0.00154275,0
 .00002623,0.00048848,-0.00038621,0.00009939,-0.00002662,0.00439422,-0.
 00108962,-0.00016844,-0.03097247,0.04463240,0.00350350,-0.00596428,-0.
 01976870,-0.00690290,-0.17123022,0.01063330,-0.03937383,0.43054697,0.0
 0088927,0.00770210,0.00161867,-0.00226408,0.00085150,0.00159912,0.0001
 9585,0.00026432,0.00028359,0.00010722,0.00009222,0.00018538,0.00203140
 ,-0.00274467,-0.00291540,0.04358817,-0.01637655,0.01160909,0.00275102,
 0.00365053,0.00337152,-0.00818718,-0.08246579,-0.01047745,0.00108830,0
 .61902547,-0.00084272,-0.00286491,-0.00089377,0.00045866,0.00024313,0.
 00092324,0.00067691,0.00015468,0.00006740,-0.00000174,0.00015149,-0.00
 024251,-0.00014537,-0.00336505,0.00527752,0.00435826,0.01554071,0.0065
 2453,-0.00234044,-0.00363530,-0.00718299,-0.04740591,-0.00459820,-0.08
 704175,-0.00196808,0.03715426,0.56868766,-0.00164126,-0.01739100,-0.00
 078018,0.00098964,0.00302643,-0.00189083,-0.00020856,-0.00004753,-0.00
 003843,0.00003037,-0.00004158,0.00007546,-0.00031238,0.00110707,-0.001
 32506,-0.00031096,-0.00607512,-0.00051140,0.00044344,0.00108456,0.0021
 7162,-0.04443490,-0.00589763,0.02158397,-0.12344571,-0.03029966,0.0542
 2466,0.55143494,-0.01620959,-0.11673686,-0.01752290,0.00823419,-0.0005
 4367,-0.00509267,0.00034897,-0.00012662,0.00008494,-0.00008391,0.00013
 156,-0.00001126,0.00035531,-0.00108661,0.00006365,-0.00010608,0.015882
 07,0.00414423,-0.00574695,-0.00767328,-0.00072884,0.01477079,-0.003926
 87,-0.00843286,-0.03859260,-0.08393920,0.03481766,-0.02187388,0.346058
 89,0.00109754,0.00083819,0.00218486,-0.00183880,-0.00120381,-0.0004370
 5,-0.00030094,-0.00004094,0.00001163,0.00003607,-0.00001204,0.00004364
 ,0.00014688,0.00058684,-0.00095253,0.00011811,-0.00439505,-0.00032316,
 0.00037301,0.00172324,0.00100172,-0.01055323,-0.00191839,0.01179731,0.
 06592480,0.03868292,-0.15809631,0.04360743,0.00482625,0.55134084,0.000
 39704,0.00141945,0.00021019,-0.00081540,0.00035096,0.00046086,-0.00043
 560,-0.00006485,-0.00014300,0.00005744,-0.00004733,-0.00004234,-0.0010
 7814,0.00115270,0.00069228,-0.00397645,-0.00389138,-0.00536128,0.00200
 974,0.00155571,0.00109500,-0.02158041,0.04299947,-0.00566879,-0.042192
 89,0.00490528,-0.00076804,0.00106693,-0.01907835,0.00268397,0.06563276
 ,-0.00009726,-0.00118182,-0.00026766,0.00012878,0.00023694,-0.00013727
 ,0.00009972,-0.00000234,-0.00001013,-0.00002654,0.00000671,-0.00000779
 ,0.00021016,-0.00019359,0.00016937,-0.00112203,0.00125537,0.00069363,0
 .00073316,0.00001761,0.00041926,0.00507968,-0.00348877,-0.00032609,0.0
 2008349,-0.31897997,0.02541628,-0.00261449,-0.01059693,0.00199707,-0.0
 2154309,0.34084920,0.00002142,-0.00028451,0.00011346,0.00028445,-0.000
 13609,-0.00046297,-0.00006970,-0.00001249,-0.00005985,0.00000472,-0.00
 000297,-0.00001835,-0.00038026,0.00022206,0.00039113,-0.00178183,-0.00
 271502,-0.00209083,0.00198290,-0.00024570,0.00117693,-0.00705247,0.013
 48609,-0.00077615,-0.00146923,0.02420097,-0.05401675,0.00132673,0.0236
 9406,-0.00335057,0.00337812,-0.03150350,0.05386475,0.00005439,0.000800
 29,-0.00035925,-0.00011890,-0.00003014,0.00025215,-0.00008432,0.000042
 01,0.00000940,0.00005303,-0.00000928,-0.00003162,-0.00048493,-0.000021
 63,0.00054033,0.00152042,-0.00759542,-0.00373529,0.00114401,0.00297783
 ,0.00166383,-0.02296115,-0.00914418,-0.03484514,-0.05319096,-0.0105351
 4,-0.02191972,0.00644030,0.00994225,0.02017432,0.00167756,0.00016108,0
 .00248547,0.06838208,0.00002977,0.00056183,-0.00055861,0.00031313,-0.0
 0049170,0.00046321,-0.00007656,0.00001313,0.00003006,-0.00000419,0.000
 00485,0.00003257,-0.00009012,0.00004041,-0.00076761,0.00207901,0.00219
 836,0.00204536,0.00039354,-0.00238689,0.00023315,0.00121208,0.00253280
 ,0.00761597,-0.01704457,-0.10725946,-0.11302551,0.00166810,0.00588324,
 0.01306273,-0.00364187,-0.01190705,-0.02758513,0.01642037,0.11061373,0
 .00004632,0.00035459,0.00056728,-0.00013252,0.00056836,-0.00036025,0.0
 0003582,0.00000327,0.00008058,0.00000439,-0.00001671,-0.00000547,-0.00
 004648,0.00027975,-0.00019474,0.00008434,-0.00511293,-0.00077504,0.002
 64808,0.00062871,0.00128389,-0.00990928,-0.00009573,-0.00702525,-0.030
 68424,-0.10604744,-0.25952050,-0.00086019,-0.00842797,-0.01943084,0.00
 152526,0.00165634,0.00567543,0.03437067,0.11636019,0.28093336,0.001250
 41,0.00209932,0.00034389,-0.00052449,-0.00052109,0.00027906,-0.0001010
 5,0.00000994,-0.00000351,0.00003170,-0.00001206,0.00001291,-0.00017884
 ,0.00024877,-0.00028301,0.00067443,-0.00329679,-0.00065898,0.00066008,
 0.00103826,0.00049325,-0.00409935,0.00049921,0.00393729,-0.01510346,0.
 00796898,-0.00750818,-0.28563554,0.08517853,-0.04834453,0.00049218,-0.
 00032790,-0.00038985,0.00006922,0.00004449,0.00059413,0.30734970,0.001
 09064,0.00854238,0.00036227,-0.00111454,-0.00041559,0.00138244,-0.0000
 4515,0.00001905,-0.00005473,0.00000561,-0.00002580,0.00001023,-0.00010
 025,0.00029785,0.00005181,-0.00054203,-0.00354493,-0.00078106,0.001343
 41,0.00151724,0.00015368,-0.00507288,0.00218727,0.00241521,-0.00944877
 ,0.00236758,-0.00331788,0.09273851,-0.06132884,0.02138905,0.00005739,0
 .00060212,-0.00073048,0.00010998,0.00008606,0.00013377,-0.09203705,0.0
 7008628,0.00058378,0.00142980,-0.00004223,-0.00004415,-0.00023731,0.00
 001265,0.00012500,0.00001408,0.00001489,-0.00000794,0.00001377,-0.0000
 1646,0.00005301,-0.00035615,0.00034156,0.00016703,0.00185531,0.0001168
 8,-0.00020165,-0.00048482,-0.00043505,0.00576127,0.00043170,-0.0026649
 3,0.01793169,-0.00903393,0.00684837,-0.04964584,0.01972097,-0.06059595
 ,-0.00041005,0.00017142,0.00108890,-0.00098950,-0.00060320,-0.00020217
 ,0.05236919,-0.02183876,0.05806733,-0.00037779,-0.00141830,0.00025556,
 0.00019077,0.00019478,0.00005811,0.00002061,-0.00000828,-0.00003309,-0
 .00002204,0.00000869,0.00000034,0.00004481,-0.00006024,0.00009235,-0.0
 0035651,0.00153016,0.00058259,-0.00032257,-0.00047448,-0.00038987,0.00
 347033,-0.00014241,-0.00110920,0.00484077,0.00612175,0.02266442,-0.070
 76913,-0.01940901,-0.07491046,0.00029339,0.00003242,-0.00061959,-0.002
 91112,-0.00175013,0.00314570,-0.00474699,-0.00824822,-0.02616744,0.071
 24080,0.00161371,0.00710199,0.00182667,-0.00193011,0.00035567,0.000462
 75,-0.00003314,0.00001232,-0.00000433,0.00002445,-0.00001302,-0.000008
 05,-0.00007836,0.00011795,0.00013515,0.00035680,-0.00193004,-0.0010145
 9,0.00079174,0.00127414,0.00014931,-0.00022019,0.00097263,-0.00059235,
 0.00516673,0.00373784,0.01272634,-0.02102241,-0.04895799,-0.06726790,0
 .00039760,0.00026408,-0.00044147,-0.00203932,-0.00045975,0.00092399,0.
 00260280,0.00285739,0.01134925,0.02187928,0.05405370,-0.00006642,-0.00
 211456,0.00036104,0.00029603,0.00014514,-0.00026852,0.00003829,-0.0000
 0880,0.00001630,0.00000003,0.00000149,0.00000336,0.00005848,-0.0000137
 0,-0.00007067,0.00015716,-0.00022385,-0.00033044,0.00007926,-0.0000087
 7,0.00025470,-0.00106094,-0.00047620,0.00272857,-0.00712172,-0.0064245
 5,-0.02054652,-0.07236541,-0.06068031,-0.28844533,0.00012441,0.0001788
 8,0.00027353,0.00282884,0.00239501,-0.00137027,0.00008086,-0.00143255,
 -0.00221188,0.07745914,0.06563269,0.31071623,-0.00841720,0.00308065,0.
 00288801,0.00021828,0.01030265,0.00424095,0.00006594,0.00002455,0.0000
 2473,-0.00002784,-0.00001349,-0.00001783,0.00005171,0.00008863,0.00013
 857,-0.00119134,-0.00240585,-0.00046896,0.00092763,0.00140662,0.000178
 46,0.00006847,0.00164597,-0.00055664,-0.00113365,-0.01836116,0.0005173
 0,-0.03364717,0.00227033,0.00178583,-0.00154816,-0.00079716,0.00227911
 ,0.00041036,0.00044697,-0.00082200,-0.00013798,0.02126336,0.00047560,-
 0.00059534,-0.00750958,-0.00050802,0.04495629,0.01911915,0.09389371,0.
 01204092,-0.01071290,-0.00240294,0.00538666,-0.00023150,0.00013995,-0.
 00005632,0.00007465,-0.00013066,-0.00002183,-0.00053891,0.00080875,0.0
 0039069,0.00210612,-0.01353688,-0.00453903,0.00495848,0.00783792,0.000
 95487,-0.00770013,0.00952888,0.00129225,0.00613070,-0.02592593,0.00460
 229,0.00563863,-0.03303890,-0.00826817,-0.00457170,0.00311843,0.002054
 19,-0.00107870,0.00057044,-0.00120820,-0.00349542,-0.02324807,-0.00243
 214,0.00174401,-0.01938691,0.00303009,-0.01144247,0.00177219,0.0057494
 0,0.01154388,-0.00569851,-0.00028411,-0.00799426,0.00087046,-0.0000897
 1,0.00005676,-0.00003452,0.00000776,-0.00002297,0.00001008,-0.00014551
 ,0.00000400,-0.00007678,0.00082975,-0.00102983,0.00015064,-0.00001559,
 0.00060167,-0.00041955,-0.00164053,0.00009714,0.00047525,0.00148841,0.
 01619326,-0.00078760,0.00442744,0.01354505,-0.03474824,0.00222341,0.00
 155018,-0.00180866,-0.00044450,0.00030182,0.00034399,-0.00092253,0.002
 25701,-0.00032193,-0.00102857,-0.02387745,-0.00111010,-0.01015512,-0.0
 1322627,0.04315548\\-0.00039443,-0.00467684,-0.00087139,0.00008230,0.0
 0006721,-0.00003731,0.00000453,-0.00000782,-0.00000021,-0.00000010,0.0
 0000346,0.00000144,0.00000245,-0.00003528,-0.00002582,-0.00010777,0.00
 030968,0.00009089,-0.00015526,-0.00019470,0.00007215,0.00026217,-0.000
 25619,-0.00004813,-0.00015215,0.00067134,-0.00013835,-0.00014300,0.000
 77187,0.00048185,0.00010583,0.00002090,-0.00005659,0.00003214,-0.00000
 572,0.00001287,0.00015568,0.00055788,0.00004339,-0.00003017,0.00072659
 ,-0.00012613,0.00033778,0.00204761,0.00060134\\\@


 NATURE WILL TELL YOU A DIRECT LIE IF SHE CAN.

                                -- CHARLES DARWIN
 Job cpu time:       0 days  0 hours 59 minutes  1.8 seconds.
 Elapsed time:       0 days  0 hours  2 minutes 27.6 seconds.
 File lengths (MBytes):  RWF=    153 Int=      0 D2E=      0 Chk=      8 Scr=      1
 Normal termination of Gaussian 16 at Mon Jun 23 02:16:22 2025.
