 Entering Gaussian System, Link 0=g16
 Initial command:
 /opt/g16/l1.exe "/home/aayush/scratches/g16/Gau-29363.inp" -scrdir="/home/aayush/scratches/g16/"
 Entering Link 1 = /opt/g16/l1.exe PID=     29366.
  
 Copyright (c) 1988,1990,1992,1993,1995,1998,2003,2009,2016,
            Gaussian, Inc.  All Rights Reserved.
  
 This is part of the Gaussian(R) 16 program.  It is based on
 the Gaussian(R) 09 system (copyright 2009, Gaussian, Inc.),
 the Gaussian(R) 03 system (copyright 2003, Gaussian, Inc.),
 the Gaussian(R) 98 system (copyright 1998, Gaussian, Inc.),
 the Gaussian(R) 94 system (copyright 1995, Gaussian, Inc.),
 the Gaussian 92(TM) system (copyright 1992, Gaussian, Inc.),
 the Gaussian 90(TM) system (copyright 1990, Gaussian, Inc.),
 the Gaussian 88(TM) system (copyright 1988, Gaussian, Inc.),
 the Gaussian 86(TM) system (copyright 1986, Carnegie Mellon
 University), and the Gaussian 82(TM) system (copyright 1983,
 Carnegie Mellon University). Gaussian is a federally registered
 trademark of Gaussian, Inc.
  
 This software contains proprietary and confidential information,
 including trade secrets, belonging to Gaussian, Inc.
  
 This software is provided under written license and may be
 used, copied, transmitted, or stored only in accord with that
 written license.
  
 The following legend is applicable only to US Government
 contracts under FAR:
  
                    RESTRICTED RIGHTS LEGEND
  
 Use, reproduction and disclosure by the US Government is
 subject to restrictions as set forth in subparagraphs (a)
 and (c) of the Commercial Computer Software - Restricted
 Rights clause in FAR 52.227-19.
  
 Gaussian, Inc.
 340 Quinnipiac St., Bldg. 40, Wallingford CT 06492
  
  
 ---------------------------------------------------------------
 Warning -- This program may not be used in any manner that
 competes with the business of Gaussian, Inc. or will provide
 assistance to any competitor of Gaussian, Inc.  The licensee
 of this program is prohibited from giving any competitor of
 Gaussian, Inc. access to this program.  By using this program,
 the user acknowledges that Gaussian, Inc. is engaged in the
 business of creating and licensing software in the field of
 computational chemistry and represents and warrants to the
 licensee that it is not a competitor of Gaussian, Inc. and that
 it will not use this program in any manner prohibited above.
 ---------------------------------------------------------------
  

 Cite this work as:
 Gaussian 16, Revision A.03,
 M. J. Frisch, G. W. Trucks, H. B. Schlegel, G. E. Scuseria, 
 M. A. Robb, J. R. Cheeseman, G. Scalmani, V. Barone, 
 G. A. Petersson, H. Nakatsuji, X. Li, M. Caricato, A. V. Marenich, 
 J. Bloino, B. G. Janesko, R. Gomperts, B. Mennucci, H. P. Hratchian, 
 J. V. Ortiz, A. F. Izmaylov, J. L. Sonnenberg, D. Williams-Young, 
 F. Ding, F. Lipparini, F. Egidi, J. Goings, B. Peng, A. Petrone, 
 T. Henderson, D. Ranasinghe, V. G. Zakrzewski, J. Gao, N. Rega, 
 G. Zheng, W. Liang, M. Hada, M. Ehara, K. Toyota, R. Fukuda, 
 J. Hasegawa, M. Ishida, T. Nakajima, Y. Honda, O. Kitao, H. Nakai, 
 T. Vreven, K. Throssell, J. A. Montgomery, Jr., J. E. Peralta, 
 F. Ogliaro, M. J. Bearpark, J. J. Heyd, E. N. Brothers, K. N. Kudin, 
 V. N. Staroverov, T. A. Keith, R. Kobayashi, J. Normand, 
 K. Raghavachari, A. P. Rendell, J. C. Burant, S. S. Iyengar, 
 J. Tomasi, M. Cossi, J. M. Millam, M. Klene, C. Adamo, R. Cammi, 
 J. W. Ochterski, R. L. Martin, K. Morokuma, O. Farkas, 
 J. B. Foresman, and D. J. Fox, Gaussian, Inc., Wallingford CT, 2016.
 
 ******************************************
 Gaussian 16:  ES64L-G16RevA.03 25-Dec-2016
                16-Aug-2025 
 ******************************************
 %chk=ethyl_propiolate.chk
 %nprocshared=24
 Will use up to   24 processors via shared memory.
 %mem=12GB
 --------------------------
 # freq 6-311++g(d,p) m062x
 --------------------------
 1/10=4,30=1,38=1/1,3;
 2/12=2,17=6,18=5,40=1/2;
 3/5=4,6=6,7=1111,11=2,25=1,30=1,71=2,74=-55,140=1/1,2,3;
 4//1;
 5/5=2,38=5,98=1/2;
 8/6=4,10=90,11=11/1;
 11/6=1,8=1,9=11,15=111,16=1/1,2,10;
 10/6=1/2;
 6/7=2,8=2,9=2,10=2,28=1/1;
 7/8=1,10=1,25=1/1,2,3,16;
 1/10=4,30=1/3;
 99//99;
 -------------------
 Title Card Required
 -------------------
 Symbolic Z-matrix:
 Charge =  0 Multiplicity = 2
 O                     2.34212   1.65976  -0.33291 
 H                     1.5368    1.78115   0.19338 
 C                    -3.3175    0.18923  -0.51626 
 H                    -4.33349   0.26194  -0.82753 
 C                    -2.17533   0.10713  -0.16531 
 C                    -0.79118   0.06182   0.27349 
 O                    -0.22954   0.98605   0.79875 
 O                    -0.2446   -1.1264    0.02704 
 C                     1.12155  -1.31643   0.44219 
 C                     2.09837  -0.82739  -0.59096 
 H                     1.20867  -2.39877   0.5633 
 H                     1.27525  -0.83636   1.41051 
 H                     3.11777  -1.14752  -0.3814 
 H                     1.79664  -1.04193  -1.61498 
 H                     2.23572   0.52886  -0.53535 
 

 GradGradGradGradGradGradGradGradGradGradGradGradGradGradGradGradGradGrad
 Berny optimization.
 Initialization pass.
 Trust Radius=3.00D-01 FncErr=1.00D-07 GrdErr=1.00D-07 EigMax=2.50D+02 EigMin=1.00D-04
 Number of steps in this run=      2 maximum allowed number of steps=      2.
 GradGradGradGradGradGradGradGradGradGradGradGradGradGradGradGradGradGrad

                          Input orientation:                          
 ---------------------------------------------------------------------
 Center     Atomic      Atomic             Coordinates (Angstroms)
 Number     Number       Type             X           Y           Z
 ---------------------------------------------------------------------
      1          8           0        2.342116    1.659760   -0.332914
      2          1           0        1.536799    1.781154    0.193381
      3          6           0       -3.317499    0.189229   -0.516258
      4          1           0       -4.333492    0.261938   -0.827528
      5          6           0       -2.175327    0.107125   -0.165311
      6          6           0       -0.791175    0.061823    0.273494
      7          8           0       -0.229535    0.986047    0.798750
      8          8           0       -0.244603   -1.126401    0.027041
      9          6           0        1.121545   -1.316426    0.442193
     10          6           0        2.098372   -0.827392   -0.590961
     11          1           0        1.208672   -2.398767    0.563296
     12          1           0        1.275249   -0.836355    1.410507
     13          1           0        3.117774   -1.147523   -0.381396
     14          1           0        1.796644   -1.041933   -1.614979
     15          1           0        2.235722    0.528863   -0.535347
 ---------------------------------------------------------------------
                    Distance matrix (angstroms):
                    1          2          3          4          5
     1  O    0.000000
     2  H    0.969669   0.000000
     3  C    5.850412   5.157715   0.000000
     4  H    6.838296   6.149032   1.065090   0.000000
     5  C    4.779755   4.087898   1.197690   2.262780   0.000000
     6  C    3.569124   2.895165   2.649953   3.714876   1.452749
     7  O    2.889280   2.029434   3.449592   4.473430   2.342653
     8  O    3.818819   3.413933   3.386554   4.401907   2.299191
     9  C    3.308817   3.135179   4.784426   5.819008   3.642104
    10  C    2.512354   2.781199   5.510967   6.527747   4.395339
    11  H    4.308077   4.209067   5.324414   6.303120   4.273384
    12  H    3.226192   2.898475   5.085035   6.137835   3.908943
    13  H    2.912874   3.377425   6.574027   7.596511   5.444057
    14  H    3.039799   3.362663   5.373770   6.316544   4.381601
    15  H    1.153788   1.608655   5.563630   6.581124   4.446588
                    6          7          8          9         10
     6  C    0.000000
     7  O    1.202299   0.000000
     8  O    1.330923   2.249044   0.000000
     9  C    2.363584   2.693312   1.440424   0.000000
    10  C    3.144434   3.261749   2.441488   1.503580   0.000000
    11  H    3.184003   3.685220   2.004618   1.092575   2.143151
    12  H    2.523813   2.441264   2.075585   1.091662   2.164136
    13  H    4.143824   4.141177   3.387159   2.166046   1.088844
    14  H    3.388424   3.747558   2.621079   2.182444   1.088890
    15  H    3.167721   2.840127   3.034500   2.366868   1.364326
                   11         12         13         14         15
    11  H    0.000000
    12  H    1.778575   0.000000
    13  H    2.470369   2.588946   0.000000
    14  H    2.632792   3.076960   1.810597   0.000000
    15  H    3.291332   2.563723   1.900523   1.955964   0.000000
 Stoichiometry    C5H7O3(2)
 Framework group  C1[X(C5H7O3)]
 Deg. of freedom    39
 Full point group                 C1      NOp   1
 Largest Abelian subgroup         C1      NOp   1
 Largest concise Abelian subgroup C1      NOp   1
                         Standard orientation:                         
 ---------------------------------------------------------------------
 Center     Atomic      Atomic             Coordinates (Angstroms)
 Number     Number       Type             X           Y           Z
 ---------------------------------------------------------------------
      1          8           0        2.288679    1.680394   -0.320337
      2          1           0        1.483584    1.801894    0.206272
      3          6           0       -3.372945    0.217888   -0.505819
      4          1           0       -4.388871    0.292558   -0.816842
      5          6           0       -2.230848    0.133577   -0.155150
      6          6           0       -0.846712    0.085576    0.283419
      7          8           0       -0.283763    1.008052    0.810343
      8          8           0       -0.301779   -1.102925    0.034682
      9          6           0        1.064154   -1.295580    0.449328
     10          6           0        2.041534   -0.805937   -0.583014
     11          1           0        1.149825   -2.378263    0.568395
     12          1           0        1.218612   -0.817532    1.418523
     13          1           0        3.060523   -1.127843   -0.374160
     14          1           0        1.739406   -1.018151   -1.607399
     15          1           0        2.180730    0.550023   -0.524876
 ---------------------------------------------------------------------
 Rotational constants (GHZ):           3.3490803           1.1875148           0.9749686
 Standard basis: 6-311++G(d,p) (5D, 7F)
 There are   233 symmetry adapted cartesian basis functions of A   symmetry.
 There are   225 symmetry adapted basis functions of A   symmetry.
   225 basis functions,   351 primitive gaussians,   233 cartesian basis functions
    31 alpha electrons       30 beta electrons
       nuclear repulsion energy       353.6363539577 Hartrees.
 NAtoms=   15 NActive=   15 NUniq=   15 SFac= 1.00D+00 NAtFMM=   60 NAOKFM=F Big=F
 Integral buffers will be    131072 words long.
 Raffenetti 2 integral format.
 Two-electron integral symmetry is turned on.
 One-electron integrals computed using PRISM.
 NBasis=   225 RedAO= T EigKep=  7.25D-06  NBF=   225
 NBsUse=   224 1.00D-06 EigRej=  7.37D-07 NBFU=   224
 ExpMin= 3.60D-02 ExpMax= 8.59D+03 ExpMxC= 1.30D+03 IAcc=3 IRadAn=         5 AccDes= 0.00D+00
 Harris functional with IExCor= 1009 and IRadAn=       5 diagonalized for initial guess.
 HarFok:  IExCor= 1009 AccDes= 0.00D+00 IRadAn=         5 IDoV= 1 UseB2=F ITyADJ=14
 ICtDFT=  3500011 ScaDFX=  1.000000  1.000000  1.000000  1.000000
 FoFCou: FMM=F IPFlag=           0 FMFlag=      100000 FMFlg1=           0
         NFxFlg=           0 DoJE=T BraDBF=F KetDBF=T FulRan=T
         wScrn=  0.000000 ICntrl=       500 IOpCl=  0 I1Cent=   200000004 NGrid=           0
         NMat0=    1 NMatS0=      1 NMatT0=    0 NMatD0=    1 NMtDS0=    0 NMtDT0=    0
 Petite list used in FoFCou.
 Initial guess <Sx>= 0.0000 <Sy>= 0.0000 <Sz>= 0.5000 <S**2>= 0.7500 S= 0.5000
 Requested convergence on RMS density matrix=1.00D-08 within 128 cycles.
 Requested convergence on MAX density matrix=1.00D-06.
 Requested convergence on             energy=1.00D-06.
 No special actions if energy rises.
 SCF Done:  E(UM062X) =  -420.205919143     A.U. after   18 cycles
            NFock= 18  Conv=0.83D-08     -V/T= 2.0034
 <Sx>= 0.0000 <Sy>= 0.0000 <Sz>= 0.5000 <S**2>= 0.7598 S= 0.5049
 <L.S>=  0.00000000000    
 Annihilation of the first spin contaminant:
 S**2 before annihilation     0.7598,   after     0.7500
 DoSCS=F DFT=T ScalE2(SS,OS)=  1.000000  1.000000
 Range of M.O.s used for correlation:     1   224
 NBasis=   225 NAE=    31 NBE=    30 NFC=     0 NFV=     0
 NROrb=    224 NOA=    31 NOB=    30 NVA=   193 NVB=   194

 **** Warning!!: The largest alpha MO coefficient is  0.10712589D+03


 **** Warning!!: The largest beta MO coefficient is  0.10236764D+03

 Symmetrizing basis deriv contribution to polar:
 IMax=3 JMax=2 DiffMx= 0.00D+00
 G2DrvN: will do    16 centers at a time, making    1 passes.
 Calling FoFCou, ICntrl=  3107 FMM=F I1Cent=   0 AccDes= 0.00D+00.
 End of G2Drv F.D. properties file   721 does not exist.
 End of G2Drv F.D. properties file   722 does not exist.
 End of G2Drv F.D. properties file   788 does not exist.
          IDoAtm=111111111111111
          Differentiating once with respect to electric field.
                with respect to dipole field.
          Differentiating once with respect to nuclear coordinates.
 Keep R1 and R2 ints in memory in canonical form, NReq=671901989.
          There are    48 degrees of freedom in the 1st order CPHF.  IDoFFX=6 NUNeed=     3.
     45 vectors produced by pass  0 Test12= 2.46D-14 2.08D-09 XBig12= 9.65D+01 4.09D+00.
 AX will form    45 AO Fock derivatives at one time.
     45 vectors produced by pass  1 Test12= 2.46D-14 2.08D-09 XBig12= 2.10D+01 8.40D-01.
     45 vectors produced by pass  2 Test12= 2.46D-14 2.08D-09 XBig12= 8.07D-01 1.57D-01.
     45 vectors produced by pass  3 Test12= 2.46D-14 2.08D-09 XBig12= 1.11D-02 1.52D-02.
     45 vectors produced by pass  4 Test12= 2.46D-14 2.08D-09 XBig12= 9.17D-05 1.05D-03.
     45 vectors produced by pass  5 Test12= 2.46D-14 2.08D-09 XBig12= 6.38D-07 8.56D-05.
     45 vectors produced by pass  6 Test12= 2.46D-14 2.08D-09 XBig12= 5.65D-09 7.36D-06.
     19 vectors produced by pass  7 Test12= 2.46D-14 2.08D-09 XBig12= 3.39D-11 5.48D-07.
      3 vectors produced by pass  8 Test12= 2.46D-14 2.08D-09 XBig12= 2.00D-13 4.16D-08.
      2 vectors produced by pass  9 Test12= 2.46D-14 2.08D-09 XBig12= 1.61D-15 4.65D-09.
 InvSVY:  IOpt=1 It=  1 EMax= 8.88D-15
 Solved reduced A of dimension   339 with    48 vectors.
 Isotropic polarizability for W=    0.000000       73.89 Bohr**3.
 End of Minotr F.D. properties file   721 does not exist.
 End of Minotr F.D. properties file   722 does not exist.
 End of Minotr F.D. properties file   788 does not exist.

 **********************************************************************

            Population analysis using the SCF density.

 **********************************************************************

 Orbital symmetries:
 Alpha Orbitals:
       Occupied  (A) (A) (A) (A) (A) (A) (A) (A) (A) (A) (A) (A)
                 (A) (A) (A) (A) (A) (A) (A) (A) (A) (A) (A) (A)
                 (A) (A) (A) (A) (A) (A) (A)
       Virtual   (A) (A) (A) (A) (A) (A) (A) (A) (A) (A) (A) (A)
                 (A) (A) (A) (A) (A) (A) (A) (A) (A) (A) (A) (A)
                 (A) (A) (A) (A) (A) (A) (A) (A) (A) (A) (A) (A)
                 (A) (A) (A) (A) (A) (A) (A) (A) (A) (A) (A) (A)
                 (A) (A) (A) (A) (A) (A) (A) (A) (A) (A) (A) (A)
                 (A) (A) (A) (A) (A) (A) (A) (A) (A) (A) (A) (A)
                 (A) (A) (A) (A) (A) (A) (A) (A) (A) (A) (A) (A)
                 (A) (A) (A) (A) (A) (A) (A) (A) (A) (A) (A) (A)
                 (A) (A) (A) (A) (A) (A) (A) (A) (A) (A) (A) (A)
                 (A) (A) (A) (A) (A) (A) (A) (A) (A) (A) (A) (A)
                 (A) (A) (A) (A) (A) (A) (A) (A) (A) (A) (A) (A)
                 (A) (A) (A) (A) (A) (A) (A) (A) (A) (A) (A) (A)
                 (A) (A) (A) (A) (A) (A) (A) (A) (A) (A) (A) (A)
                 (A) (A) (A) (A) (A) (A) (A) (A) (A) (A) (A) (A)
                 (A) (A) (A) (A) (A) (A) (A) (A) (A) (A) (A) (A)
                 (A) (A) (A) (A) (A) (A) (A) (A) (A) (A) (A) (A)
                 (A)
 Beta  Orbitals:
       Occupied  (A) (A) (A) (A) (A) (A) (A) (A) (A) (A) (A) (A)
                 (A) (A) (A) (A) (A) (A) (A) (A) (A) (A) (A) (A)
                 (A) (A) (A) (A) (A) (A)
       Virtual   (A) (A) (A) (A) (A) (A) (A) (A) (A) (A) (A) (A)
                 (A) (A) (A) (A) (A) (A) (A) (A) (A) (A) (A) (A)
                 (A) (A) (A) (A) (A) (A) (A) (A) (A) (A) (A) (A)
                 (A) (A) (A) (A) (A) (A) (A) (A) (A) (A) (A) (A)
                 (A) (A) (A) (A) (A) (A) (A) (A) (A) (A) (A) (A)
                 (A) (A) (A) (A) (A) (A) (A) (A) (A) (A) (A) (A)
                 (A) (A) (A) (A) (A) (A) (A) (A) (A) (A) (A) (A)
                 (A) (A) (A) (A) (A) (A) (A) (A) (A) (A) (A) (A)
                 (A) (A) (A) (A) (A) (A) (A) (A) (A) (A) (A) (A)
                 (A) (A) (A) (A) (A) (A) (A) (A) (A) (A) (A) (A)
                 (A) (A) (A) (A) (A) (A) (A) (A) (A) (A) (A) (A)
                 (A) (A) (A) (A) (A) (A) (A) (A) (A) (A) (A) (A)
                 (A) (A) (A) (A) (A) (A) (A) (A) (A) (A) (A) (A)
                 (A) (A) (A) (A) (A) (A) (A) (A) (A) (A) (A) (A)
                 (A) (A) (A) (A) (A) (A) (A) (A) (A) (A) (A) (A)
                 (A) (A) (A) (A) (A) (A) (A) (A) (A) (A) (A) (A)
                 (A) (A)
 The electronic state is 2-A.
 Alpha  occ. eigenvalues --  -19.70272 -19.65012 -19.61565 -10.72531 -10.63030
 Alpha  occ. eigenvalues --  -10.58151 -10.57958 -10.57666  -1.27632  -1.18284
 Alpha  occ. eigenvalues --   -1.10190  -0.92278  -0.88606  -0.79895  -0.72238
 Alpha  occ. eigenvalues --   -0.66621  -0.62258  -0.60902  -0.59642  -0.57128
 Alpha  occ. eigenvalues --   -0.54196  -0.51326  -0.49939  -0.48064  -0.45904
 Alpha  occ. eigenvalues --   -0.41331  -0.40827  -0.38405  -0.38000  -0.37483
 Alpha  occ. eigenvalues --   -0.31997
 Alpha virt. eigenvalues --   -0.03028  -0.00712   0.00292   0.01405   0.02256
 Alpha virt. eigenvalues --    0.02758   0.03289   0.05090   0.05455   0.06406
 Alpha virt. eigenvalues --    0.06819   0.07264   0.07640   0.09227   0.09927
 Alpha virt. eigenvalues --    0.11131   0.11676   0.12293   0.12456   0.12811
 Alpha virt. eigenvalues --    0.13987   0.14416   0.14735   0.16066   0.16369
 Alpha virt. eigenvalues --    0.17315   0.17817   0.18942   0.19528   0.21415
 Alpha virt. eigenvalues --    0.22306   0.22963   0.23326   0.24673   0.26822
 Alpha virt. eigenvalues --    0.26873   0.27976   0.28224   0.29569   0.30779
 Alpha virt. eigenvalues --    0.31122   0.32050   0.32451   0.33048   0.33710
 Alpha virt. eigenvalues --    0.34331   0.36665   0.37727   0.39951   0.40792
 Alpha virt. eigenvalues --    0.42126   0.43472   0.47839   0.48303   0.50092
 Alpha virt. eigenvalues --    0.50884   0.54145   0.56322   0.56741   0.59304
 Alpha virt. eigenvalues --    0.61118   0.61448   0.64746   0.65770   0.67301
 Alpha virt. eigenvalues --    0.68603   0.70572   0.70981   0.72540   0.73938
 Alpha virt. eigenvalues --    0.74181   0.75179   0.76459   0.79211   0.83989
 Alpha virt. eigenvalues --    0.87329   0.91491   0.96683   1.03503   1.03974
 Alpha virt. eigenvalues --    1.06435   1.08617   1.10041   1.12657   1.14862
 Alpha virt. eigenvalues --    1.15380   1.16256   1.17487   1.19212   1.20871
 Alpha virt. eigenvalues --    1.21354   1.22967   1.27570   1.30538   1.32680
 Alpha virt. eigenvalues --    1.34747   1.35710   1.37151   1.40529   1.43059
 Alpha virt. eigenvalues --    1.46037   1.48595   1.52547   1.54274   1.58171
 Alpha virt. eigenvalues --    1.59821   1.60102   1.61536   1.62584   1.65210
 Alpha virt. eigenvalues --    1.66634   1.67396   1.69556   1.71862   1.73896
 Alpha virt. eigenvalues --    1.79793   1.80821   1.83148   1.83801   1.89420
 Alpha virt. eigenvalues --    1.95247   1.99048   2.00815   2.04236   2.06574
 Alpha virt. eigenvalues --    2.09551   2.14174   2.19491   2.23858   2.27691
 Alpha virt. eigenvalues --    2.37925   2.41611   2.47518   2.50013   2.53584
 Alpha virt. eigenvalues --    2.58637   2.59191   2.60729   2.61568   2.65085
 Alpha virt. eigenvalues --    2.66868   2.69743   2.71466   2.74661   2.80017
 Alpha virt. eigenvalues --    2.80874   2.84185   2.88413   2.92462   2.97450
 Alpha virt. eigenvalues --    3.00016   3.03308   3.05476   3.07664   3.09775
 Alpha virt. eigenvalues --    3.14210   3.19591   3.21660   3.23524   3.29206
 Alpha virt. eigenvalues --    3.30235   3.32469   3.35792   3.42341   3.45531
 Alpha virt. eigenvalues --    3.55507   3.63997   3.70515   3.78456   3.81641
 Alpha virt. eigenvalues --    3.90402   3.98429   4.06568   4.11814   4.16741
 Alpha virt. eigenvalues --    4.26610   5.10486   5.13049   5.17371   5.31525
 Alpha virt. eigenvalues --    5.44060   5.52612   5.69358   5.74568   5.95357
 Alpha virt. eigenvalues --   23.61392  23.91698  23.92180  23.95617  25.16933
 Alpha virt. eigenvalues --   49.97670  50.02099  50.09410
  Beta  occ. eigenvalues --  -19.70270 -19.65013 -19.60753 -10.72531 -10.63061
  Beta  occ. eigenvalues --  -10.58152 -10.57666 -10.57355  -1.27623  -1.18272
  Beta  occ. eigenvalues --   -1.07089  -0.91811  -0.88033  -0.78772  -0.71507
  Beta  occ. eigenvalues --   -0.66413  -0.62205  -0.60638  -0.59017  -0.54554
  Beta  occ. eigenvalues --   -0.52810  -0.50286  -0.49025  -0.46036  -0.43745
  Beta  occ. eigenvalues --   -0.41199  -0.40202  -0.38324  -0.37447  -0.36375
  Beta virt. eigenvalues --   -0.09336  -0.03004  -0.00615   0.00323   0.01584
  Beta virt. eigenvalues --    0.02421   0.02921   0.03299   0.05344   0.05567
  Beta virt. eigenvalues --    0.06458   0.07095   0.07358   0.07673   0.09400
  Beta virt. eigenvalues --    0.10033   0.11048   0.11784   0.12131   0.12450
  Beta virt. eigenvalues --    0.12966   0.14104   0.14480   0.14905   0.16156
  Beta virt. eigenvalues --    0.16587   0.17577   0.17843   0.19084   0.19713
  Beta virt. eigenvalues --    0.21559   0.22650   0.23176   0.23743   0.24815
  Beta virt. eigenvalues --    0.26738   0.26996   0.28140   0.28636   0.29805
  Beta virt. eigenvalues --    0.30966   0.31331   0.32136   0.32504   0.33171
  Beta virt. eigenvalues --    0.33879   0.34451   0.37036   0.38717   0.40467
  Beta virt. eigenvalues --    0.41823   0.42339   0.43725   0.48009   0.48325
  Beta virt. eigenvalues --    0.50945   0.51204   0.54167   0.56487   0.56853
  Beta virt. eigenvalues --    0.59363   0.61335   0.62431   0.65508   0.65981
  Beta virt. eigenvalues --    0.67538   0.68992   0.70853   0.71652   0.73016
  Beta virt. eigenvalues --    0.74148   0.74688   0.75352   0.77042   0.79294
  Beta virt. eigenvalues --    0.84018   0.87415   0.91497   0.97743   1.04116
  Beta virt. eigenvalues --    1.04763   1.07132   1.08887   1.10120   1.13336
  Beta virt. eigenvalues --    1.14993   1.15885   1.16627   1.18113   1.19643
  Beta virt. eigenvalues --    1.21238   1.21700   1.23292   1.27709   1.30771
  Beta virt. eigenvalues --    1.33130   1.34894   1.35950   1.37251   1.40791
  Beta virt. eigenvalues --    1.43125   1.46379   1.49229   1.53245   1.56028
  Beta virt. eigenvalues --    1.58750   1.59946   1.60861   1.62099   1.62891
  Beta virt. eigenvalues --    1.65382   1.66962   1.67781   1.70065   1.72117
  Beta virt. eigenvalues --    1.74571   1.80091   1.81138   1.83411   1.83867
  Beta virt. eigenvalues --    1.89587   1.95424   1.99345   2.01181   2.04765
  Beta virt. eigenvalues --    2.06988   2.11232   2.14795   2.21309   2.24681
  Beta virt. eigenvalues --    2.28297   2.40698   2.41681   2.47831   2.50550
  Beta virt. eigenvalues --    2.54543   2.58284   2.59649   2.61744   2.62016
  Beta virt. eigenvalues --    2.65159   2.66942   2.67634   2.72198   2.74375
  Beta virt. eigenvalues --    2.80193   2.80880   2.84316   2.87775   2.92577
  Beta virt. eigenvalues --    2.97524   3.00118   3.03335   3.05485   3.09043
  Beta virt. eigenvalues --    3.10773   3.14541   3.19617   3.22445   3.23819
  Beta virt. eigenvalues --    3.29746   3.32041   3.32938   3.35887   3.42453
  Beta virt. eigenvalues --    3.48292   3.55580   3.64046   3.70747   3.79840
  Beta virt. eigenvalues --    3.83008   3.91029   3.99288   4.07695   4.11931
  Beta virt. eigenvalues --    4.16750   4.28140   5.11113   5.13938   5.17399
  Beta virt. eigenvalues --    5.31530   5.44087   5.55048   5.70460   5.75867
  Beta virt. eigenvalues --    5.95419  23.61392  23.91753  23.92391  23.96461
  Beta virt. eigenvalues --   25.16933  49.97670  50.01309  50.09400
          Condensed to atoms (all electrons):
               1          2          3          4          5          6
     1  O    7.997231   0.307760   0.003856   0.000158  -0.014907   0.002007
     2  H    0.307760   0.435728  -0.005253  -0.000278   0.007640  -0.034903
     3  C    0.003856  -0.005253   6.356960   0.497172  -1.328145   1.290578
     4  H    0.000158  -0.000278   0.497172   0.440812  -0.158275   0.049536
     5  C   -0.014907   0.007640  -1.328145  -0.158275   9.414817  -2.693752
     6  C    0.002007  -0.034903   1.290578   0.049536  -2.693752   7.740644
     7  O   -0.002536   0.018088  -0.083333  -0.002068   0.058251   0.320728
     8  O   -0.001858   0.000142  -0.102650  -0.005692  -0.183657   0.146595
     9  C    0.003054   0.050907   0.006434  -0.003797  -0.305143  -0.204653
    10  C   -0.033059   0.009325  -0.000141   0.000218  -0.028732   0.034823
    11  H    0.001784   0.003683  -0.005785  -0.000540   0.004547  -0.040042
    12  H   -0.006184  -0.009640   0.002522   0.000308   0.008851   0.032631
    13  H   -0.013997   0.003537   0.001834   0.000075  -0.010844   0.005424
    14  H    0.003765  -0.002134  -0.007395  -0.000399   0.031289  -0.015844
    15  H    0.195558  -0.050839   0.006809   0.000274  -0.018343   0.019706
               7          8          9         10         11         12
     1  O   -0.002536  -0.001858   0.003054  -0.033059   0.001784  -0.006184
     2  H    0.018088   0.000142   0.050907   0.009325   0.003683  -0.009640
     3  C   -0.083333  -0.102650   0.006434  -0.000141  -0.005785   0.002522
     4  H   -0.002068  -0.005692  -0.003797   0.000218  -0.000540   0.000308
     5  C    0.058251  -0.183657  -0.305143  -0.028732   0.004547   0.008851
     6  C    0.320728   0.146595  -0.204653   0.034823  -0.040042   0.032631
     7  O    8.082930  -0.152738   0.118678  -0.081305   0.005948  -0.024051
     8  O   -0.152738   8.228025   0.203402  -0.062415  -0.093174  -0.002123
     9  C    0.118678   0.203402   6.024847  -0.200751   0.503630   0.307617
    10  C   -0.081305  -0.062415  -0.200751   6.033748  -0.089908  -0.007431
    11  H    0.005948  -0.093174   0.503630  -0.089908   0.568161  -0.059083
    12  H   -0.024051  -0.002123   0.307617  -0.007431  -0.059083   0.523948
    13  H    0.001424   0.011261   0.002300   0.360402   0.000741  -0.009125
    14  H   -0.003440  -0.000195  -0.061727   0.387531  -0.011697   0.011221
    15  H    0.012749  -0.013312  -0.015555   0.122286   0.005532  -0.009455
              13         14         15
     1  O   -0.013997   0.003765   0.195558
     2  H    0.003537  -0.002134  -0.050839
     3  C    0.001834  -0.007395   0.006809
     4  H    0.000075  -0.000399   0.000274
     5  C   -0.010844   0.031289  -0.018343
     6  C    0.005424  -0.015844   0.019706
     7  O    0.001424  -0.003440   0.012749
     8  O    0.011261  -0.000195  -0.013312
     9  C    0.002300  -0.061727  -0.015555
    10  C    0.360402   0.387531   0.122286
    11  H    0.000741  -0.011697   0.005532
    12  H   -0.009125   0.011221  -0.009455
    13  H    0.511285  -0.044576  -0.012982
    14  H   -0.044576   0.534112  -0.034677
    15  H   -0.012982  -0.034677   0.466648
          Atomic-Atomic Spin Densities.
               1          2          3          4          5          6
     1  O    0.478499  -0.012626  -0.000332  -0.000013   0.000413  -0.008374
     2  H   -0.012626  -0.002776   0.000695   0.000004  -0.003774   0.003194
     3  C   -0.000332   0.000695  -0.011556  -0.001236   0.018063  -0.004721
     4  H   -0.000013   0.000004  -0.001236  -0.000894   0.001316   0.000537
     5  C    0.000413  -0.003774   0.018063   0.001316  -0.063396   0.022174
     6  C   -0.008374   0.003194  -0.004721   0.000537   0.022174  -0.023677
     7  O    0.005507  -0.001740  -0.001136  -0.000052   0.004096   0.001058
     8  O    0.002501  -0.001982   0.000771   0.000035  -0.002053  -0.006760
     9  C    0.030973  -0.006044  -0.001070   0.000388   0.030317   0.008112
    10  C   -0.143181   0.026143  -0.000328  -0.000104  -0.011243  -0.005580
    11  H   -0.001227   0.001351   0.000114   0.000036   0.001041   0.008204
    12  H    0.001748  -0.002434   0.000392  -0.000012  -0.003563  -0.005380
    13  H    0.006011  -0.001461  -0.000136  -0.000001   0.000871  -0.000985
    14  H    0.003948  -0.002658   0.000351   0.000005  -0.000892  -0.000816
    15  H    0.028130   0.010582  -0.000388   0.000017   0.008696   0.020551
               7          8          9         10         11         12
     1  O    0.005507   0.002501   0.030973  -0.143181  -0.001227   0.001748
     2  H   -0.001740  -0.001982  -0.006044   0.026143   0.001351  -0.002434
     3  C   -0.001136   0.000771  -0.001070  -0.000328   0.000114   0.000392
     4  H   -0.000052   0.000035   0.000388  -0.000104   0.000036  -0.000012
     5  C    0.004096  -0.002053   0.030317  -0.011243   0.001041  -0.003563
     6  C    0.001058  -0.006760   0.008112  -0.005580   0.008204  -0.005380
     7  O    0.000670   0.000746  -0.003215  -0.004374  -0.000584   0.000955
     8  O    0.000746   0.004372   0.015763  -0.014151  -0.007792   0.004273
     9  C   -0.003215   0.015763  -0.072095  -0.050879  -0.003516   0.020288
    10  C   -0.004374  -0.014151  -0.050879   0.939410   0.000096  -0.021713
    11  H   -0.000584  -0.007792  -0.003516   0.000096   0.058430  -0.008420
    12  H    0.000955   0.004273   0.020288  -0.021713  -0.008420   0.016636
    13  H    0.000062   0.000338   0.010201  -0.023141  -0.002731   0.001849
    14  H    0.000786   0.001894   0.016760  -0.046474  -0.003341   0.000394
    15  H   -0.006431   0.002267  -0.044390   0.055343  -0.005100   0.008102
              13         14         15
     1  O    0.006011   0.003948   0.028130
     2  H   -0.001461  -0.002658   0.010582
     3  C   -0.000136   0.000351  -0.000388
     4  H   -0.000001   0.000005   0.000017
     5  C    0.000871  -0.000892   0.008696
     6  C   -0.000985  -0.000816   0.020551
     7  O    0.000062   0.000786  -0.006431
     8  O    0.000338   0.001894   0.002267
     9  C    0.010201   0.016760  -0.044390
    10  C   -0.023141  -0.046474   0.055343
    11  H   -0.002731  -0.003341  -0.005100
    12  H    0.001849   0.000394   0.008102
    13  H   -0.023300   0.008449   0.000510
    14  H    0.008449  -0.008294   0.016203
    15  H    0.000510   0.016203  -0.162171
 Mulliken charges and spin densities:
               1          2
     1  O   -0.442631   0.391978
     2  H    0.266237   0.006474
     3  C   -0.633462  -0.000517
     4  H    0.182496   0.000026
     5  C    1.216402   0.002067
     6  C   -0.653479   0.007537
     7  O   -0.269323  -0.003653
     8  O    0.028389   0.000224
     9  C   -0.429244  -0.048409
    10  C   -0.444592   0.699825
    11  H    0.206203   0.036561
    12  H    0.239994   0.013114
    13  H    0.193243  -0.023463
    14  H    0.214166  -0.013684
    15  H    0.325600  -0.068080
 Sum of Mulliken charges =  -0.00000   1.00000
 Mulliken charges and spin densities with hydrogens summed into heavy atoms:
               1          2
     1  O    0.149207   0.330373
     3  C   -0.450966  -0.000492
     5  C    1.216402   0.002067
     6  C   -0.653479   0.007537
     7  O   -0.269323  -0.003653
     8  O    0.028389   0.000224
     9  C    0.016952   0.001267
    10  C   -0.037184   0.662677
 APT charges:
               1
     1  O   -0.419755
     2  H    0.324300
     3  C   -0.167560
     4  H    0.238392
     5  C   -0.317504
     6  C    1.467170
     7  O   -0.799042
     8  O   -0.908432
     9  C    0.426193
    10  C    0.226680
    11  H    0.005411
    12  H    0.012991
    13  H    0.001644
    14  H    0.002821
    15  H   -0.093308
 Sum of APT charges =   0.00000
 APT charges with hydrogens summed into heavy atoms:
               1
     1  O   -0.188763
     3  C    0.070831
     5  C   -0.317504
     6  C    1.467170
     7  O   -0.799042
     8  O   -0.908432
     9  C    0.444595
    10  C    0.231145
 Electronic spatial extent (au):  <R**2>=           1188.5740
 Charge=             -0.0000 electrons
 Dipole moment (field-independent basis, Debye):
    X=             -2.1304    Y=             -3.8205    Z=             -0.0599  Tot=              4.3747
 Quadrupole moment (field-independent basis, Debye-Ang):
   XX=            -40.7039   YY=            -52.1132   ZZ=            -47.6860
   XY=            -10.3577   XZ=              3.9880   YZ=             -0.4845
 Traceless Quadrupole moment (field-independent basis, Debye-Ang):
   XX=              6.1305   YY=             -5.2789   ZZ=             -0.8516
   XY=            -10.3577   XZ=              3.9880   YZ=             -0.4845
 Octapole moment (field-independent basis, Debye-Ang**2):
  XXX=            -63.3002  YYY=             -7.6105  ZZZ=              2.6644  XYY=              1.1741
  XXY=            -18.2024  XXZ=            -10.8912  XZZ=              3.7373  YZZ=             -3.0522
  YYZ=              5.4091  XYZ=              5.7286
 Hexadecapole moment (field-independent basis, Debye-Ang**3):
 XXXX=           -844.0441 YYYY=           -340.5140 ZZZZ=           -124.3314 XXXY=            -78.9156
 XXXZ=             69.3939 YYYX=            -14.4927 YYYZ=              4.0367 ZZZX=             -2.7032
 ZZZY=              2.0798 XXYY=           -280.3159 XXZZ=           -201.4255 YYZZ=            -82.6943
 XXYZ=              2.5448 YYXZ=              9.3593 ZZXY=             -1.3252
 N-N= 3.536363539577D+02 E-N=-1.691432035481D+03  KE= 4.187924050606D+02
  Exact polarizability:  93.404  -0.791  75.886   7.492   2.308  52.379
 Approx polarizability: 100.351   1.517  88.194  12.181   5.966  63.478
                          Isotropic Fermi Contact Couplings
        Atom                 a.u.       MegaHertz       Gauss      10(-4) cm-1
     1  O(17)              0.08249     -50.00756     -17.84394     -16.68073
     2  H(1)              -0.00606     -27.07628      -9.66149      -9.03168
     3  C(13)             -0.00004      -0.04503      -0.01607      -0.01502
     4  H(1)               0.00001       0.03483       0.01243       0.01162
     5  C(13)              0.00022       0.24506       0.08744       0.08174
     6  C(13)             -0.00007      -0.07404      -0.02642      -0.02470
     7  O(17)             -0.00274       1.66222       0.59312       0.55446
     8  O(17)              0.00394      -2.38957      -0.85266      -0.79707
     9  C(13)             -0.02152     -24.19549      -8.63355      -8.07075
    10  C(13)              0.22837     256.73438      91.60921      85.63737
    11  H(1)               0.01768      79.02782      28.19909      26.36084
    12  H(1)               0.00661      29.53415      10.53852       9.85153
    13  H(1)              -0.00736     -32.91778     -11.74588     -10.98019
    14  H(1)              -0.00424     -18.95182      -6.76248      -6.32165
    15  H(1)              -0.03358    -150.08065     -53.55251     -50.06151
 --------------------------------------------------------
       Center         ----  Spin Dipole Couplings  ----
                      3XX-RR        3YY-RR        3ZZ-RR
 --------------------------------------------------------
     1   Atom       -0.814147      1.658363     -0.844217
     2   Atom        0.035331     -0.015244     -0.020087
     3   Atom        0.001698     -0.000588     -0.001110
     4   Atom        0.000908     -0.000416     -0.000492
     5   Atom        0.002690     -0.001265     -0.001426
     6   Atom        0.006591     -0.001970     -0.004621
     7   Atom        0.000399     -0.003407      0.003008
     8   Atom        0.007700     -0.003258     -0.004442
     9   Atom       -0.000380      0.013229     -0.012849
    10   Atom       -0.382851      0.759658     -0.376807
    11   Atom       -0.003293      0.006248     -0.002955
    12   Atom       -0.005486     -0.005373      0.010859
    13   Atom        0.043766     -0.000085     -0.043682
    14   Atom       -0.039835     -0.005787      0.045622
    15   Atom       -0.125904      0.248847     -0.122943
 --------------------------------------------------------
                        XY            XZ            YZ
 --------------------------------------------------------
     1   Atom        0.421943      0.057167      0.270128
     2   Atom       -0.011287     -0.063185      0.016686
     3   Atom       -0.000101      0.000317      0.000181
     4   Atom       -0.000047      0.000074      0.000005
     5   Atom       -0.000085     -0.000364     -0.000019
     6   Atom       -0.000834     -0.002148      0.000718
     7   Atom       -0.000911     -0.007858     -0.000744
     8   Atom       -0.001277      0.001137     -0.001624
     9   Atom        0.021522     -0.009899     -0.009398
    10   Atom        0.022455      0.003849      0.102358
    11   Atom        0.002668     -0.005294     -0.006459
    12   Atom        0.001305     -0.008201     -0.002950
    13   Atom       -0.024347      0.020336     -0.001421
    14   Atom        0.003558      0.028630      0.015116
    15   Atom        0.037604      0.003876      0.046425
 --------------------------------------------------------


 ---------------------------------------------------------------------------------
              Anisotropic Spin Dipole Couplings in Principal Axis System
 ---------------------------------------------------------------------------------

       Atom             a.u.   MegaHertz   Gauss  10(-4) cm-1        Axes

              Baa    -0.8921    64.548    23.032    21.531  0.8361 -0.0808 -0.5426
     1 O(17)  Bbb    -0.8656    62.633    22.349    20.892  0.5238 -0.1767  0.8333
              Bcc     1.7576  -127.181   -45.381   -42.423  0.1633  0.9809  0.1054
 
              Baa    -0.0627   -33.465   -11.941   -11.163  0.5198 -0.1706  0.8371
     2 H(1)   Bbb    -0.0175    -9.350    -3.336    -3.119  0.2536  0.9665  0.0395
              Bcc     0.0802    42.815    15.278    14.282  0.8158 -0.1918 -0.5456
 
              Baa    -0.0012    -0.162    -0.058    -0.054 -0.1140 -0.2969  0.9481
     3 C(13)  Bbb    -0.0005    -0.071    -0.025    -0.024  0.0009  0.9543  0.2989
              Bcc     0.0017     0.233     0.083     0.078  0.9935 -0.0349  0.1085
 
              Baa    -0.0005    -0.265    -0.095    -0.088 -0.0555 -0.0973  0.9937
     4 H(1)   Bbb    -0.0004    -0.222    -0.079    -0.074  0.0299  0.9946  0.0991
              Bcc     0.0009     0.487     0.174     0.163  0.9980 -0.0352  0.0523
 
              Baa    -0.0015    -0.196    -0.070    -0.065  0.0892  0.1347  0.9869
     5 C(13)  Bbb    -0.0013    -0.169    -0.060    -0.057  0.0088  0.9907 -0.1360
              Bcc     0.0027     0.366     0.130     0.122  0.9960 -0.0208 -0.0872
 
              Baa    -0.0051    -0.687    -0.245    -0.229  0.1654 -0.1774  0.9701
     6 C(13)  Bbb    -0.0020    -0.264    -0.094    -0.088  0.1345  0.9786  0.1560
              Bcc     0.0071     0.951     0.339     0.317  0.9770 -0.1046 -0.1857
 
              Baa    -0.0067     0.484     0.173     0.161  0.7183  0.3377  0.6083
     7 O(17)  Bbb    -0.0030     0.216     0.077     0.072 -0.2566  0.9413 -0.2196
              Bcc     0.0097    -0.700    -0.250    -0.233 -0.6467  0.0017  0.7627
 
              Baa    -0.0056     0.404     0.144     0.135 -0.0160  0.5668  0.8237
     8 O(17)  Bbb    -0.0024     0.174     0.062     0.058  0.1655  0.8139 -0.5569
              Bcc     0.0080    -0.578    -0.206    -0.193  0.9861 -0.1274  0.1069
 
              Baa    -0.0188    -2.526    -0.901    -0.843  0.6510 -0.2245  0.7251
     9 C(13)  Bbb    -0.0141    -1.895    -0.676    -0.632 -0.4918  0.6029  0.6282
              Bcc     0.0329     4.421     1.578     1.475  0.5782  0.7656 -0.2821
 
              Baa    -0.3869   -51.917   -18.525   -17.318 -0.4549 -0.0703  0.8877
    10 C(13)  Bbb    -0.3824   -51.309   -18.308   -17.115  0.8903 -0.0580  0.4517
              Bcc     0.7693   103.226    36.834    34.433  0.0197  0.9958  0.0890
 
              Baa    -0.0090    -4.802    -1.713    -1.602  0.6073  0.2175  0.7642
    11 H(1)   Bbb    -0.0022    -1.195    -0.426    -0.399  0.7242 -0.5471 -0.4198
              Bcc     0.0112     5.997     2.140     2.000  0.3268  0.8083 -0.4897
 
              Baa    -0.0089    -4.745    -1.693    -1.583  0.9246 -0.0240  0.3803
    12 H(1)   Bbb    -0.0059    -3.141    -1.121    -1.048 -0.0382  0.9871  0.1552
              Bcc     0.0148     7.886     2.814     2.631 -0.3791 -0.1580  0.9117
 
              Baa    -0.0485   -25.894    -9.240    -8.637 -0.2371 -0.0908  0.9672
    13 H(1)   Bbb    -0.0097    -5.175    -1.847    -1.726  0.3530  0.9195  0.1728
              Bcc     0.0582    31.069    11.086    10.364  0.9051 -0.3824  0.1859
 
              Baa    -0.0486   -25.912    -9.246    -8.643  0.9554  0.0245 -0.2944
    14 H(1)   Bbb    -0.0095    -5.081    -1.813    -1.695 -0.0922  0.9715 -0.2184
              Bcc     0.0581    30.993    11.059    10.338  0.2806  0.2358  0.9304
 
              Baa    -0.1300   -69.374   -24.754   -23.141  0.8757 -0.1434  0.4611
    15 H(1)   Bbb    -0.1283   -68.430   -24.417   -22.826 -0.4729 -0.0611  0.8790
              Bcc     0.2583   137.803    49.172    45.966  0.0979  0.9878  0.1213
 

 ---------------------------------------------------------------------------------

 Calling FoFJK, ICntrl=    100127 FMM=F ISym2X=0 I1Cent= 0 IOpClX= 1 NMat=1 NMatS=1 NMatT=0.
 Full mass-weighted force constant matrix:
 Low frequencies ----1542.4866  -11.2865   -4.5640   -0.0007   -0.0005    0.0004
 Low frequencies ---   13.4522   36.2264   92.1130
 ******    1 imaginary frequencies (negative Signs) ****** 
 Diagonal vibrational polarizability:
       71.1526365      25.1216742      29.9811693
 Harmonic frequencies (cm**-1), IR intensities (KM/Mole), Raman scattering
 activities (A**4/AMU), depolarization ratios for plane and unpolarized
 incident light, reduced masses (AMU), force constants (mDyne/A),
 and normal coordinates:
                      1                      2                      3
                      A                      A                      A
 Frequencies --  -1542.4865                35.8820                92.1117
 Red. masses --      1.0872                 7.2664                 3.7347
 Frc consts  --      1.5241                 0.0055                 0.0187
 IR Inten    --    365.5412                 2.5513                 3.2468
  Atom  AN      X      Y      Z        X      Y      Z        X      Y      Z
     1   8    -0.01  -0.02  -0.00    -0.31   0.02  -0.28     0.00   0.05   0.03
     2   1     0.04   0.08  -0.01    -0.16  -0.05  -0.03    -0.01   0.07   0.01
     3   6     0.00  -0.00   0.00     0.14   0.17  -0.19     0.11   0.04  -0.19
     4   1    -0.00   0.00   0.00     0.18   0.25  -0.31     0.16   0.09  -0.35
     5   6     0.00  -0.00  -0.00     0.09   0.08  -0.04     0.04  -0.01  -0.01
     6   6    -0.00   0.00   0.00     0.03  -0.02   0.12     0.01  -0.05   0.09
     7   8    -0.00  -0.00   0.00    -0.02  -0.13   0.36     0.05  -0.01  -0.01
     8   8     0.00  -0.00  -0.00     0.05   0.02  -0.05    -0.04  -0.10   0.25
     9   6    -0.00   0.01  -0.00     0.03  -0.04   0.02     0.04  -0.01   0.01
    10   6    -0.01  -0.08  -0.00     0.07  -0.05   0.06    -0.19   0.08  -0.18
    11   1     0.01  -0.00   0.01    -0.01  -0.05   0.00     0.14  -0.00  -0.01
    12   1     0.01   0.00   0.00    -0.00  -0.06   0.03     0.18  -0.00  -0.01
    13   1     0.04   0.11   0.02     0.10   0.16   0.24    -0.16  -0.01  -0.49
    14   1    -0.01   0.10  -0.03     0.22  -0.27   0.06    -0.48   0.23  -0.12
    15   1     0.15   0.96   0.09    -0.24  -0.00  -0.20    -0.06   0.05  -0.01
                      4                      5                      6
                      A                      A                      A
 Frequencies --    119.2044               185.8319               195.0667
 Red. masses --      5.0094                 3.5954                 6.8614
 Frc consts  --      0.0419                 0.0732                 0.1538
 IR Inten    --      3.5017                 2.0461                 4.5038
  Atom  AN      X      Y      Z        X      Y      Z        X      Y      Z
     1   8    -0.11   0.16  -0.01    -0.07  -0.10   0.08     0.41   0.12  -0.20
     2   1    -0.12   0.21  -0.04    -0.13  -0.21   0.01     0.38   0.31  -0.28
     3   6    -0.01   0.25   0.13    -0.03   0.22   0.05    -0.08   0.12  -0.05
     4   1    -0.03   0.47   0.25    -0.04   0.48   0.12    -0.05   0.30  -0.12
     5   6     0.02  -0.02  -0.03    -0.03  -0.13  -0.04    -0.12  -0.12   0.03
     6   6     0.04  -0.13  -0.10    -0.03  -0.08  -0.03    -0.13  -0.14   0.06
     7   8     0.12  -0.11  -0.22    -0.16   0.01  -0.04    -0.17  -0.16   0.14
     8   8    -0.03  -0.18   0.03     0.12  -0.02   0.02    -0.03  -0.07  -0.03
     9   6    -0.02  -0.11   0.04     0.15   0.14   0.05    -0.02   0.08   0.03
    10   6     0.01   0.11   0.17     0.07  -0.06  -0.12     0.02   0.12   0.07
    11   1     0.07  -0.13  -0.11     0.19   0.18   0.34     0.09   0.09   0.04
    12   1    -0.11  -0.24   0.12     0.15   0.41  -0.09    -0.12   0.10   0.03
    13   1     0.03   0.25   0.27     0.09  -0.06  -0.19    -0.01   0.04   0.09
    14   1     0.16   0.08   0.13    -0.05  -0.15  -0.06     0.05   0.15   0.06
    15   1    -0.13   0.14   0.11     0.03  -0.07  -0.10     0.25   0.09  -0.03
                      7                      8                      9
                      A                      A                      A
 Frequencies --    273.3551               336.6809               394.4108
 Red. masses --      4.3538                 3.1515                 1.1976
 Frc consts  --      0.1917                 0.2105                 0.1098
 IR Inten    --      2.2402                12.1347                39.9535
  Atom  AN      X      Y      Z        X      Y      Z        X      Y      Z
     1   8    -0.03  -0.01   0.02    -0.02  -0.01   0.03     0.01  -0.01  -0.01
     2   1    -0.10  -0.05  -0.08    -0.03  -0.07   0.03     0.43  -0.17   0.68
     3   6     0.04   0.06  -0.17     0.02  -0.03  -0.04    -0.03  -0.01  -0.01
     4   1     0.18   0.19  -0.60     0.05  -0.09  -0.16    -0.03  -0.04   0.00
     5   6    -0.14  -0.12   0.39    -0.03   0.06   0.13    -0.02   0.03  -0.02
     6   6    -0.05  -0.01   0.12     0.01  -0.05  -0.02    -0.02  -0.00   0.00
     7   8     0.02   0.09  -0.13     0.18  -0.15  -0.02     0.01  -0.01  -0.01
     8   8    -0.01   0.04  -0.02    -0.03  -0.03  -0.14    -0.04  -0.03   0.06
     9   6     0.01  -0.04  -0.10    -0.06   0.22   0.09     0.01   0.04  -0.04
    10   6     0.12  -0.02   0.01    -0.07   0.01  -0.00     0.03   0.02  -0.03
    11   1    -0.04  -0.06  -0.21     0.06   0.27   0.51     0.05   0.04  -0.03
    12   1     0.04  -0.15  -0.05    -0.21   0.60  -0.08     0.04   0.04  -0.05
    13   1     0.10   0.04   0.22    -0.07  -0.00  -0.03     0.05   0.25   0.21
    14   1     0.33  -0.08  -0.04    -0.14  -0.11   0.04     0.24  -0.24  -0.04
    15   1     0.02  -0.00  -0.00    -0.03   0.00  -0.08    -0.14   0.05  -0.22
                     10                     11                     12
                      A                      A                      A
 Frequencies --    418.4632               489.4930               555.2221
 Red. masses --      1.7098                 1.7751                 3.5544
 Frc consts  --      0.1764                 0.2506                 0.6456
 IR Inten    --     42.9056                12.1370                 1.7014
  Atom  AN      X      Y      Z        X      Y      Z        X      Y      Z
     1   8    -0.02   0.02  -0.05     0.04  -0.06   0.03     0.02   0.29   0.04
     2   1     0.41  -0.10   0.63    -0.07   0.22  -0.21     0.05   0.22   0.11
     3   6     0.05   0.02   0.00     0.08   0.00   0.03     0.07   0.00   0.02
     4   1     0.06   0.12  -0.03     0.09   0.09   0.04     0.07   0.07   0.04
     5   6     0.02  -0.10   0.05     0.07  -0.11   0.01     0.06  -0.07  -0.01
     6   6     0.03   0.01  -0.02     0.04   0.01  -0.00     0.01   0.01   0.01
     7   8    -0.03   0.04  -0.02    -0.03   0.05   0.01    -0.02   0.04   0.01
     8   8     0.07   0.04  -0.09     0.01   0.02  -0.04    -0.05  -0.02  -0.00
     9   6    -0.02  -0.05   0.07    -0.05  -0.00   0.00    -0.08  -0.03  -0.02
    10   6    -0.09   0.00   0.05    -0.15   0.05  -0.01     0.01  -0.27  -0.10
    11   1    -0.06  -0.06   0.03    -0.02  -0.01  -0.01    -0.14  -0.00   0.31
    12   1    -0.09  -0.10   0.11    -0.06   0.00  -0.00    -0.03   0.25  -0.17
    13   1    -0.08  -0.17  -0.26    -0.03   0.61   0.24    -0.05  -0.37   0.10
    14   1    -0.37   0.23   0.09     0.08  -0.43   0.01     0.14  -0.59  -0.08
    15   1    -0.03  -0.00   0.05    -0.38   0.05  -0.21    -0.01  -0.06  -0.02
                     13                     14                     15
                      A                      A                      A
 Frequencies --    576.9959               612.3152               740.9998
 Red. masses --      2.9681                 7.1885                 1.1000
 Frc consts  --      0.5822                 1.5880                 0.3559
 IR Inten    --      1.3128                 9.3159                78.1281
  Atom  AN      X      Y      Z        X      Y      Z        X      Y      Z
     1   8     0.03   0.06   0.02    -0.00   0.03   0.02    -0.01  -0.04  -0.01
     2   1     0.04   0.31  -0.02    -0.03   0.08  -0.03     0.16   0.59   0.09
     3   6    -0.12  -0.01  -0.05    -0.26   0.03  -0.07    -0.01   0.00  -0.00
     4   1    -0.12  -0.21  -0.14    -0.28   0.44   0.05    -0.01   0.01  -0.01
     5   6    -0.12   0.20   0.06    -0.21  -0.36  -0.19    -0.01  -0.01  -0.01
     6   6    -0.01  -0.02  -0.04    -0.01   0.14   0.03     0.00   0.01   0.02
     7   8    -0.03  -0.03  -0.02     0.34  -0.09   0.07     0.01   0.02   0.01
     8   8     0.13   0.01  -0.04     0.05   0.22   0.08    -0.01  -0.01  -0.00
     9   6     0.15  -0.13   0.12     0.02   0.01   0.03     0.00  -0.03  -0.03
    10   6    -0.05  -0.07  -0.04    -0.02  -0.05  -0.02     0.04  -0.02  -0.01
    11   1     0.05  -0.15   0.06    -0.18  -0.04  -0.19    -0.02   0.01   0.27
    12   1     0.16  -0.15   0.13     0.17  -0.19   0.10     0.03   0.23  -0.16
    13   1     0.11   0.36  -0.20     0.01   0.04  -0.02     0.07   0.08  -0.02
    14   1    -0.22  -0.43   0.08    -0.05  -0.24   0.03     0.11   0.35  -0.09
    15   1    -0.36   0.01  -0.11    -0.10   0.00  -0.06    -0.37  -0.12   0.38
                     16                     17                     18
                      A                      A                      A
 Frequencies --    747.9420               780.3669               788.2943
 Red. masses --      1.3140                 1.5143                 4.8363
 Frc consts  --      0.4331                 0.5433                 1.7707
 IR Inten    --     39.8709                15.2055                49.4651
  Atom  AN      X      Y      Z        X      Y      Z        X      Y      Z
     1   8     0.00  -0.00  -0.00    -0.00  -0.00  -0.00     0.00   0.01   0.00
     2   1    -0.00   0.00  -0.00     0.00   0.02   0.00     0.00  -0.05   0.02
     3   6     0.00  -0.14  -0.04     0.05   0.05  -0.14     0.03   0.02  -0.07
     4   1    -0.02   0.94   0.29    -0.29  -0.28   0.89    -0.24  -0.22   0.72
     5   6    -0.00   0.07   0.02    -0.03  -0.03   0.09     0.05   0.05  -0.14
     6   6     0.00  -0.00  -0.00     0.03   0.03  -0.09    -0.15  -0.17   0.46
     7   8    -0.01   0.00  -0.00    -0.01  -0.01   0.03     0.05   0.05  -0.13
     8   8    -0.00  -0.00  -0.00    -0.01  -0.01   0.02     0.04   0.05  -0.12
     9   6     0.01  -0.00   0.00    -0.00   0.00  -0.00     0.00  -0.00   0.01
    10   6     0.00   0.00  -0.00     0.00  -0.00  -0.00    -0.00  -0.00   0.01
    11   1     0.00  -0.00   0.01     0.00   0.00   0.01    -0.01  -0.01  -0.01
    12   1     0.00   0.00   0.00     0.01   0.01  -0.01    -0.06  -0.02   0.02
    13   1     0.01   0.01  -0.01    -0.00  -0.00   0.01     0.01   0.01  -0.06
    14   1    -0.00  -0.00   0.00     0.02   0.02  -0.01    -0.10  -0.07   0.05
    15   1    -0.00   0.00  -0.00    -0.00  -0.01   0.02    -0.03   0.03  -0.09
                     19                     20                     21
                      A                      A                      A
 Frequencies --    862.8904               903.0174               950.9318
 Red. masses --      2.1772                 1.8884                 2.2672
 Frc consts  --      0.9551                 0.9073                 1.2079
 IR Inten    --      8.0214                 9.0818                10.8722
  Atom  AN      X      Y      Z        X      Y      Z        X      Y      Z
     1   8     0.01   0.02  -0.00     0.00  -0.02   0.01     0.02   0.02  -0.01
     2   1    -0.11  -0.47  -0.06     0.03   0.25  -0.02    -0.05  -0.31  -0.02
     3   6    -0.07   0.01  -0.02     0.05  -0.00   0.02     0.08  -0.01   0.03
     4   1    -0.07   0.02  -0.01     0.05   0.01   0.02     0.09  -0.01   0.02
     5   6    -0.04  -0.04  -0.03     0.03  -0.04   0.00     0.05   0.01   0.02
     6   6     0.06   0.07   0.04    -0.05   0.04  -0.01    -0.11  -0.02  -0.04
     7   8     0.04   0.12   0.06     0.00  -0.00   0.00    -0.03  -0.12  -0.05
     8   8    -0.07  -0.11  -0.07    -0.15  -0.02  -0.03    -0.02   0.17   0.05
     9   6     0.03  -0.15   0.04     0.03   0.05   0.08    -0.04  -0.10   0.07
    10   6     0.03   0.05  -0.02     0.17   0.00  -0.02     0.05   0.00  -0.06
    11   1     0.10  -0.08   0.51    -0.03   0.01  -0.22    -0.42  -0.10   0.34
    12   1    -0.13   0.28  -0.14    -0.20  -0.21   0.23     0.11   0.12  -0.06
    13   1     0.15   0.34  -0.15     0.29   0.05  -0.52     0.21   0.49  -0.14
    14   1     0.02   0.15  -0.03    -0.35  -0.19   0.16     0.13   0.33  -0.15
    15   1     0.22   0.04  -0.21    -0.29   0.08  -0.22     0.07  -0.05  -0.04
                     22                     23                     24
                      A                      A                      A
 Frequencies --   1048.4092              1093.2325              1142.0922
 Red. masses --      1.2315                 3.4735                 1.7648
 Frc consts  --      0.7975                 2.4459                 1.3563
 IR Inten    --     66.0032                12.7586                 2.9007
  Atom  AN      X      Y      Z        X      Y      Z        X      Y      Z
     1   8    -0.01  -0.00  -0.02     0.00   0.00   0.00    -0.00  -0.02   0.01
     2   1     0.05  -0.01   0.08    -0.00  -0.02   0.00     0.02   0.14  -0.00
     3   6     0.01   0.00   0.00     0.07  -0.00   0.02     0.00  -0.00   0.00
     4   1     0.01   0.01   0.01     0.08   0.01   0.03     0.01   0.00   0.00
     5   6     0.01  -0.01  -0.00     0.03  -0.03   0.00     0.00  -0.01   0.00
     6   6    -0.02   0.01   0.00    -0.13   0.06  -0.03    -0.00   0.00   0.00
     7   8     0.00   0.00   0.00     0.00  -0.04  -0.01     0.00   0.01   0.00
     8   8    -0.05  -0.01  -0.04    -0.17   0.06  -0.05    -0.03  -0.00  -0.05
     9   6     0.06   0.03   0.06     0.32  -0.06  -0.07     0.02  -0.03   0.19
    10   6    -0.03  -0.00  -0.06    -0.11  -0.01   0.15    -0.00   0.06  -0.14
    11   1     0.05   0.00  -0.13     0.27  -0.03   0.13     0.03  -0.06  -0.04
    12   1     0.03  -0.11   0.13     0.56   0.21  -0.24     0.10  -0.15   0.25
    13   1     0.05   0.29   0.05    -0.22  -0.29   0.24    -0.24  -0.45   0.30
    14   1     0.06  -0.25  -0.03    -0.11  -0.02   0.15     0.50   0.19  -0.32
    15   1     0.45  -0.16   0.73    -0.10   0.07  -0.18    -0.11   0.12  -0.20
                     25                     26                     27
                      A                      A                      A
 Frequencies --   1182.4576              1281.3847              1340.9860
 Red. masses --      1.6325                 2.3121                 1.6339
 Frc consts  --      1.3448                 2.2367                 1.7311
 IR Inten    --      8.7961               391.9940               259.0971
  Atom  AN      X      Y      Z        X      Y      Z        X      Y      Z
     1   8     0.02   0.04   0.00     0.00   0.01   0.00    -0.01  -0.01   0.00
     2   1    -0.06  -0.23  -0.04    -0.01  -0.04  -0.02     0.01   0.05   0.00
     3   6    -0.01   0.00  -0.00     0.06  -0.00   0.02     0.02  -0.00   0.01
     4   1    -0.01   0.00  -0.00     0.07   0.01   0.03     0.03   0.01   0.01
     5   6    -0.00  -0.00  -0.00     0.02  -0.01   0.00     0.00  -0.00  -0.00
     6   6     0.01   0.00   0.01    -0.23   0.18  -0.02    -0.11   0.09  -0.00
     7   8     0.01   0.02   0.01     0.03  -0.03  -0.00     0.02   0.01   0.01
     8   8    -0.02  -0.05  -0.03     0.10  -0.05   0.01     0.07  -0.12  -0.03
     9   6     0.03   0.12   0.03    -0.07  -0.04   0.00    -0.06   0.02   0.01
    10   6    -0.04  -0.17   0.02    -0.00  -0.04  -0.01     0.02   0.05   0.01
    11   1    -0.06   0.07  -0.30     0.88   0.02  -0.04    -0.56  -0.01   0.09
    12   1     0.23  -0.19   0.15    -0.28  -0.03   0.04     0.75  -0.07  -0.07
    13   1     0.09   0.39   0.11     0.03   0.05  -0.01     0.01  -0.06  -0.08
    14   1     0.05   0.60  -0.15     0.07   0.09  -0.06    -0.04  -0.15   0.07
    15   1    -0.22  -0.21  -0.15    -0.05  -0.06  -0.00     0.07   0.04  -0.01
                     28                     29                     30
                      A                      A                      A
 Frequencies --   1411.9918              1445.4384              1484.3417
 Red. masses --      1.3481                 1.1800                 1.1031
 Frc consts  --      1.5835                 1.4525                 1.4320
 IR Inten    --     36.6914                 5.6242                26.0939
  Atom  AN      X      Y      Z        X      Y      Z        X      Y      Z
     1   8    -0.00  -0.00  -0.00     0.00   0.00  -0.00     0.00   0.00  -0.00
     2   1     0.01   0.02   0.01    -0.01  -0.03  -0.00    -0.01  -0.02  -0.01
     3   6    -0.02   0.00  -0.01     0.00  -0.00   0.00    -0.01   0.00  -0.00
     4   1    -0.02  -0.00  -0.01     0.00   0.00   0.00    -0.01  -0.00  -0.00
     5   6    -0.00   0.00   0.00     0.00  -0.00  -0.00    -0.00   0.00   0.00
     6   6     0.07  -0.04   0.01    -0.02   0.01  -0.00     0.04  -0.01   0.01
     7   8    -0.01  -0.01  -0.01     0.00   0.00   0.00    -0.01  -0.01  -0.01
     8   8    -0.04   0.04  -0.02     0.01  -0.01   0.01    -0.02   0.02  -0.01
     9   6    -0.11  -0.02   0.05     0.04   0.03  -0.02    -0.03   0.03  -0.06
    10   6     0.01  -0.00   0.04    -0.08  -0.00   0.07     0.01   0.00  -0.00
    11   1     0.53   0.00  -0.27    -0.15   0.02   0.03     0.26   0.12   0.64
    12   1     0.62   0.22  -0.19    -0.19  -0.06   0.06     0.22  -0.62   0.24
    13   1     0.10   0.03  -0.32     0.05  -0.08  -0.65     0.01   0.00  -0.03
    14   1     0.16  -0.07   0.00     0.67  -0.11  -0.13     0.00  -0.03   0.01
    15   1     0.04  -0.00  -0.00    -0.03   0.03   0.01    -0.04   0.00   0.03
                     31                     32                     33
                      A                      A                      A
 Frequencies --   1541.6962              1828.7106              2272.1262
 Red. masses --      1.0558                11.7275                 5.7377
 Frc consts  --      1.4785                23.1071                17.4524
 IR Inten    --    126.7120               308.3073                88.9273
  Atom  AN      X      Y      Z        X      Y      Z        X      Y      Z
     1   8    -0.04  -0.02   0.02     0.00   0.00  -0.00     0.00  -0.00  -0.00
     2   1     0.10   0.53   0.07    -0.02  -0.13  -0.05    -0.00   0.01   0.00
     3   6     0.00   0.00   0.00    -0.07   0.01  -0.02    -0.36   0.03  -0.11
     4   1     0.00   0.00   0.00    -0.10   0.03  -0.02    -0.72   0.05  -0.22
     5   6     0.00   0.00   0.00     0.04  -0.02   0.01     0.51  -0.04   0.16
     6   6     0.00   0.01   0.01     0.38   0.59   0.34    -0.09  -0.00  -0.03
     7   8    -0.00  -0.01  -0.01    -0.25  -0.38  -0.22     0.00   0.00   0.00
     8   8    -0.00   0.00   0.00    -0.01  -0.06  -0.02    -0.00   0.00   0.00
     9   6     0.01   0.00  -0.01     0.04   0.01   0.02     0.00  -0.00  -0.00
    10   6    -0.02  -0.03   0.01    -0.01   0.01  -0.00    -0.00  -0.00   0.00
    11   1     0.00   0.01   0.04    -0.18  -0.03  -0.11     0.00  -0.00   0.00
    12   1    -0.03  -0.05   0.02    -0.11   0.13  -0.00    -0.00  -0.00   0.00
    13   1     0.04   0.15  -0.00    -0.03  -0.05   0.03     0.00   0.00   0.00
    14   1     0.02   0.11  -0.02     0.02  -0.01  -0.01     0.00   0.00  -0.00
    15   1     0.64  -0.17  -0.47    -0.10   0.01   0.06     0.00  -0.00  -0.00
                     34                     35                     36
                      A                      A                      A
 Frequencies --   3082.0078              3116.8928              3135.0844
 Red. masses --      1.0584                 1.0567                 1.1037
 Frc consts  --      5.9236                 6.0483                 6.3916
 IR Inten    --     10.8051                 2.0284                 1.8421
  Atom  AN      X      Y      Z        X      Y      Z        X      Y      Z
     1   8     0.00  -0.00  -0.00    -0.00   0.00   0.00     0.00   0.00  -0.00
     2   1    -0.00  -0.00   0.00    -0.00   0.00   0.00    -0.00   0.00   0.00
     3   6    -0.00   0.00  -0.00    -0.00  -0.00  -0.00    -0.00  -0.00   0.00
     4   1     0.00   0.00  -0.00     0.00   0.00   0.00     0.00  -0.00   0.00
     5   6     0.00  -0.00   0.00     0.00  -0.00   0.00     0.00   0.00  -0.00
     6   6    -0.00   0.00   0.00     0.00   0.00   0.00    -0.00  -0.00  -0.00
     7   8    -0.00  -0.00  -0.00    -0.00  -0.00  -0.00     0.00   0.00   0.00
     8   8     0.00  -0.00   0.00     0.00  -0.00  -0.00    -0.00   0.00   0.00
     9   6     0.01  -0.05   0.05     0.00   0.01   0.02    -0.01  -0.07  -0.05
    10   6    -0.00   0.00  -0.00     0.04  -0.02  -0.05     0.01  -0.01  -0.01
    11   1    -0.06   0.80  -0.08     0.01  -0.10   0.01    -0.04   0.56  -0.07
    12   1    -0.08  -0.27  -0.51    -0.03  -0.09  -0.18     0.10   0.34   0.70
    13   1     0.04  -0.01   0.01    -0.63   0.18  -0.14    -0.19   0.06  -0.04
    14   1    -0.00   0.00  -0.00     0.20   0.12   0.66     0.04   0.02   0.12
    15   1    -0.00   0.01   0.00     0.00  -0.01  -0.01     0.00   0.00  -0.00
                     37                     38                     39
                      A                      A                      A
 Frequencies --   3203.1788              3490.0696              3810.0623
 Red. masses --      1.1110                 1.1716                 1.0655
 Frc consts  --      6.7164                 8.4082                 9.1131
 IR Inten    --      1.8390                63.4128               131.9237
  Atom  AN      X      Y      Z        X      Y      Z        X      Y      Z
     1   8     0.00   0.00   0.00    -0.00   0.00   0.00    -0.05   0.01   0.03
     2   1    -0.00  -0.00  -0.00     0.00  -0.00  -0.00     0.82  -0.14  -0.54
     3   6     0.00   0.00   0.00    -0.11   0.01  -0.03     0.00   0.00   0.00
     4   1    -0.00   0.00  -0.00     0.95  -0.07   0.29    -0.00  -0.00  -0.00
     5   6    -0.00   0.00  -0.00     0.03  -0.00   0.01     0.00   0.00   0.00
     6   6     0.00  -0.00  -0.00    -0.00   0.00  -0.00    -0.00  -0.00  -0.00
     7   8     0.00   0.00   0.00     0.00  -0.00  -0.00    -0.00   0.00   0.00
     8   8     0.00   0.00   0.00     0.00   0.00   0.00    -0.00   0.00   0.00
     9   6    -0.00  -0.00  -0.01    -0.00   0.00  -0.00     0.00  -0.00  -0.00
    10   6    -0.07   0.01  -0.07     0.00  -0.00   0.00     0.00   0.00  -0.00
    11   1    -0.00   0.00  -0.00     0.00  -0.00   0.00    -0.00   0.00   0.00
    12   1     0.01   0.03   0.06     0.00   0.00  -0.00    -0.00   0.00   0.00
    13   1     0.67  -0.21   0.13     0.00  -0.00  -0.00    -0.00  -0.00  -0.00
    14   1     0.19   0.13   0.66    -0.00   0.00  -0.00     0.00  -0.00   0.00
    15   1    -0.01   0.00  -0.01    -0.00   0.00   0.00    -0.01  -0.02   0.00

 -------------------
 - Thermochemistry -
 -------------------
 Temperature   298.150 Kelvin.  Pressure   1.00000 Atm.
 Atom     1 has atomic number  8 and mass  15.99491
 Atom     2 has atomic number  1 and mass   1.00783
 Atom     3 has atomic number  6 and mass  12.00000
 Atom     4 has atomic number  1 and mass   1.00783
 Atom     5 has atomic number  6 and mass  12.00000
 Atom     6 has atomic number  6 and mass  12.00000
 Atom     7 has atomic number  8 and mass  15.99491
 Atom     8 has atomic number  8 and mass  15.99491
 Atom     9 has atomic number  6 and mass  12.00000
 Atom    10 has atomic number  6 and mass  12.00000
 Atom    11 has atomic number  1 and mass   1.00783
 Atom    12 has atomic number  1 and mass   1.00783
 Atom    13 has atomic number  1 and mass   1.00783
 Atom    14 has atomic number  1 and mass   1.00783
 Atom    15 has atomic number  1 and mass   1.00783
 Molecular mass:   115.03952 amu.
 Principal axes and moments of inertia in atomic units:
                           1         2         3
     Eigenvalues --   538.876671519.763151851.07625
           X            0.99972  -0.02344   0.00314
           Y            0.02346   0.99970  -0.00643
           Z           -0.00299   0.00650   0.99997
 This molecule is an asymmetric top.
 Rotational symmetry number  1.
 Warning -- assumption of classical behavior for rotation
           may cause significant error
 Rotational temperatures (Kelvin)      0.16073     0.05699     0.04679
 Rotational constants (GHZ):           3.34908     1.18751     0.97497
    1 imaginary frequencies ignored.
 Zero-point vibrational energy     280940.8 (Joules/Mol)
                                   67.14647 (Kcal/Mol)
 Warning -- explicit consideration of  13 degrees of freedom as
           vibrations may cause significant error
 Vibrational temperatures:     51.63   132.53   171.51   267.37   280.66
          (Kelvin)            393.30   484.41   567.47   602.08   704.27
                              798.84   830.17   880.99  1066.13  1076.12
                             1122.77  1134.18  1241.51  1299.24  1368.18
                             1508.43  1572.92  1643.22  1701.29  1843.63
                             1929.38  2031.54  2079.66  2135.64  2218.16
                             2631.11  3269.08  4434.32  4484.51  4510.69
                             4608.66  5021.43  5481.83
 
 Zero-point correction=                           0.107005 (Hartree/Particle)
 Thermal correction to Energy=                    0.116143
 Thermal correction to Enthalpy=                  0.117087
 Thermal correction to Gibbs Free Energy=         0.071708
 Sum of electronic and zero-point Energies=           -420.098914
 Sum of electronic and thermal Energies=              -420.089776
 Sum of electronic and thermal Enthalpies=            -420.088832
 Sum of electronic and thermal Free Energies=         -420.134212
 
                     E (Thermal)             CV                S
                      KCal/Mol        Cal/Mol-Kelvin    Cal/Mol-Kelvin
 Total                   72.881             32.318             95.510
 Electronic               0.000              0.000              1.377
 Translational            0.889              2.981             40.136
 Rotational               0.889              2.981             28.807
 Vibrational             71.104             26.357             25.190
 Vibration     1          0.594              1.982              5.474
 Vibration     2          0.602              1.955              3.615
 Vibration     3          0.609              1.933              3.113
 Vibration     4          0.632              1.859              2.269
 Vibration     5          0.636              1.847              2.179
 Vibration     6          0.676              1.722              1.575
 Vibration     7          0.717              1.602              1.228
 Vibration     8          0.761              1.482              0.983
 Vibration     9          0.781              1.430              0.897
 Vibration    10          0.845              1.273              0.685
 Vibration    11          0.911              1.128              0.533
 Vibration    12          0.933              1.081              0.491
 Vibration    13          0.972              1.006              0.429
                       Q            Log10(Q)             Ln(Q)
 Total Bot       0.103954D-32        -32.983160        -75.946533
 Total V=0       0.172007D+17         16.235546         37.383726
 Vib (Bot)       0.243162D-46        -46.614105       -107.332943
 Vib (Bot)    1  0.576796D+01          0.761022          1.752318
 Vib (Bot)    2  0.223130D+01          0.348557          0.802582
 Vib (Bot)    3  0.171466D+01          0.234177          0.539214
 Vib (Bot)    4  0.107861D+01          0.032865          0.075675
 Vib (Bot)    5  0.102410D+01          0.010340          0.023810
 Vib (Bot)    6  0.705782D+00         -0.151329         -0.348449
 Vib (Bot)    7  0.552668D+00         -0.257535         -0.592997
 Vib (Bot)    8  0.453746D+00         -0.343187         -0.790218
 Vib (Bot)    9  0.420097D+00         -0.376651         -0.867270
 Vib (Bot)   10  0.338879D+00         -0.469955         -1.082111
 Vib (Bot)   11  0.281229D+00         -0.550940         -1.268586
 Vib (Bot)   12  0.264889D+00         -0.576935         -1.328443
 Vib (Bot)   13  0.240767D+00         -0.618403         -1.423927
 Vib (V=0)       0.402347D+03          2.604601          5.997316
 Vib (V=0)    1  0.628959D+01          0.798622          1.838896
 Vib (V=0)    2  0.278663D+01          0.445079          1.024833
 Vib (V=0)    3  0.228607D+01          0.359090          0.826835
 Vib (V=0)    4  0.168887D+01          0.227595          0.524058
 Vib (V=0)    5  0.163964D+01          0.214748          0.494475
 Vib (V=0)    6  0.136494D+01          0.135115          0.311113
 Vib (V=0)    7  0.124528D+01          0.095267          0.219360
 Vib (V=0)    8  0.117519D+01          0.070109          0.161432
 Vib (V=0)    9  0.115306D+01          0.061850          0.142415
 Vib (V=0)   10  0.110402D+01          0.042977          0.098957
 Vib (V=0)   11  0.107366D+01          0.030868          0.071077
 Vib (V=0)   12  0.106583D+01          0.027689          0.063756
 Vib (V=0)   13  0.105495D+01          0.023232          0.053493
 Electronic      0.200000D+01          0.301030          0.693147
 Translational   0.484981D+08          7.685724         17.697035
 Rotational      0.440748D+06          5.644190         12.996229
 ***** Axes restored to original set *****
 -------------------------------------------------------------------
 Center     Atomic                   Forces (Hartrees/Bohr)
 Number     Number              X              Y              Z
 -------------------------------------------------------------------
      1        8          -0.003404202   -0.023974055   -0.003590067
      2        1           0.001126582    0.001681240   -0.000333181
      3        6           0.000032248   -0.000031099    0.000000403
      4        1          -0.000002870    0.000017972    0.000006332
      5        6           0.000026766   -0.000156922   -0.000098047
      6        6          -0.000566014    0.001367502    0.000391744
      7        8          -0.000499176   -0.000862103    0.000187582
      8        8           0.001109489   -0.001257670   -0.000162619
      9        6          -0.000628185    0.003709067   -0.000926119
     10        6          -0.002902867   -0.018072758    0.000946541
     11        1           0.000445051    0.000018289   -0.000042981
     12        1           0.000178334    0.000009259    0.000149536
     13        1           0.001076870    0.003742919    0.000468118
     14        1          -0.000346394    0.003927696   -0.000792890
     15        1           0.004354367    0.029880661    0.003795649
 -------------------------------------------------------------------
 Cartesian Forces:  Max     0.029880661 RMS     0.006529733

 GradGradGradGradGradGradGradGradGradGradGradGradGradGradGradGradGradGrad
 Berny optimization.
 Search for a local minimum.
 Step number   1 out of a maximum of    2
 All quantities printed in internal units (Hartrees-Bohrs-Radians)
 Second derivative matrix not updated -- analytic derivatives used.
 ITU=  0
     Eigenvalues ---   -0.13407   0.00036   0.00124   0.00316   0.00481
     Eigenvalues ---    0.00699   0.01062   0.01467   0.01685   0.02246
     Eigenvalues ---    0.02631   0.03187   0.03628   0.05061   0.05385
     Eigenvalues ---    0.06284   0.07046   0.08657   0.09331   0.09526
     Eigenvalues ---    0.10762   0.12566   0.15405   0.16816   0.18985
     Eigenvalues ---    0.24617   0.29737   0.34528   0.45002   0.52515
     Eigenvalues ---    0.64521   0.72140   0.79769   0.84099   0.89479
     Eigenvalues ---    0.91068   0.97762   1.70320   2.74371
 Eigenvalue     1 is  -1.34D-01 should be greater than     0.000000 Eigenvector:
                          Y15       Y10       Y1        Z15       X15
   1                    0.88410  -0.33543  -0.20319   0.10369   0.10318
                          Y13       X1        X13       Z14       Y14
   1                    0.08236  -0.07410   0.07364  -0.06833   0.06276
 Quadratic step=3.799D-01 exceeds max=3.000D-01 adjusted using Lamda=-1.555D-02.
 Angle between NR and scaled steps=  19.13 degrees.
 Angle between quadratic step and forces=  23.49 degrees.
 Linear search not attempted -- first point.
 B after Tr=    -0.002390   -0.013143   -0.001301
         Rot=    0.999997    0.001676   -0.000242    0.001596 Ang=   0.27 deg.
 Variable       Old X    -DE/DX   Delta X   Delta X   Delta X     New X
                                 (Linear)    (Quad)   (Total)
    X1        4.42596  -0.00340   0.00000  -0.03150  -0.02466   4.40130
    Y1        3.13649  -0.02397   0.00000  -0.14024  -0.16959   2.96690
    Z1       -0.62912  -0.00359   0.00000  -0.00908  -0.02253  -0.65164
    X2        2.90413   0.00113   0.00000   0.00352   0.01199   2.91612
    Y2        3.36589   0.00168   0.00000  -0.01375  -0.03500   3.33090
    Z2        0.36544  -0.00033   0.00000  -0.00251  -0.01644   0.34899
    X3       -6.26916   0.00003   0.00000  -0.00065  -0.00238  -6.27154
    Y3        0.35759  -0.00003   0.00000  -0.00961  -0.00601   0.35158
    Z3       -0.97559   0.00000   0.00000  -0.00162  -0.00109  -0.97667
    X4       -8.18911  -0.00000   0.00000  -0.00091  -0.00247  -8.19158
    Y4        0.49499   0.00002   0.00000  -0.00858  -0.00082   0.49417
    Z4       -1.56380   0.00001   0.00000  -0.00125  -0.00026  -1.56406
    X5       -4.11077   0.00003   0.00000  -0.00045  -0.00233  -4.11310
    Y5        0.20244  -0.00016   0.00000  -0.00157  -0.00263   0.19980
    Z5       -0.31239  -0.00010   0.00000  -0.00099  -0.00099  -0.31338
    X6       -1.49510  -0.00057   0.00000  -0.00308  -0.00477  -1.49988
    Y6        0.11683   0.00137   0.00000   0.02037   0.01376   0.13059
    Z6        0.51683   0.00039   0.00000   0.00449   0.00344   0.52027
    X7       -0.43376  -0.00050   0.00000  -0.02292  -0.01855  -0.45231
    Y7        1.86336  -0.00086   0.00000   0.01748   0.01091   1.87427
    Z7        1.50942   0.00019   0.00000   0.02324   0.01584   1.52526
    X8       -0.46223   0.00111   0.00000   0.02167   0.01260  -0.44963
    Y8       -2.12859  -0.00126   0.00000   0.02886   0.01727  -2.11132
    Z8        0.05110  -0.00016   0.00000  -0.01550  -0.00955   0.04155
    X9        2.11941  -0.00063   0.00000   0.00797  -0.00185   2.11756
    Y9       -2.48768   0.00371   0.00000   0.03333   0.01621  -2.47147
    Z9        0.83562  -0.00093   0.00000  -0.00338   0.00253   0.83815
   X10        3.96535  -0.00290   0.00000  -0.00051  -0.00874   3.95661
   Y10       -1.56354  -0.01807   0.00000  -0.08913  -0.11866  -1.68220
   Z10       -1.11675   0.00095   0.00000  -0.00072   0.00163  -1.11512
   X11        2.28406   0.00045   0.00000   0.02454   0.00828   2.29234
   Y11       -4.53301   0.00002   0.00000   0.03024   0.01328  -4.51973
   Z11        1.06448  -0.00004   0.00000  -0.01708  -0.00439   1.06008
   X12        2.40987   0.00018   0.00000   0.00738   0.00130   2.41117
   Y12       -1.58048   0.00001   0.00000   0.01962   0.00772  -1.57276
   Z12        2.66547   0.00015   0.00000   0.00460   0.00736   2.67283
   X13        5.89174   0.00108   0.00000   0.02997   0.02049   5.91223
   Y13       -2.16850   0.00374   0.00000   0.06812   0.03370  -2.13481
   Z13       -0.72073   0.00047   0.00000   0.00672   0.00964  -0.71110
   X14        3.39517  -0.00035   0.00000   0.00150  -0.00843   3.38674
   Y14       -1.96897   0.00393   0.00000   0.08379   0.04954  -1.91943
   Z14       -3.05187  -0.00079   0.00000  -0.01773  -0.01432  -3.06618
   X15        4.22490   0.00435   0.00000   0.01859   0.01952   4.24443
   Y15        0.99941   0.02988   0.00000   0.20030   0.17033   1.16973
   Z15       -1.01166   0.00380   0.00000   0.03646   0.02911  -0.98254
         Item               Value     Threshold  Converged?
 Maximum Force            0.029881     0.000450     NO 
 RMS     Force            0.006530     0.000300     NO 
 Maximum Displacement     0.170328     0.001800     NO 
 RMS     Displacement     0.042816     0.001200     NO 
 Predicted change in Energy=-1.604336D-02
 GradGradGradGradGradGradGradGradGradGradGradGradGradGradGradGradGradGrad


 ----------------------------------------------------------------------

 Electric dipole moment (input orientation):
 (Debye = 10**-18 statcoulomb cm , SI units = C m)
                  (au)            (Debye)         (10**-30 SI)
   Tot        0.172115D+01      0.437473D+01      0.145925D+02
   x         -0.836121D+00     -0.212521D+01     -0.708893D+01
   y         -0.150427D+01     -0.382347D+01     -0.127537D+02
   z         -0.208513D-01     -0.529987D-01     -0.176785D+00

 Dipole polarizability, Alpha (input orientation).
 (esu units = cm**3 , SI units = C**2 m**2 J**-1)
 Alpha(0;0):
               (au)            (10**-24 esu)      (10**-40 SI)
   iso        0.738899D+02      0.109493D+02      0.121828D+02
   aniso      0.381767D+02      0.565720D+01      0.629448D+01
   xx         0.934042D+02      0.138411D+02      0.154003D+02
   yx        -0.753394D+00     -0.111641D+00     -0.124218D+00
   yy         0.758929D+02      0.112462D+02      0.125131D+02
   zx         0.749459D+01      0.111058D+01      0.123569D+01
   zy         0.227397D+01      0.336968D+00      0.374928D+00
   zz         0.523724D+02      0.776079D+01      0.863504D+01

 ----------------------------------------------------------------------

 Dipole orientation:
     8          1.71501768         -1.74077682         -4.88373639
     1          0.94128772         -0.16546668         -4.35698822
     6         -5.39915750          1.92282585          2.74479556
     1         -7.20525649          2.26505333          3.56453019
     6         -3.36752163          1.53962358          1.82383542
     6         -0.93708222          1.12076900          0.61794078
     8         -0.39771776          1.92819951         -1.43612825
     8          0.58784683         -0.23938504          2.08429700
     6          3.08821773         -0.74470199          1.13449671
     6          3.14755236         -3.03484603         -0.54628083
     1          4.20375559         -1.07927510          2.83933816
     1          3.80831298          0.93546285          0.17833958
     1          5.06613773         -3.65384837         -0.95817365
     1          1.94776144         -4.57300064          0.10848939
     1          2.29464106         -2.47333831         -2.91363799

 Electric dipole moment (dipole orientation):
 (Debye = 10**-18 statcoulomb cm , SI units = C m)
                  (au)            (Debye)         (10**-30 SI)
   Tot        0.172115D+01      0.437473D+01      0.145925D+02
   x          0.000000D+00      0.000000D+00      0.000000D+00
   y          0.000000D+00      0.000000D+00      0.000000D+00
   z          0.172115D+01      0.437473D+01      0.145925D+02

 Dipole polarizability, Alpha (dipole orientation).
 (esu units = cm**3 , SI units = C**2 m**2 J**-1)
 Alpha(0;0):
               (au)            (10**-24 esu)      (10**-40 SI)
   iso        0.738899D+02      0.109493D+02      0.121828D+02
   aniso      0.381767D+02      0.565720D+01      0.629448D+01
   xx         0.855719D+02      0.126804D+02      0.141089D+02
   yx        -0.131666D+02     -0.195110D+01     -0.217089D+01
   yy         0.565790D+02      0.838415D+01      0.932862D+01
   zx        -0.878380D+01     -0.130163D+01     -0.144825D+01
   zy        -0.118110D+01     -0.175022D+00     -0.194738D+00
   zz         0.795187D+02      0.117834D+02      0.131109D+02

 ----------------------------------------------------------------------
 1\1\GINC-AJ\Freq\UM062X\6-311++G(d,p)\C5H7O3(2)\AAYUSH\16-Aug-2025\0\\
 # freq 6-311++g(d,p) m062x\\Title Card Required\\0,2\O,2.342116,1.6597
 6,-0.332914\H,1.536799,1.781154,0.193381\C,-3.317499,0.189229,-0.51625
 8\H,-4.333492,0.261938,-0.827528\C,-2.175327,0.107125,-0.165311\C,-0.7
 91175,0.061823,0.273494\O,-0.229535,0.986047,0.79875\O,-0.244603,-1.12
 6401,0.027041\C,1.121545,-1.316426,0.442193\C,2.098372,-0.827392,-0.59
 0961\H,1.208672,-2.398767,0.563296\H,1.275249,-0.836355,1.410507\H,3.1
 17774,-1.147523,-0.381396\H,1.796644,-1.041933,-1.614979\H,2.235722,0.
 528863,-0.535347\\Version=ES64L-G16RevA.03\State=2-A\HF=-420.2059191\S
 2=0.759832\S2-1=0.\S2A=0.750046\RMSD=8.274e-09\RMSF=6.530e-03\ZeroPoin
 t=0.1070047\Thermal=0.1161433\Dipole=-0.8361208,-1.5042699,-0.0208513\
 DipoleDeriv=-0.5219116,0.1017653,-0.0546125,0.0472441,-0.2285654,0.030
 2386,-0.0192503,0.022832,-0.5087873,0.3686537,-0.0625066,0.0283569,0.0
 55493,0.3264887,0.0145622,0.0007905,0.0630819,0.2777583,-0.220598,0.00
 06782,-0.0137704,0.0101038,-0.1462838,-0.0025505,-0.0201286,-0.0061477
 ,-0.1357987,0.2782185,-0.0059352,0.0188947,-0.005827,0.2234658,0.00483
 72,0.0218146,0.0044856,0.2134904,-0.6910357,0.0420564,-0.1543631,0.067
 3744,-0.1184367,0.0032169,-0.1877334,0.0067661,-0.1430399,2.0920186,-0
 .1766486,0.3899775,-0.5977738,1.6443542,0.3761625,0.310137,0.40367,0.6
 651359,-0.9808303,-0.2308765,-0.2168455,-0.0992808,-0.8828529,-0.24448
 05,-0.1484351,-0.2859414,-0.5334429,-1.3743857,0.4393873,-0.0198275,0.
 717634,-0.9908058,-0.1139765,-0.0544826,-0.0838453,-0.3601053,0.941165
 ,-0.1144342,-0.0020756,-0.2358343,0.0906925,0.0187011,0.1093149,-0.069
 697,0.2467212,-0.025819,0.1362333,0.0041995,0.1731282,0.7020597,0.0426
 727,0.0147266,0.0099451,0.0037998,-0.0264487,-0.0694827,0.0251852,0.04
 29917,-0.0414251,0.0340934,0.0139154,0.0507156,0.0841073,-0.0188508,0.
 0203479,0.0307687,-0.0123197,0.0728173,-0.075367,-0.0257394,-0.0095912
 ,-0.0149932,-0.0440947,-0.0032492,-0.0079615,0.0436694,-0.0145752,0.00
 8695,-0.0084317,-0.0047828,0.0636022,0.0584678,-0.009604,-0.0402245,-0
 .0532208,-0.0340631,-0.0491749,0.0075789,0.0281423,-0.0159427,0.165450
 9,-0.0677314,0.0122981,-0.1533822,-0.6028701,-0.0476303,-0.0140768,-0.
 1296333,0.1574948\Polar=93.4042449,-0.7533941,75.892922,7.4945934,2.27
 39734,52.3724163\Quadrupole=4.5780966,-3.946923,-0.6311736,-7.68355,2.
 9804168,-0.3508367\PG=C01 [X(C5H7O3)]\NImag=1\\0.39371307,-0.03616215,
 0.12066257,-0.23952325,0.04475985,0.17784151,-0.35592049,0.06320147,0.
 23155431,0.35971653,0.03010835,-0.03750334,-0.02575776,-0.05467856,0.0
 5019548,0.22348236,-0.04646188,-0.15514458,-0.23070902,0.04450443,0.15
 932941,-0.00023093,-0.00013344,0.00018635,0.00029448,0.00039299,-0.000
 12847,1.43640902,-0.00003476,0.00006551,-0.00009525,0.00006428,-0.0000
 9413,0.00011458,-0.09751344,0.06456242,-0.00006650,-0.00006272,0.00014
 987,0.00006393,0.00006426,-0.00018347,0.42215353,-0.03152362,0.1909486
 3,0.00011626,0.00001690,-0.00000901,-0.00012889,-0.00006638,-0.0000061
 6,-0.38837953,0.02542285,-0.10976977,0.37866907,0.00004319,-0.00001650
 ,-0.00000119,-0.00005666,0.00001817,0.00001517,0.02548979,-0.02943991,
 0.00869637,-0.02570548,0.01879236,0.00005619,0.00003066,-0.00006250,-0
 .00006527,-0.00004926,0.00005636,-0.10968448,0.00869545,-0.06370811,0.
 11051600,-0.00823510,0.05196964,-0.00054217,-0.00017190,0.00049995,0.0
 0089265,0.00053644,-0.00050676,-1.04735097,0.07257302,-0.31083409,0.00
 980863,0.00017698,0.00055950,1.36893229,-0.00036744,-0.00015256,0.0004
 0848,0.00045507,0.00023592,-0.00067272,0.07086838,-0.03974511,0.022135
 49,-0.00004887,0.00518276,-0.00107093,-0.09114647,0.11227378,-0.000679
 17,-0.00024960,0.00034005,0.00086495,0.00087190,-0.00014471,-0.3113634
 3,0.02267175,-0.13023849,0.00054719,-0.00096910,0.00781595,0.40089828,
 -0.01267355,0.19092104,0.00156158,0.00050568,-0.00053768,-0.00299447,-
 0.00308989,-0.00044333,0.00553931,-0.00145875,0.00035063,-0.00107144,0
 .00009953,-0.00223788,-0.25677578,0.01052121,-0.05589547,0.70509050,0.
 00899920,0.00079324,-0.00268256,-0.01221028,-0.00360616,0.00313640,-0.
 00167301,0.00332115,-0.00040501,0.00090855,0.00548644,0.00017646,0.020
 46356,-0.06194020,0.01153564,0.11234090,0.77944723,0.00366974,0.000740
 06,-0.00211998,-0.00522263,-0.00176565,0.00214021,0.00005322,-0.000413
 68,0.00251513,-0.00195573,-0.00002440,0.00517714,-0.05231117,0.0076160
 0,-0.08850673,0.20559367,0.24316268,0.36809510,-0.00780839,-0.00381259
 ,0.00344533,-0.00127555,0.00255563,0.00144744,-0.00267137,0.00107933,-
 0.00060864,0.00054116,0.00129563,0.00099646,-0.03663491,-0.03742110,-0
 .03309750,-0.26166805,-0.23542264,-0.14532524,0.27317668,-0.00767402,-
 0.00082166,0.00259056,0.00587435,0.00139353,-0.00152639,0.00236708,0.0
 0081702,0.00094545,-0.00008850,-0.00009822,0.00032656,-0.03116703,-0.0
 0190293,-0.01915241,-0.23052589,-0.46539751,-0.21630099,0.27135691,0.5
 6469562,0.00150549,0.00087060,0.00179253,0.00333208,-0.00000916,-0.003
 97562,0.00002667,0.00049552,0.00057214,0.00046089,0.00072638,-0.000604
 36,-0.03046207,-0.02032725,0.00403718,-0.14479393,-0.22194545,-0.20916
 555,0.17188312,0.28116492,0.19744304,0.00294304,-0.00081616,-0.0002279
 3,-0.00421822,-0.00002845,0.00105874,-0.00443986,-0.00010948,-0.001581
 96,0.00072826,-0.00131456,-0.00010277,-0.04073006,0.04546769,-0.001082
 42,-0.15405736,0.08489940,0.00247059,0.03652929,0.00180801,0.00003843,
 0.42658830,-0.00391786,-0.00024167,0.00115982,0.00635291,0.00088379,-0
 .00211978,-0.00010659,0.00025296,-0.00013143,-0.00052084,-0.00005661,-
 0.00006904,0.02677103,-0.01072839,0.00106663,0.06560115,-0.24958938,-0
 .04765094,-0.00157199,-0.09883734,-0.04521895,-0.13302994,0.43741226,-
 0.00075192,-0.00003586,0.00078875,0.00112715,0.00000511,-0.00070842,-0
 .00162564,-0.00010125,-0.00014127,0.00017840,-0.00032732,-0.00043365,-
 0.00738713,0.00725720,0.01122853,-0.00606491,-0.03863463,-0.08222238,-
 0.00015227,-0.04578537,0.01429202,0.07064886,0.08709518,0.14021744,-0.
 00204923,0.00241294,0.00006141,0.00405633,-0.00027445,-0.00097386,0.00
 149952,0.00002194,0.00046077,-0.00038466,0.00008395,-0.00003054,0.0042
 8138,-0.00082207,-0.00008015,-0.03159360,0.04390106,0.00326588,-0.0054
 7713,-0.01941749,-0.00698945,-0.17297526,0.01136381,-0.03954744,0.4325
 8675,0.00148250,0.00430710,0.00069046,-0.00257042,-0.00025563,0.001468
 30,0.00019454,0.00026599,0.00027869,0.00011282,0.00009430,0.00018177,0
 .00194675,-0.00276614,-0.00284402,0.04381483,-0.01620987,0.01151262,0.
 00261512,0.00368866,0.00340250,-0.00840685,-0.08147886,-0.01130349,-0.
 00271700,0.59173560,-0.00099690,-0.00324811,-0.00097076,0.00056181,0.0
 0019431,0.00079626,0.00066664,0.00014975,0.00008164,-0.00000215,0.0001
 4949,-0.00024175,-0.00007437,-0.00335040,0.00520717,0.00425774,0.01549
 281,0.00643546,-0.00239154,-0.00364525,-0.00688669,-0.04776960,-0.0048
 7498,-0.08763275,0.00121349,0.04087165,0.56084697,-0.00067978,-0.01701
 595,-0.00130176,0.00109114,0.00226742,-0.00183718,-0.00017998,-0.00004
 565,-0.00003581,0.00002948,-0.00003925,0.00007191,-0.00029353,0.001069
 44,-0.00124966,-0.00030412,-0.00677921,-0.00077475,0.00078897,0.001352
 76,0.00215803,-0.04525945,-0.00617121,0.02175101,-0.12608257,-0.032594
 11,0.05160306,0.54620321,-0.01937137,-0.12777080,-0.01796747,0.0094180
 9,0.00201334,-0.00529988,0.00033395,-0.00010163,0.00005370,-0.00008167
 ,0.00010445,-0.00000594,0.00037706,-0.00094132,0.00017992,-0.00034330,
 0.01279321,0.00313082,-0.00402593,-0.00609256,-0.00085018,0.01175008,-
 0.00283896,-0.00750330,-0.03397096,-0.07488647,0.03032741,-0.02797316,
 0.19153276,-0.00016764,-0.00449959,0.00169950,-0.00114278,-0.00104779,
 -0.00035404,-0.00028152,-0.00003992,0.00000216,0.00003159,-0.00001081,
 0.00004630,0.00012582,0.00057246,-0.00095938,0.00012647,-0.00376448,0.
 00006700,0.00007480,0.00134970,0.00078526,-0.01039222,-0.00246040,0.01
 211137,0.06485797,0.04305356,-0.15725035,0.04817741,-0.00865567,0.5448
 3652,0.00048952,0.00014579,-0.00010017,-0.00084961,0.00005841,0.000414
 31,-0.00043069,-0.00006154,-0.00014107,0.00005714,-0.00004742,-0.00004
 232,-0.00109014,0.00114483,0.00068603,-0.00387920,-0.00393612,-0.00532
 799,0.00196234,0.00150502,0.00106436,-0.02174747,0.04265813,-0.0057103
 1,-0.04087535,0.00416025,-0.00051675,0.00081265,-0.01843995,0.00409755
 ,0.06402952,-0.00001779,-0.00082862,-0.00028096,0.00015618,0.00019087,
 -0.00016106,0.00009508,-0.00000364,-0.00000719,-0.00002564,0.00000888,
 -0.00000747,0.00021275,-0.00019892,0.00014868,-0.00106150,0.00129556,0
 .00076662,0.00067463,-0.00004318,0.00038296,0.00511390,-0.00374824,-0.
 00022015,0.02234768,-0.31193254,0.02299360,-0.00432529,-0.01100693,0.0
 0393558,-0.02260981,0.33514635,-0.00006142,0.00050164,0.00036399,0.000
 30365,0.00008733,-0.00040258,-0.00006042,-0.00001295,-0.00005316,0.000
 00221,-0.00000347,-0.00001845,-0.00036088,0.00022404,0.00037093,-0.001
 77388,-0.00261997,-0.00197235,0.00199455,-0.00027878,0.00106475,-0.006
 98805,0.01311760,-0.00072261,-0.00250127,0.02550782,-0.05031595,0.0029
 6842,0.02368911,-0.00551867,0.00370798,-0.03076751,0.05185443,0.000058
 79,0.00031941,-0.00061519,-0.00012171,-0.00016332,0.00022812,-0.000078
 72,0.00004032,0.00001587,0.00005089,-0.00000948,-0.00003141,-0.0004725
 8,-0.00002385,0.00051423,0.00146601,-0.00744548,-0.00367902,0.00108670
 ,0.00287865,0.00169950,-0.02255861,-0.00908007,-0.03466900,-0.05381914
 ,-0.01017538,-0.02173280,0.00691070,0.00938226,0.01931861,0.00181207,0
 .00024493,0.00232943,0.06811173,0.00014010,0.00073946,-0.00072610,0.00
 030148,-0.00055149,0.00045885,-0.00007957,0.00001480,0.00002485,-0.000
 00374,0.00000657,0.00003212,-0.00008283,0.00001417,-0.00074501,0.00206
 673,0.00240907,0.00212195,0.00030854,-0.00241534,0.00010385,0.00123030
 ,0.00228729,0.00759058,-0.01709584,-0.10391241,-0.11197275,0.00191357,
 0.00577436,0.01318289,-0.00351621,-0.01224505,-0.02761095,0.01641009,0
 .10841931,0.00003955,0.00061423,0.00075651,-0.00017594,0.00057574,-0.0
 0028614,0.00003795,0.00000423,0.00007932,0.00000352,-0.00001690,-0.000
 00439,-0.00004335,0.00027215,-0.00019375,0.00009533,-0.00490285,-0.000
 69450,0.00260421,0.00056433,0.00113669,-0.00981294,-0.00011793,-0.0067
 7915,-0.03153923,-0.10607290,-0.25845106,-0.00032062,-0.00692638,-0.02
 002124,0.00122028,0.00160811,0.00533011,0.03465500,0.11529033,0.281066
 90,0.00161410,0.00158640,0.00032272,-0.00061933,-0.00062181,0.00032810
 ,-0.00009256,0.00000822,0.00000274,0.00002855,-0.00001204,0.00000944,-
 0.00017357,0.00025450,-0.00027056,0.00062495,-0.00326665,-0.00065856,0
 .00065969,0.00104412,0.00049189,-0.00391393,0.00057456,0.00377886,-0.0
 1411490,0.00757831,-0.00775706,-0.29665761,0.07770491,-0.05028173,0.00
 040081,-0.00026024,-0.00031860,0.00012025,0.00002835,0.00063663,0.3172
 9576,0.00103792,0.00731041,0.00013367,-0.00109374,-0.00078110,0.001213
 80,-0.00003553,0.00001139,-0.00004666,0.00000266,-0.00001887,0.0000097
 0,-0.00008996,0.00027168,0.00000369,-0.00062303,-0.00275365,-0.0005123
 0,0.00099447,0.00107685,0.00015467,-0.00397026,0.00199257,0.00235031,-
 0.00986130,0.00393407,-0.00233783,0.09319264,-0.05083681,0.02262322,0.
 00056271,0.00077059,-0.00109997,0.00008261,0.00000126,0.00036631,-0.08
 433337,0.05309772,0.00071805,0.00140681,-0.00011147,-0.00008730,-0.000
 29007,0.00004145,0.00012432,0.00001294,0.00001651,-0.00000984,0.000013
 58,-0.00001609,0.00007275,-0.00035438,0.00032871,0.00008304,0.00193981
 ,0.00012675,-0.00019222,-0.00052094,-0.00043791,0.00588525,0.00043328,
 -0.00256149,0.01765800,-0.00717692,0.00783934,-0.05105892,0.01880853,-
 0.06287693,-0.00024223,0.00036710,0.00073198,-0.00106790,-0.00071075,-
 0.00004558,0.05451872,-0.02075086,0.05854504,-0.00041969,-0.00129215,0
 .00040463,0.00024435,0.00021723,0.00006437,0.00001336,-0.00000453,-0.0
 0003695,-0.00002177,0.00000817,0.00000132,0.00003430,-0.00006243,0.000
 08525,-0.00034424,0.00148144,0.00060114,-0.00032673,-0.00044333,-0.000
 36535,0.00344513,-0.00004210,-0.00135688,0.00576004,0.00401615,0.02190
 662,-0.07307812,-0.01635340,-0.07682270,0.00000369,-0.00012368,-0.0001
 8697,-0.00274087,-0.00165647,0.00305360,-0.00384034,-0.00612353,-0.026
 21123,0.07141247,0.00164951,0.00491593,0.00136226,-0.00175678,-0.00028
 550,0.00036210,-0.00002231,0.00000917,0.00000569,0.00002209,-0.0000070
 0,-0.00000898,-0.00004898,0.00006243,0.00009264,0.00036810,-0.00115918
 ,-0.00069251,0.00042582,0.00083269,0.00007896,-0.00000348,0.00020285,-
 0.00055722,0.00324098,0.00641430,0.01349853,-0.02026377,-0.03870967,-0
 .06482257,0.00095134,0.00012336,-0.00120287,-0.00207931,-0.00070564,0.
 00054776,0.00306797,0.00447495,0.00944712,0.01840781,0.03784855,0.0000
 4018,-0.00142758,0.00079091,0.00034945,0.00021704,-0.00029434,0.000023
 10,-0.00001210,0.00000886,0.00000251,0.00000301,0.00000665,0.00003718,
 -0.00000653,-0.00008048,0.00027413,-0.00013982,-0.00033071,0.00002477,
 -0.00005758,0.00025690,-0.00096472,-0.00051014,0.00265703,-0.00736095,
 -0.00600784,-0.01919585,-0.07477716,-0.04958291,-0.29869472,0.00007556
 ,0.00015671,0.00013966,0.00275199,0.00235030,-0.00136689,0.00042337,-0
 .00207065,-0.00146664,0.07977431,0.05448761,0.31900677,-0.03284569,-0.
 00878426,0.00584030,-0.00016721,0.02278642,0.00758134,0.00009892,0.000
 01820,0.00002732,-0.00004315,-0.00001236,-0.00001614,0.00011448,0.0001
 1112,0.00012244,-0.00159411,-0.00226072,-0.00039916,0.00111730,0.00112
 936,-0.00004966,-0.00033380,0.00111901,-0.00021879,-0.00081219,-0.0094
 5750,0.00103181,-0.01330100,0.01159339,0.00227838,-0.00069527,-0.00042
 121,0.00094526,0.00017449,0.00003551,-0.00045398,-0.00133187,0.0102577
 3,-0.00019049,-0.00014157,-0.00395899,-0.00067371,0.04976066,0.0240846
 1,0.02854092,-0.00359381,-0.01345740,-0.01185375,0.00496807,-0.0001779
 1,0.00006401,-0.00002788,0.00005525,-0.00005683,-0.00000601,-0.0003504
 2,0.00033485,0.00006284,0.00178424,-0.00488995,-0.00169027,0.00094819,
 0.00310438,0.00097061,-0.00259021,0.00448774,0.00017018,0.00078678,-0.
 01899809,0.00575177,0.01541176,0.10096703,0.00058381,-0.00257541,0.002
 47150,0.00046893,-0.00038139,0.00016363,-0.00180623,-0.00335322,-0.018
 55106,-0.00262526,0.00197083,-0.01401724,0.00260049,-0.02215570,-0.071
 76713,0.01273526,0.00706147,-0.02611433,-0.00075438,-0.01760044,-0.000
 86980,-0.00012783,0.00005454,-0.00004977,0.00001033,-0.00001571,0.0000
 1727,-0.00021366,-0.00003006,-0.00012602,0.00096607,-0.00034904,0.0004
 5540,-0.00070325,0.00032618,-0.00031038,-0.00117925,0.00028107,-0.0000
 9341,0.00150538,0.00643781,-0.00026168,0.00462605,0.02060222,-0.013872
 79,0.00081478,0.00108498,-0.00085209,0.00028257,0.00060986,-0.00052685
 ,-0.00122597,-0.00003709,-0.00011367,-0.00091117,-0.01259854,-0.001437
 14,-0.01582494,-0.00582725,0.04415526\\0.00340420,0.02397405,0.0035900
 7,-0.00112658,-0.00168124,0.00033318,-0.00003225,0.00003110,-0.0000004
 0,0.00000287,-0.00001797,-0.00000633,-0.00002677,0.00015692,0.00009805
 ,0.00056601,-0.00136750,-0.00039174,0.00049918,0.00086210,-0.00018758,
 -0.00110949,0.00125767,0.00016262,0.00062819,-0.00370907,0.00092612,0.
 00290287,0.01807276,-0.00094654,-0.00044505,-0.00001829,0.00004298,-0.
 00017833,-0.00000926,-0.00014954,-0.00107687,-0.00374292,-0.00046812,0
 .00034639,-0.00392770,0.00079289,-0.00435437,-0.02988066,-0.00379565\\
 \@


 I WISH TO HAVE NO CONNECTION WITH ANY SHIP THAT DOES NOT SAIL FAST,
 FOR I INTEND TO GO IN HARM'S WAY.
     -- JOHN PAUL JONES, USN 1747-1792
 Job cpu time:       0 days  0 hours 53 minutes 54.5 seconds.
 Elapsed time:       0 days  0 hours  2 minutes 14.8 seconds.
 File lengths (MBytes):  RWF=    153 Int=      0 D2E=      0 Chk=      5 Scr=      1
 Normal termination of Gaussian 16 at Sat Aug 16 15:37:33 2025.
