 Entering Gaussian System, Link 0=g16
 Initial command:
 /opt/g16/l1.exe "/home/aayush/scratches/g16/Gau-32816.inp" -scrdir="/home/aayush/scratches/g16/"
 Entering Link 1 = /opt/g16/l1.exe PID=     32819.
  
 Copyright (c) 1988,1990,1992,1993,1995,1998,2003,2009,2016,
            Gaussian, Inc.  All Rights Reserved.
  
 This is part of the Gaussian(R) 16 program.  It is based on
 the Gaussian(R) 09 system (copyright 2009, Gaussian, Inc.),
 the Gaussian(R) 03 system (copyright 2003, Gaussian, Inc.),
 the Gaussian(R) 98 system (copyright 1998, Gaussian, Inc.),
 the Gaussian(R) 94 system (copyright 1995, Gaussian, Inc.),
 the Gaussian 92(TM) system (copyright 1992, Gaussian, Inc.),
 the Gaussian 90(TM) system (copyright 1990, Gaussian, Inc.),
 the Gaussian 88(TM) system (copyright 1988, Gaussian, Inc.),
 the Gaussian 86(TM) system (copyright 1986, Carnegie Mellon
 University), and the Gaussian 82(TM) system (copyright 1983,
 Carnegie Mellon University). Gaussian is a federally registered
 trademark of Gaussian, Inc.
  
 This software contains proprietary and confidential information,
 including trade secrets, belonging to Gaussian, Inc.
  
 This software is provided under written license and may be
 used, copied, transmitted, or stored only in accord with that
 written license.
  
 The following legend is applicable only to US Government
 contracts under FAR:
  
                    RESTRICTED RIGHTS LEGEND
  
 Use, reproduction and disclosure by the US Government is
 subject to restrictions as set forth in subparagraphs (a)
 and (c) of the Commercial Computer Software - Restricted
 Rights clause in FAR 52.227-19.
  
 Gaussian, Inc.
 340 Quinnipiac St., Bldg. 40, Wallingford CT 06492
  
  
 ---------------------------------------------------------------
 Warning -- This program may not be used in any manner that
 competes with the business of Gaussian, Inc. or will provide
 assistance to any competitor of Gaussian, Inc.  The licensee
 of this program is prohibited from giving any competitor of
 Gaussian, Inc. access to this program.  By using this program,
 the user acknowledges that Gaussian, Inc. is engaged in the
 business of creating and licensing software in the field of
 computational chemistry and represents and warrants to the
 licensee that it is not a competitor of Gaussian, Inc. and that
 it will not use this program in any manner prohibited above.
 ---------------------------------------------------------------
  

 Cite this work as:
 Gaussian 16, Revision A.03,
 M. J. Frisch, G. W. Trucks, H. B. Schlegel, G. E. Scuseria, 
 M. A. Robb, J. R. Cheeseman, G. Scalmani, V. Barone, 
 G. A. Petersson, H. Nakatsuji, X. Li, M. Caricato, A. V. Marenich, 
 J. Bloino, B. G. Janesko, R. Gomperts, B. Mennucci, H. P. Hratchian, 
 J. V. Ortiz, A. F. Izmaylov, J. L. Sonnenberg, D. Williams-Young, 
 F. Ding, F. Lipparini, F. Egidi, J. Goings, B. Peng, A. Petrone, 
 T. Henderson, D. Ranasinghe, V. G. Zakrzewski, J. Gao, N. Rega, 
 G. Zheng, W. Liang, M. Hada, M. Ehara, K. Toyota, R. Fukuda, 
 J. Hasegawa, M. Ishida, T. Nakajima, Y. Honda, O. Kitao, H. Nakai, 
 T. Vreven, K. Throssell, J. A. Montgomery, Jr., J. E. Peralta, 
 F. Ogliaro, M. J. Bearpark, J. J. Heyd, E. N. Brothers, K. N. Kudin, 
 V. N. Staroverov, T. A. Keith, R. Kobayashi, J. Normand, 
 K. Raghavachari, A. P. Rendell, J. C. Burant, S. S. Iyengar, 
 J. Tomasi, M. Cossi, J. M. Millam, M. Klene, C. Adamo, R. Cammi, 
 J. W. Ochterski, R. L. Martin, K. Morokuma, O. Farkas, 
 J. B. Foresman, and D. J. Fox, Gaussian, Inc., Wallingford CT, 2016.
 
 ******************************************
 Gaussian 16:  ES64L-G16RevA.03 25-Dec-2016
                16-Aug-2025 
 ******************************************
 %chk=ethyl_propiolate.chk
 %nprocshared=24
 Will use up to   24 processors via shared memory.
 %mem=12GB
 --------------------------
 # freq 6-311++g(d,p) m062x
 --------------------------
 1/10=4,30=1,38=1/1,3;
 2/12=2,17=6,18=5,40=1/2;
 3/5=4,6=6,7=1111,11=2,25=1,30=1,71=2,74=-55,140=1/1,2,3;
 4//1;
 5/5=2,38=5,98=1/2;
 8/6=4,10=90,11=11/1;
 11/6=1,8=1,9=11,15=111,16=1/1,2,10;
 10/6=1/2;
 6/7=2,8=2,9=2,10=2,28=1/1;
 7/8=1,10=1,25=1/1,2,3,16;
 1/10=4,30=1/3;
 99//99;
 -------------------
 Title Card Required
 -------------------
 Symbolic Z-matrix:
 Charge =  0 Multiplicity = 2
 O                     2.34355   1.67269  -0.33072 
 H                     1.5303    1.77426   0.196 
 C                    -3.31752   0.18925  -0.51626 
 H                    -4.33347   0.26177  -0.82759 
 C                    -2.17535   0.10724  -0.16523 
 C                    -0.79079   0.06082   0.27321 
 O                    -0.22921   0.98652   0.7986 
 O                    -0.24524  -1.12574   0.02714 
 C                     1.12203  -1.3189    0.44275 
 C                     2.09963  -0.82233  -0.59217 
 H                     1.20453  -2.39919   0.56481 
 H                     1.27391  -0.8362    1.40949 
 H                     3.11029  -1.17409  -0.38414 
 H                     1.79854  -1.07296  -1.60934 
 H                     2.21049   0.35007  -0.5651 
 

 GradGradGradGradGradGradGradGradGradGradGradGradGradGradGradGradGradGrad
 Berny optimization.
 Initialization pass.
 Trust Radius=3.00D-01 FncErr=1.00D-07 GrdErr=1.00D-07 EigMax=2.50D+02 EigMin=1.00D-04
 Number of steps in this run=      2 maximum allowed number of steps=      2.
 GradGradGradGradGradGradGradGradGradGradGradGradGradGradGradGradGradGrad

                          Input orientation:                          
 ---------------------------------------------------------------------
 Center     Atomic      Atomic             Coordinates (Angstroms)
 Number     Number       Type             X           Y           Z
 ---------------------------------------------------------------------
      1          8           0        2.343546    1.672688   -0.330724
      2          1           0        1.530296    1.774256    0.196004
      3          6           0       -3.317515    0.189250   -0.516257
      4          1           0       -4.333472    0.261774   -0.827585
      5          6           0       -2.175345    0.107239   -0.165234
      6          6           0       -0.790794    0.060816    0.273205
      7          8           0       -0.229206    0.986521    0.798603
      8          8           0       -0.245235   -1.125742    0.027144
      9          6           0        1.122033   -1.318899    0.442753
     10          6           0        2.099626   -0.822330   -0.592173
     11          1           0        1.204534   -2.399191    0.564809
     12          1           0        1.273905   -0.836203    1.409494
     13          1           0        3.110289   -1.174089   -0.384138
     14          1           0        1.798542   -1.072965   -1.609339
     15          1           0        2.210491    0.350070   -0.565096
 ---------------------------------------------------------------------
                    Distance matrix (angstroms):
                    1          2          3          4          5
     1  O    0.000000
     2  H    0.974235   0.000000
     3  C    5.855136   5.149838   0.000000
     4  H    6.842523   6.141589   1.065060   0.000000
     5  C    4.785227   4.079364   1.197704   2.262764   0.000000
     6  C    3.575884   2.886052   2.650295   3.715197   1.453054
     7  O    2.892275   2.019777   3.449949   4.473784   2.342984
     8  O    3.828977   3.404558   3.385763   4.401073   2.298386
     9  C    3.322643   3.129724   4.785791   5.820208   3.643655
    10  C    2.520509   2.772655   5.511304   6.528051   4.395652
    11  H    4.321982   4.202356   5.321434   6.299921   4.270683
    12  H    3.235278   2.890119   5.083425   6.136184   3.907323
    13  H    2.948709   3.394949   6.572124   7.593940   5.443128
    14  H    3.077417   3.381994   5.381640   6.324102   4.389772
    15  H    1.349797   1.752211   5.530560   6.549820   4.410716
                    6          7          8          9         10
     6  C    0.000000
     7  O    1.203476   0.000000
     8  O    1.328947   2.248791   0.000000
     9  C    2.364586   2.695819   1.442034   0.000000
    10  C    3.143780   3.260316   2.444174   1.507760   0.000000
    11  H    3.180881   3.684198   2.003144   1.090291   2.150881
    12  H    2.521662   2.440257   2.074249   1.091168   2.165336
    13  H    4.144338   4.149619   3.380981   2.158212   1.090162
    14  H    3.396188   3.761839   2.618757   2.174679   1.089998
    15  H    3.129557   2.866508   2.925638   2.232926   1.177941
                   11         12         13         14         15
    11  H    0.000000
    12  H    1.777987   0.000000
    13  H    2.456273   2.589129   0.000000
    14  H    2.615079   3.073215   1.797783   0.000000
    15  H    3.138004   2.486653   1.779169   1.812505   0.000000
 Stoichiometry    C5H7O3(2)
 Framework group  C1[X(C5H7O3)]
 Deg. of freedom    39
 Full point group                 C1      NOp   1
 Largest Abelian subgroup         C1      NOp   1
 Largest concise Abelian subgroup C1      NOp   1
                         Standard orientation:                         
 ---------------------------------------------------------------------
 Center     Atomic      Atomic             Coordinates (Angstroms)
 Number     Number       Type             X           Y           Z
 ---------------------------------------------------------------------
      1          8           0        2.287865    1.698150   -0.321499
      2          1           0        1.474583    1.799762    0.205172
      3          6           0       -3.372885    0.213463   -0.506542
      4          1           0       -4.388851    0.285650   -0.817919
      5          6           0       -2.230705    0.131831   -0.155464
      6          6           0       -0.846153    0.085872    0.283021
      7          8           0       -0.284767    1.011906    0.808055
      8          8           0       -0.300343   -1.100672    0.037451
      9          6           0        1.066957   -1.293377    0.453165
     10          6           0        2.044467   -0.797024   -0.581943
     11          1           0        1.149680   -2.373603    0.575659
     12          1           0        1.218710   -0.810258    1.419713
     13          1           0        3.055199   -1.148489   -0.373746
     14          1           0        1.743455   -1.048133   -1.599014
     15          1           0        2.155089    0.375410   -0.555339
 ---------------------------------------------------------------------
 Rotational constants (GHZ):           3.3355621           1.1874944           0.9738432
 Standard basis: 6-311++G(d,p) (5D, 7F)
 There are   233 symmetry adapted cartesian basis functions of A   symmetry.
 There are   225 symmetry adapted basis functions of A   symmetry.
   225 basis functions,   351 primitive gaussians,   233 cartesian basis functions
    31 alpha electrons       30 beta electrons
       nuclear repulsion energy       353.4199803850 Hartrees.
 NAtoms=   15 NActive=   15 NUniq=   15 SFac= 1.00D+00 NAtFMM=   60 NAOKFM=F Big=F
 Integral buffers will be    131072 words long.
 Raffenetti 2 integral format.
 Two-electron integral symmetry is turned on.
 One-electron integrals computed using PRISM.
 NBasis=   225 RedAO= T EigKep=  7.23D-06  NBF=   225
 NBsUse=   224 1.00D-06 EigRej=  7.37D-07 NBFU=   224
 ExpMin= 3.60D-02 ExpMax= 8.59D+03 ExpMxC= 1.30D+03 IAcc=3 IRadAn=         5 AccDes= 0.00D+00
 Harris functional with IExCor= 1009 and IRadAn=       5 diagonalized for initial guess.
 HarFok:  IExCor= 1009 AccDes= 0.00D+00 IRadAn=         5 IDoV= 1 UseB2=F ITyADJ=14
 ICtDFT=  3500011 ScaDFX=  1.000000  1.000000  1.000000  1.000000
 FoFCou: FMM=F IPFlag=           0 FMFlag=      100000 FMFlg1=           0
         NFxFlg=           0 DoJE=T BraDBF=F KetDBF=T FulRan=T
         wScrn=  0.000000 ICntrl=       500 IOpCl=  0 I1Cent=   200000004 NGrid=           0
         NMat0=    1 NMatS0=      1 NMatT0=    0 NMatD0=    1 NMtDS0=    0 NMtDT0=    0
 Petite list used in FoFCou.
 Initial guess <Sx>= 0.0000 <Sy>= 0.0000 <Sz>= 0.5000 <S**2>= 0.7500 S= 0.5000
 Requested convergence on RMS density matrix=1.00D-08 within 128 cycles.
 Requested convergence on MAX density matrix=1.00D-06.
 Requested convergence on             energy=1.00D-06.
 No special actions if energy rises.
 SCF Done:  E(UM062X) =  -420.201054241     A.U. after   20 cycles
            NFock= 20  Conv=0.42D-08     -V/T= 2.0032
 <Sx>= 0.0000 <Sy>= 0.0000 <Sz>= 0.5000 <S**2>= 0.7584 S= 0.5042
 <L.S>=  0.00000000000    
 Annihilation of the first spin contaminant:
 S**2 before annihilation     0.7584,   after     0.7500
 DoSCS=F DFT=T ScalE2(SS,OS)=  1.000000  1.000000
 Range of M.O.s used for correlation:     1   224
 NBasis=   225 NAE=    31 NBE=    30 NFC=     0 NFV=     0
 NROrb=    224 NOA=    31 NOB=    30 NVA=   193 NVB=   194

 **** Warning!!: The largest alpha MO coefficient is  0.10536690D+03


 **** Warning!!: The largest beta MO coefficient is  0.97065251D+02

 Symmetrizing basis deriv contribution to polar:
 IMax=3 JMax=2 DiffMx= 0.00D+00
 G2DrvN: will do    16 centers at a time, making    1 passes.
 Calling FoFCou, ICntrl=  3107 FMM=F I1Cent=   0 AccDes= 0.00D+00.
 End of G2Drv F.D. properties file   721 does not exist.
 End of G2Drv F.D. properties file   722 does not exist.
 End of G2Drv F.D. properties file   788 does not exist.
          IDoAtm=111111111111111
          Differentiating once with respect to electric field.
                with respect to dipole field.
          Differentiating once with respect to nuclear coordinates.
 Keep R1 and R2 ints in memory in canonical form, NReq=671901989.
          There are    48 degrees of freedom in the 1st order CPHF.  IDoFFX=6 NUNeed=     3.
     45 vectors produced by pass  0 Test12= 2.46D-14 2.08D-09 XBig12= 9.61D+01 4.13D+00.
 AX will form    45 AO Fock derivatives at one time.
     45 vectors produced by pass  1 Test12= 2.46D-14 2.08D-09 XBig12= 2.07D+01 8.39D-01.
     45 vectors produced by pass  2 Test12= 2.46D-14 2.08D-09 XBig12= 7.81D-01 1.61D-01.
     45 vectors produced by pass  3 Test12= 2.46D-14 2.08D-09 XBig12= 1.08D-02 1.49D-02.
     45 vectors produced by pass  4 Test12= 2.46D-14 2.08D-09 XBig12= 9.06D-05 1.03D-03.
     45 vectors produced by pass  5 Test12= 2.46D-14 2.08D-09 XBig12= 6.32D-07 7.60D-05.
     45 vectors produced by pass  6 Test12= 2.46D-14 2.08D-09 XBig12= 3.92D-09 5.93D-06.
     18 vectors produced by pass  7 Test12= 2.46D-14 2.08D-09 XBig12= 2.64D-11 4.90D-07.
      3 vectors produced by pass  8 Test12= 2.46D-14 2.08D-09 XBig12= 1.73D-13 4.12D-08.
      2 vectors produced by pass  9 Test12= 2.46D-14 2.08D-09 XBig12= 1.43D-15 5.67D-09.
 InvSVY:  IOpt=1 It=  1 EMax= 1.24D-14
 Solved reduced A of dimension   338 with    48 vectors.
 Isotropic polarizability for W=    0.000000       74.63 Bohr**3.
 End of Minotr F.D. properties file   721 does not exist.
 End of Minotr F.D. properties file   722 does not exist.
 End of Minotr F.D. properties file   788 does not exist.

 **********************************************************************

            Population analysis using the SCF density.

 **********************************************************************

 Orbital symmetries:
 Alpha Orbitals:
       Occupied  (A) (A) (A) (A) (A) (A) (A) (A) (A) (A) (A) (A)
                 (A) (A) (A) (A) (A) (A) (A) (A) (A) (A) (A) (A)
                 (A) (A) (A) (A) (A) (A) (A)
       Virtual   (A) (A) (A) (A) (A) (A) (A) (A) (A) (A) (A) (A)
                 (A) (A) (A) (A) (A) (A) (A) (A) (A) (A) (A) (A)
                 (A) (A) (A) (A) (A) (A) (A) (A) (A) (A) (A) (A)
                 (A) (A) (A) (A) (A) (A) (A) (A) (A) (A) (A) (A)
                 (A) (A) (A) (A) (A) (A) (A) (A) (A) (A) (A) (A)
                 (A) (A) (A) (A) (A) (A) (A) (A) (A) (A) (A) (A)
                 (A) (A) (A) (A) (A) (A) (A) (A) (A) (A) (A) (A)
                 (A) (A) (A) (A) (A) (A) (A) (A) (A) (A) (A) (A)
                 (A) (A) (A) (A) (A) (A) (A) (A) (A) (A) (A) (A)
                 (A) (A) (A) (A) (A) (A) (A) (A) (A) (A) (A) (A)
                 (A) (A) (A) (A) (A) (A) (A) (A) (A) (A) (A) (A)
                 (A) (A) (A) (A) (A) (A) (A) (A) (A) (A) (A) (A)
                 (A) (A) (A) (A) (A) (A) (A) (A) (A) (A) (A) (A)
                 (A) (A) (A) (A) (A) (A) (A) (A) (A) (A) (A) (A)
                 (A) (A) (A) (A) (A) (A) (A) (A) (A) (A) (A) (A)
                 (A) (A) (A) (A) (A) (A) (A) (A) (A) (A) (A) (A)
                 (A)
 Beta  Orbitals:
       Occupied  (A) (A) (A) (A) (A) (A) (A) (A) (A) (A) (A) (A)
                 (A) (A) (A) (A) (A) (A) (A) (A) (A) (A) (A) (A)
                 (A) (A) (A) (A) (A) (A)
       Virtual   (A) (A) (A) (A) (A) (A) (A) (A) (A) (A) (A) (A)
                 (A) (A) (A) (A) (A) (A) (A) (A) (A) (A) (A) (A)
                 (A) (A) (A) (A) (A) (A) (A) (A) (A) (A) (A) (A)
                 (A) (A) (A) (A) (A) (A) (A) (A) (A) (A) (A) (A)
                 (A) (A) (A) (A) (A) (A) (A) (A) (A) (A) (A) (A)
                 (A) (A) (A) (A) (A) (A) (A) (A) (A) (A) (A) (A)
                 (A) (A) (A) (A) (A) (A) (A) (A) (A) (A) (A) (A)
                 (A) (A) (A) (A) (A) (A) (A) (A) (A) (A) (A) (A)
                 (A) (A) (A) (A) (A) (A) (A) (A) (A) (A) (A) (A)
                 (A) (A) (A) (A) (A) (A) (A) (A) (A) (A) (A) (A)
                 (A) (A) (A) (A) (A) (A) (A) (A) (A) (A) (A) (A)
                 (A) (A) (A) (A) (A) (A) (A) (A) (A) (A) (A) (A)
                 (A) (A) (A) (A) (A) (A) (A) (A) (A) (A) (A) (A)
                 (A) (A) (A) (A) (A) (A) (A) (A) (A) (A) (A) (A)
                 (A) (A) (A) (A) (A) (A) (A) (A) (A) (A) (A) (A)
                 (A) (A) (A) (A) (A) (A) (A) (A) (A) (A) (A) (A)
                 (A) (A)
 The electronic state is 2-A.
 Alpha  occ. eigenvalues --  -19.69946 -19.64860 -19.64465 -10.72384 -10.62228
 Alpha  occ. eigenvalues --  -10.58030 -10.57553 -10.56086  -1.27358  -1.18030
 Alpha  occ. eigenvalues --   -1.11453  -0.91827  -0.88260  -0.79655  -0.72015
 Alpha  occ. eigenvalues --   -0.66141  -0.62138  -0.60640  -0.59280  -0.56941
 Alpha  occ. eigenvalues --   -0.53777  -0.51169  -0.49542  -0.48655  -0.45310
 Alpha  occ. eigenvalues --   -0.41154  -0.40597  -0.40100  -0.38218  -0.37387
 Alpha  occ. eigenvalues --   -0.35336
 Alpha virt. eigenvalues --   -0.02905  -0.00482   0.00399   0.01635   0.02323
 Alpha virt. eigenvalues --    0.02907   0.03394   0.04975   0.05574   0.06435
 Alpha virt. eigenvalues --    0.06684   0.07344   0.07796   0.09271   0.10050
 Alpha virt. eigenvalues --    0.11271   0.11770   0.12398   0.12662   0.13004
 Alpha virt. eigenvalues --    0.14149   0.14502   0.14831   0.16174   0.16593
 Alpha virt. eigenvalues --    0.17487   0.17917   0.18861   0.19603   0.21619
 Alpha virt. eigenvalues --    0.22659   0.22839   0.23248   0.24714   0.26470
 Alpha virt. eigenvalues --    0.27131   0.27584   0.28510   0.29430   0.30670
 Alpha virt. eigenvalues --    0.31222   0.32081   0.32394   0.32897   0.33987
 Alpha virt. eigenvalues --    0.34308   0.36949   0.37894   0.40082   0.41132
 Alpha virt. eigenvalues --    0.42329   0.43696   0.47778   0.48429   0.49557
 Alpha virt. eigenvalues --    0.51227   0.54292   0.56674   0.56840   0.59567
 Alpha virt. eigenvalues --    0.61158   0.62432   0.65411   0.66218   0.67621
 Alpha virt. eigenvalues --    0.69258   0.70782   0.71703   0.72887   0.74276
 Alpha virt. eigenvalues --    0.75063   0.75574   0.77728   0.79459   0.84138
 Alpha virt. eigenvalues --    0.87652   0.91581   0.97062   1.04105   1.04486
 Alpha virt. eigenvalues --    1.06861   1.08510   1.10194   1.11679   1.15009
 Alpha virt. eigenvalues --    1.15037   1.16299   1.17798   1.19450   1.20958
 Alpha virt. eigenvalues --    1.21623   1.22997   1.27751   1.31107   1.33430
 Alpha virt. eigenvalues --    1.35032   1.36234   1.37980   1.42819   1.43267
 Alpha virt. eigenvalues --    1.46478   1.49697   1.53209   1.55009   1.58874
 Alpha virt. eigenvalues --    1.60098   1.60950   1.62451   1.63049   1.65908
 Alpha virt. eigenvalues --    1.67384   1.67694   1.71276   1.71891   1.78040
 Alpha virt. eigenvalues --    1.80467   1.82879   1.83817   1.84208   1.90629
 Alpha virt. eigenvalues --    1.95702   1.99934   2.01560   2.05219   2.09063
 Alpha virt. eigenvalues --    2.12376   2.16628   2.21796   2.26051   2.31068
 Alpha virt. eigenvalues --    2.38493   2.41880   2.48119   2.51357   2.54067
 Alpha virt. eigenvalues --    2.59373   2.59713   2.61218   2.63355   2.65255
 Alpha virt. eigenvalues --    2.67181   2.69142   2.71519   2.74476   2.80541
 Alpha virt. eigenvalues --    2.81035   2.84493   2.89442   2.92526   2.96303
 Alpha virt. eigenvalues --    2.97711   3.00738   3.03525   3.05584   3.09912
 Alpha virt. eigenvalues --    3.14568   3.19451   3.19709   3.22213   3.24828
 Alpha virt. eigenvalues --    3.29907   3.32702   3.36097   3.42182   3.45909
 Alpha virt. eigenvalues --    3.55656   3.64132   3.71269   3.77020   3.84121
 Alpha virt. eigenvalues --    3.92024   3.96869   4.05210   4.12160   4.17019
 Alpha virt. eigenvalues --    4.29123   5.08793   5.12593   5.17509   5.31570
 Alpha virt. eigenvalues --    5.37503   5.44227   5.61123   5.73128   5.95464
 Alpha virt. eigenvalues --   23.61511  23.92231  23.92798  24.02115  25.17032
 Alpha virt. eigenvalues --   49.98014  49.98793  50.09474
  Beta  occ. eigenvalues --  -19.69946 -19.64863 -19.63146 -10.72384 -10.62242
  Beta  occ. eigenvalues --  -10.58030 -10.57553 -10.55735  -1.27355  -1.18025
  Beta  occ. eigenvalues --   -1.06121  -0.91571  -0.87883  -0.78924  -0.71539
  Beta  occ. eigenvalues --   -0.66039  -0.62097  -0.60430  -0.58718  -0.54516
  Beta  occ. eigenvalues --   -0.52040  -0.49833  -0.48381  -0.45987  -0.43129
  Beta  occ. eigenvalues --   -0.40967  -0.39887  -0.38223  -0.37365  -0.37122
  Beta virt. eigenvalues --   -0.09747  -0.02882  -0.00423   0.00422   0.01747
  Beta virt. eigenvalues --    0.02516   0.03040   0.03405   0.05347   0.05659
  Beta virt. eigenvalues --    0.06526   0.06959   0.07472   0.07843   0.09489
  Beta virt. eigenvalues --    0.10231   0.11303   0.11909   0.12361   0.12613
  Beta virt. eigenvalues --    0.13144   0.14291   0.14618   0.15100   0.16275
  Beta virt. eigenvalues --    0.16740   0.17721   0.17999   0.19085   0.19804
  Beta virt. eigenvalues --    0.21765   0.22815   0.22978   0.23683   0.24654
  Beta virt. eigenvalues --    0.26214   0.27194   0.27756   0.28845   0.29493
  Beta virt. eigenvalues --    0.30704   0.31411   0.32035   0.32324   0.33085
  Beta virt. eigenvalues --    0.34130   0.34433   0.37165   0.38774   0.40560
  Beta virt. eigenvalues --    0.41775   0.42636   0.43826   0.47969   0.48434
  Beta virt. eigenvalues --    0.50045   0.51306   0.54334   0.56715   0.56913
  Beta virt. eigenvalues --    0.59590   0.61266   0.62747   0.65689   0.66687
  Beta virt. eigenvalues --    0.67799   0.69608   0.70876   0.71970   0.73142
  Beta virt. eigenvalues --    0.74321   0.75400   0.75710   0.78019   0.79566
  Beta virt. eigenvalues --    0.84153   0.87703   0.91615   0.97469   1.04237
  Beta virt. eigenvalues --    1.04916   1.07462   1.08862   1.10219   1.12726
  Beta virt. eigenvalues --    1.15119   1.15987   1.16517   1.18395   1.20335
  Beta virt. eigenvalues --    1.21131   1.22147   1.23874   1.27801   1.31271
  Beta virt. eigenvalues --    1.33688   1.35101   1.36342   1.38006   1.43023
  Beta virt. eigenvalues --    1.43287   1.46682   1.50627   1.53856   1.56340
  Beta virt. eigenvalues --    1.59028   1.60093   1.61362   1.62563   1.63171
  Beta virt. eigenvalues --    1.65985   1.67459   1.67852   1.71701   1.71994
  Beta virt. eigenvalues --    1.78687   1.80550   1.82997   1.83838   1.84302
  Beta virt. eigenvalues --    1.90653   1.95785   2.00006   2.01782   2.05239
  Beta virt. eigenvalues --    2.09143   2.13079   2.16849   2.22429   2.26722
  Beta virt. eigenvalues --    2.31325   2.39809   2.41909   2.48235   2.51673
  Beta virt. eigenvalues --    2.54205   2.59201   2.59726   2.61548   2.63504
  Beta virt. eigenvalues --    2.65082   2.65867   2.67878   2.71757   2.74146
  Beta virt. eigenvalues --    2.80583   2.81031   2.84422   2.88473   2.92715
  Beta virt. eigenvalues --    2.97709   2.99954   3.01920   3.03589   3.05591
  Beta virt. eigenvalues --    3.09948   3.14553   3.19854   3.21100   3.23799
  Beta virt. eigenvalues --    3.27261   3.30005   3.32920   3.36176   3.42344
  Beta virt. eigenvalues --    3.48248   3.55724   3.64176   3.71375   3.78563
  Beta virt. eigenvalues --    3.84640   3.92357   3.98704   4.06318   4.12208
  Beta virt. eigenvalues --    4.17022   4.29969   5.10575   5.13035   5.17532
  Beta virt. eigenvalues --    5.31634   5.43280   5.44263   5.63658   5.73380
  Beta virt. eigenvalues --    5.95497  23.61511  23.92244  23.92821  24.02421
  Beta virt. eigenvalues --   25.17032  49.98013  49.98194  50.09470
          Condensed to atoms (all electrons):
               1          2          3          4          5          6
     1  O    8.062176   0.277807   0.004594   0.000169  -0.015965   0.012588
     2  H    0.277807   0.450826  -0.005452  -0.000272   0.011169  -0.031172
     3  C    0.004594  -0.005452   6.385356   0.497119  -1.438434   1.367080
     4  H    0.000169  -0.000272   0.497119   0.438205  -0.162188   0.055471
     5  C   -0.015965   0.011169  -1.438434  -0.162188   9.649220  -2.846413
     6  C    0.012588  -0.031172   1.367080   0.055471  -2.846413   7.763486
     7  O   -0.003310   0.016152  -0.083928  -0.002265   0.058675   0.325355
     8  O   -0.002544   0.000248  -0.100365  -0.005479  -0.180846   0.159521
     9  C   -0.005212   0.046775   0.017949  -0.002421  -0.285542  -0.148438
    10  C   -0.025223   0.000928  -0.010857  -0.000413  -0.003069  -0.009177
    11  H    0.000815   0.003101  -0.005315  -0.000395   0.009489  -0.032614
    12  H   -0.004530  -0.007588   0.003097   0.000236  -0.001466   0.023564
    13  H   -0.008354   0.003350   0.000558   0.000017  -0.005316   0.003493
    14  H    0.004863  -0.001171  -0.004093  -0.000187   0.021932  -0.003905
    15  H    0.036164  -0.030928   0.008957   0.000345  -0.030000   0.020499
               7          8          9         10         11         12
     1  O   -0.003310  -0.002544  -0.005212  -0.025223   0.000815  -0.004530
     2  H    0.016152   0.000248   0.046775   0.000928   0.003101  -0.007588
     3  C   -0.083928  -0.100365   0.017949  -0.010857  -0.005315   0.003097
     4  H   -0.002265  -0.005479  -0.002421  -0.000413  -0.000395   0.000236
     5  C    0.058675  -0.180846  -0.285542  -0.003069   0.009489  -0.001466
     6  C    0.325355   0.159521  -0.148438  -0.009177  -0.032614   0.023564
     7  O    8.092218  -0.153450   0.113549  -0.081347   0.005932  -0.023276
     8  O   -0.153450   8.218799   0.194025  -0.052884  -0.094373  -0.002031
     9  C    0.113549   0.194025   5.916180  -0.149634   0.492180   0.333065
    10  C   -0.081347  -0.052884  -0.149634   5.789584  -0.085319  -0.009964
    11  H    0.005932  -0.094373   0.492180  -0.085319   0.563339  -0.054216
    12  H   -0.023276  -0.002031   0.333065  -0.009964  -0.054216   0.524423
    13  H    0.000545   0.012348  -0.000891   0.366003   0.000707  -0.006582
    14  H   -0.002691  -0.000430  -0.065247   0.408509  -0.014502   0.011090
    15  H    0.011206  -0.019553  -0.036083   0.316697   0.012340  -0.017845
              13         14         15
     1  O   -0.008354   0.004863   0.036164
     2  H    0.003350  -0.001171  -0.030928
     3  C    0.000558  -0.004093   0.008957
     4  H    0.000017  -0.000187   0.000345
     5  C   -0.005316   0.021932  -0.030000
     6  C    0.003493  -0.003905   0.020499
     7  O    0.000545  -0.002691   0.011206
     8  O    0.012348  -0.000430  -0.019553
     9  C   -0.000891  -0.065247  -0.036083
    10  C    0.366003   0.408509   0.316697
    11  H    0.000707  -0.014502   0.012340
    12  H   -0.006582   0.011090  -0.017845
    13  H    0.513992  -0.035339  -0.027031
    14  H   -0.035339   0.540046  -0.058768
    15  H   -0.027031  -0.058768   0.544194
          Atomic-Atomic Spin Densities.
               1          2          3          4          5          6
     1  O    0.811657  -0.006450  -0.000460  -0.000027  -0.001333  -0.015186
     2  H   -0.006450  -0.019063   0.000744   0.000021  -0.001240   0.005642
     3  C   -0.000460   0.000744  -0.028333  -0.002912   0.048262  -0.016298
     4  H   -0.000027   0.000021  -0.002912  -0.001330   0.004453  -0.000543
     5  C   -0.001333  -0.001240   0.048262   0.004453  -0.122782   0.048580
     6  C   -0.015186   0.005642  -0.016298  -0.000543   0.048580  -0.031452
     7  O    0.006779  -0.000764  -0.001313  -0.000048   0.005150  -0.000273
     8  O    0.002105  -0.001569   0.001835   0.000045  -0.008585  -0.004912
     9  C    0.042993  -0.010442  -0.002542   0.000353   0.032902  -0.001113
    10  C   -0.118468   0.015423  -0.000258  -0.000063  -0.006794  -0.004507
    11  H   -0.000256   0.000566   0.000052   0.000049   0.003175   0.010247
    12  H   -0.000504  -0.000736   0.000589  -0.000020  -0.006039  -0.006201
    13  H    0.008156  -0.001997  -0.000066   0.000004   0.000420  -0.002683
    14  H    0.002945  -0.001400   0.000288  -0.000020  -0.002678  -0.003300
    15  H   -0.019487   0.015598  -0.000704   0.000020   0.012680   0.028962
               7          8          9         10         11         12
     1  O    0.006779   0.002105   0.042993  -0.118468  -0.000256  -0.000504
     2  H   -0.000764  -0.001569  -0.010442   0.015423   0.000566  -0.000736
     3  C   -0.001313   0.001835  -0.002542  -0.000258   0.000052   0.000589
     4  H   -0.000048   0.000045   0.000353  -0.000063   0.000049  -0.000020
     5  C    0.005150  -0.008585   0.032902  -0.006794   0.003175  -0.006039
     6  C   -0.000273  -0.004912  -0.001113  -0.004507   0.010247  -0.006201
     7  O   -0.001724   0.001598  -0.003192  -0.001677  -0.000850   0.001328
     8  O    0.001598   0.001877   0.014791  -0.007600  -0.002462   0.000142
     9  C   -0.003192   0.014791  -0.041677  -0.025324  -0.012782   0.019437
    10  C   -0.001677  -0.007600  -0.025324   0.457198   0.005610  -0.012556
    11  H   -0.000850  -0.002462  -0.012782   0.005610   0.020228   0.000712
    12  H    0.001328   0.000142   0.019437  -0.012556   0.000712   0.000506
    13  H    0.000295   0.000559   0.010881  -0.017002  -0.002182   0.000733
    14  H    0.000825   0.000299   0.015337  -0.029928   0.000280  -0.001335
    15  H   -0.009624   0.001883  -0.072156   0.106285  -0.005542   0.009844
              13         14         15
     1  O    0.008156   0.002945  -0.019487
     2  H   -0.001997  -0.001400   0.015598
     3  C   -0.000066   0.000288  -0.000704
     4  H    0.000004  -0.000020   0.000020
     5  C    0.000420  -0.002678   0.012680
     6  C   -0.002683  -0.003300   0.028962
     7  O    0.000295   0.000825  -0.009624
     8  O    0.000559   0.000299   0.001883
     9  C    0.010881   0.015337  -0.072156
    10  C   -0.017002  -0.029928   0.106285
    11  H   -0.002182   0.000280  -0.005542
    12  H    0.000733  -0.001335   0.009844
    13  H   -0.007718   0.005094  -0.005418
    14  H    0.005094  -0.004869   0.014384
    15  H   -0.005418   0.014384  -0.127594
 Mulliken charges and spin densities:
               1          2
     1  O   -0.334039   0.712464
     2  H    0.266225  -0.005666
     3  C   -0.636267  -0.001114
     4  H    0.182059  -0.000017
     5  C    1.218754   0.006172
     6  C   -0.659338   0.006964
     7  O   -0.273366  -0.003490
     8  O    0.027012   0.000007
     9  C   -0.420257  -0.032535
    10  C   -0.453834   0.360340
    11  H    0.198829   0.016844
    12  H    0.232024   0.005900
    13  H    0.182501  -0.010924
    14  H    0.199892  -0.004077
    15  H    0.269804  -0.050868
 Sum of Mulliken charges =  -0.00000   1.00000
 Mulliken charges and spin densities with hydrogens summed into heavy atoms:
               1          2
     1  O   -0.067813   0.706799
     3  C   -0.454208  -0.001131
     5  C    1.218754   0.006172
     6  C   -0.659338   0.006964
     7  O   -0.273366  -0.003490
     8  O    0.027012   0.000007
     9  C    0.010596  -0.009791
    10  C    0.198363   0.294471
 APT charges:
               1
     1  O   -0.214342
     2  H    0.365921
     3  C   -0.170365
     4  H    0.237976
     5  C   -0.314323
     6  C    1.454600
     7  O   -0.801953
     8  O   -0.906242
     9  C    0.435775
    10  C    0.278736
    11  H   -0.001608
    12  H    0.002640
    13  H   -0.017727
    14  H   -0.021876
    15  H   -0.327213
 Sum of APT charges =   0.00000
 APT charges with hydrogens summed into heavy atoms:
               1
     1  O    0.151579
     3  C    0.067611
     5  C   -0.314323
     6  C    1.454600
     7  O   -0.801953
     8  O   -0.906242
     9  C    0.436807
    10  C   -0.088080
 Electronic spatial extent (au):  <R**2>=           1188.2841
 Charge=             -0.0000 electrons
 Dipole moment (field-independent basis, Debye):
    X=             -1.9568    Y=             -3.0131    Z=             -0.0249  Tot=              3.5928
 Quadrupole moment (field-independent basis, Debye-Ang):
   XX=            -40.3852   YY=            -50.8836   ZZ=            -47.9270
   XY=             -8.3207   XZ=              4.1360   YZ=             -0.6986
 Traceless Quadrupole moment (field-independent basis, Debye-Ang):
   XX=              6.0134   YY=             -4.4850   ZZ=             -1.5284
   XY=             -8.3207   XZ=              4.1360   YZ=             -0.6986
 Octapole moment (field-independent basis, Debye-Ang**2):
  XXX=            -61.5452  YYY=             -3.1886  ZZZ=              2.7639  XYY=              4.7493
  XXY=            -13.4744  XXZ=            -10.5077  XZZ=              3.4848  YZZ=             -2.6218
  YYZ=              4.7210  XYZ=              5.1656
 Hexadecapole moment (field-independent basis, Debye-Ang**3):
 XXXX=           -841.9699 YYYY=           -333.1365 ZZZZ=           -125.4172 XXXY=            -64.7326
 XXXZ=             70.0092 YYYX=             -3.8006 YYYZ=              2.8254 ZZZX=             -2.4192
 ZZZY=              1.7094 XXYY=           -271.3200 XXZZ=           -201.8258 YYZZ=            -82.6440
 XXYZ=              1.2432 YYXZ=              8.0217 ZZXY=             -0.3266
 N-N= 3.534199803850D+02 E-N=-1.691100726079D+03  KE= 4.188428755362D+02
  Exact polarizability:  93.272  -0.639  78.502   7.698   2.515  52.125
 Approx polarizability: 100.165   1.123  87.406  12.297   6.092  63.082
                          Isotropic Fermi Contact Couplings
        Atom                 a.u.       MegaHertz       Gauss      10(-4) cm-1
     1  O(17)              0.12398     -75.15631     -26.81764     -25.06945
     2  H(1)              -0.01225     -54.73720     -19.53159     -18.25836
     3  C(13)             -0.00005      -0.05075      -0.01811      -0.01693
     4  H(1)               0.00000       0.01554       0.00555       0.00518
     5  C(13)             -0.00006      -0.06844      -0.02442      -0.02283
     6  C(13)             -0.00007      -0.08166      -0.02914      -0.02724
     7  O(17)             -0.00496       3.00472       1.07216       1.00227
     8  O(17)              0.00187      -1.13300      -0.40428      -0.37793
     9  C(13)             -0.01059     -11.91027      -4.24988      -3.97284
    10  C(13)              0.14107     158.59423      56.59037      52.90134
    11  H(1)               0.00822      36.76291      13.11792      12.26279
    12  H(1)               0.00293      13.07603       4.66585       4.36169
    13  H(1)              -0.00333     -14.89429      -5.31465      -4.96820
    14  H(1)              -0.00114      -5.08124      -1.81311      -1.69492
    15  H(1)              -0.01927     -86.11941     -30.72955     -28.72634
 --------------------------------------------------------
       Center         ----  Spin Dipole Couplings  ----
                      3XX-RR        3YY-RR        3ZZ-RR
 --------------------------------------------------------
     1   Atom       -1.343976      2.759415     -1.415439
     2   Atom        0.065864     -0.034177     -0.031687
     3   Atom        0.001455     -0.000535     -0.000920
     4   Atom        0.000868     -0.000399     -0.000470
     5   Atom        0.002338     -0.001024     -0.001313
     6   Atom        0.005704     -0.001578     -0.004126
     7   Atom        0.001777     -0.002290      0.000513
     8   Atom        0.004519     -0.000974     -0.003546
     9   Atom       -0.001045      0.008360     -0.007315
    10   Atom       -0.215730      0.429970     -0.214240
    11   Atom       -0.002454      0.004716     -0.002263
    12   Atom       -0.004226     -0.001150      0.005375
    13   Atom        0.020386      0.005140     -0.025526
    14   Atom       -0.022969      0.000144      0.022826
    15   Atom       -0.111294      0.219580     -0.108286
 --------------------------------------------------------
                        XY            XZ            YZ
 --------------------------------------------------------
     1   Atom        0.721603      0.082202      0.416610
     2   Atom       -0.012555     -0.107193      0.021679
     3   Atom        0.000212      0.000220      0.000123
     4   Atom        0.000115      0.000082      0.000014
     5   Atom        0.000554     -0.000296     -0.000029
     6   Atom        0.001257     -0.001900      0.000064
     7   Atom       -0.000688     -0.004551     -0.001659
     8   Atom        0.001589      0.000161     -0.000696
     9   Atom        0.013106     -0.006872     -0.007345
    10   Atom        0.021090      0.002431      0.049930
    11   Atom        0.002128     -0.002866     -0.003864
    12   Atom        0.002304     -0.005482     -0.004212
    13   Atom       -0.016376      0.010589     -0.001304
    14   Atom        0.003746      0.015542      0.012013
    15   Atom        0.031609      0.002964      0.039324
 --------------------------------------------------------


 ---------------------------------------------------------------------------------
              Anisotropic Spin Dipole Couplings in Principal Axis System
 ---------------------------------------------------------------------------------

       Atom             a.u.   MegaHertz   Gauss  10(-4) cm-1        Axes

              Baa    -1.4741   106.663    38.060    35.579  0.8409 -0.0908 -0.5335
     1 O(17)  Bbb    -1.4501   104.926    37.440    34.999  0.5146 -0.1714  0.8402
              Bcc     2.9241  -211.589   -75.500   -70.578  0.1677  0.9810  0.0974
 
              Baa    -0.1026   -54.769   -19.543   -18.269  0.5199 -0.1697  0.8372
     2 H(1)   Bbb    -0.0351   -18.731    -6.684    -6.248  0.2000  0.9770  0.0739
              Bcc     0.1378    73.500    26.227    24.517  0.8305 -0.1290 -0.5419
 
              Baa    -0.0010    -0.130    -0.046    -0.043 -0.0667 -0.2430  0.9677
     3 C(13)  Bbb    -0.0005    -0.072    -0.026    -0.024 -0.1288  0.9639  0.2331
              Bcc     0.0015     0.201     0.072     0.067  0.9894  0.1091  0.0956
 
              Baa    -0.0005    -0.254    -0.091    -0.085 -0.0512 -0.1098  0.9926
     4 H(1)   Bbb    -0.0004    -0.218    -0.078    -0.073 -0.0958  0.9899  0.1045
              Bcc     0.0009     0.471     0.168     0.157  0.9941  0.0897  0.0612
 
              Baa    -0.0013    -0.180    -0.064    -0.060  0.0900 -0.0673  0.9937
     5 C(13)  Bbb    -0.0011    -0.149    -0.053    -0.050 -0.1513  0.9852  0.0804
              Bcc     0.0025     0.329     0.117     0.110  0.9844  0.1576 -0.0785
 
              Baa    -0.0045    -0.605    -0.216    -0.202  0.1942 -0.1045  0.9754
     6 C(13)  Bbb    -0.0017    -0.233    -0.083    -0.078 -0.1324  0.9824  0.1317
              Bcc     0.0063     0.839     0.299     0.280  0.9720  0.1547 -0.1770
 
              Baa    -0.0047     0.339     0.121     0.113  0.5079  0.5852  0.6321
     7 O(17)  Bbb    -0.0011     0.080     0.028     0.027 -0.4355  0.8076 -0.3977
              Bcc     0.0058    -0.418    -0.149    -0.140  0.7432  0.0733 -0.6651
 
              Baa    -0.0038     0.272     0.097     0.091 -0.0724  0.2802  0.9572
     8 O(17)  Bbb    -0.0012     0.086     0.031     0.029 -0.2493  0.9242 -0.2894
              Bcc     0.0049    -0.358    -0.128    -0.119  0.9657  0.2596 -0.0029
 
              Baa    -0.0119    -1.595    -0.569    -0.532  0.6599 -0.1609  0.7339
     9 C(13)  Bbb    -0.0092    -1.235    -0.441    -0.412 -0.5066  0.6261  0.5927
              Bcc     0.0211     2.829     1.010     0.944  0.5549  0.7630 -0.3316
 
              Baa    -0.2184   -29.309   -10.458    -9.776 -0.3744 -0.0591  0.9254
    10 C(13)  Bbb    -0.2161   -28.998   -10.347    -9.673  0.9267 -0.0589  0.3712
              Bcc     0.4345    58.307    20.805    19.449  0.0326  0.9965  0.0768
 
              Baa    -0.0054    -2.889    -1.031    -0.964  0.6245  0.1604  0.7644
    11 H(1)   Bbb    -0.0020    -1.079    -0.385    -0.360  0.7181 -0.5027 -0.4812
              Bcc     0.0074     3.968     1.416     1.324  0.3071  0.8495 -0.4291
 
              Baa    -0.0067    -3.598    -1.284    -1.200  0.9187 -0.0886  0.3848
    12 H(1)   Bbb    -0.0032    -1.701    -0.607    -0.567 -0.0790  0.9136  0.3988
              Bcc     0.0099     5.299     1.891     1.768 -0.3869 -0.3968  0.8324
 
              Baa    -0.0280   -14.955    -5.336    -4.989 -0.2387 -0.0798  0.9678
    13 H(1)   Bbb    -0.0044    -2.354    -0.840    -0.785  0.4834  0.8546  0.1896
              Bcc     0.0324    17.309     6.176     5.774  0.8423 -0.5131  0.1654
 
              Baa    -0.0277   -14.804    -5.282    -4.938  0.9560 -0.0021 -0.2933
    14 H(1)   Bbb    -0.0048    -2.535    -0.904    -0.846 -0.1045  0.9320 -0.3471
              Bcc     0.0325    17.339     6.187     5.784  0.2741  0.3625  0.8908
 
              Baa    -0.1146   -61.155   -21.822   -20.399  0.9062 -0.1329  0.4014
    15 H(1)   Bbb    -0.1126   -60.072   -21.435   -20.038 -0.4124 -0.0683  0.9084
              Bcc     0.2272   121.227    43.257    40.437  0.0934  0.9888  0.1167
 

 ---------------------------------------------------------------------------------

 Calling FoFJK, ICntrl=    100127 FMM=F ISym2X=0 I1Cent= 0 IOpClX= 1 NMat=1 NMatS=1 NMatT=0.
 Full mass-weighted force constant matrix:
 Low frequencies --- -995.0080  -37.4188  -19.2363   -0.0003    0.0004    0.0006
 Low frequencies ---    4.8179   23.8857   88.2087
 ******    2 imaginary frequencies (negative Signs) ****** 
 Diagonal vibrational polarizability:
     1262.2373960      64.3701466     348.4462751
 Harmonic frequencies (cm**-1), IR intensities (KM/Mole), Raman scattering
 activities (A**4/AMU), depolarization ratios for plane and unpolarized
 incident light, reduced masses (AMU), force constants (mDyne/A),
 and normal coordinates:
                      1                      2                      3
                      A                      A                      A
 Frequencies --   -995.0079                -5.8318                87.9644
 Red. masses --      1.3300                 7.8561                 3.7664
 Frc consts  --      0.7758                 0.0002                 0.0172
 IR Inten    --    873.7393                 1.9751                 3.5808
  Atom  AN      X      Y      Z        X      Y      Z        X      Y      Z
     1   8    -0.01  -0.14  -0.03    -0.33   0.07  -0.31    -0.02   0.00   0.01
     2   1     0.04   0.01  -0.02    -0.18   0.00  -0.07     0.01   0.01   0.04
     3   6    -0.00  -0.00  -0.00     0.12   0.19  -0.14     0.12   0.03  -0.23
     4   1    -0.00   0.00   0.00     0.16   0.28  -0.22     0.18   0.06  -0.41
     5   6    -0.00  -0.00  -0.00     0.09   0.09  -0.04     0.05  -0.00  -0.01
     6   6    -0.00   0.01   0.00     0.04  -0.03   0.09     0.01  -0.03   0.12
     7   8    -0.00  -0.00   0.00     0.00  -0.15   0.33     0.02  -0.01   0.07
     8   8     0.01  -0.01  -0.00     0.05   0.01  -0.09    -0.02  -0.07   0.23
     9   6    -0.00   0.03  -0.01    -0.00  -0.09   0.02     0.05   0.02   0.01
    10   6    -0.00   0.04   0.02     0.11  -0.05   0.15    -0.18   0.05  -0.20
    11   1     0.05   0.01  -0.03    -0.05  -0.11  -0.06     0.14   0.03   0.03
    12   1     0.01  -0.00   0.01    -0.07  -0.18   0.07     0.20   0.07  -0.04
    13   1     0.05   0.23   0.01     0.11   0.07   0.33    -0.13   0.04  -0.46
    14   1    -0.01   0.33  -0.04     0.29  -0.14   0.12    -0.43   0.10  -0.14
    15   1     0.13   0.85   0.26    -0.04  -0.03   0.07    -0.16   0.05  -0.17
                      4                      5                      6
                      A                      A                      A
 Frequencies --    106.2347               157.6882               188.1802
 Red. masses --      4.6080                 4.3676                 5.1515
 Frc consts  --      0.0306                 0.0640                 0.1075
 IR Inten    --      2.7047                 0.2744                 9.3301
  Atom  AN      X      Y      Z        X      Y      Z        X      Y      Z
     1   8    -0.00  -0.20   0.03     0.27   0.10  -0.14     0.26   0.03  -0.09
     2   1     0.02  -0.34   0.10     0.32   0.33  -0.11     0.23   0.13  -0.16
     3   6    -0.01  -0.17  -0.06    -0.01  -0.22  -0.09    -0.08   0.23   0.00
     4   1    -0.00  -0.31  -0.12     0.01  -0.44  -0.19    -0.07   0.53   0.01
     5   6    -0.02   0.01   0.01    -0.03   0.06   0.04    -0.10  -0.16  -0.02
     6   6    -0.03   0.11   0.06    -0.03   0.06   0.07    -0.11  -0.15   0.02
     7   8    -0.13   0.10   0.20     0.03  -0.03   0.15    -0.23  -0.11   0.08
     8   8     0.07   0.19  -0.08    -0.10   0.04  -0.04     0.06  -0.07  -0.02
     9   6     0.05   0.14  -0.03    -0.13  -0.08  -0.04     0.07   0.14   0.05
    10   6     0.07  -0.15  -0.14    -0.07   0.06   0.08     0.06   0.04  -0.02
    11   1    -0.05   0.16   0.20    -0.16  -0.10  -0.24     0.18   0.17   0.25
    12   1     0.09   0.33  -0.13    -0.14  -0.26   0.05     0.01   0.34  -0.04
    13   1     0.05  -0.15  -0.07    -0.09  -0.03   0.05     0.07   0.09   0.03
    14   1     0.04  -0.34  -0.08    -0.04   0.22   0.03     0.07  -0.11   0.02
    15   1     0.09  -0.15  -0.33     0.01   0.03   0.21     0.04   0.03  -0.17
                      7                      8                      9
                      A                      A                      A
 Frequencies --    272.4495               288.7677               340.0289
 Red. masses --      4.1507                 1.1998                 2.6777
 Frc consts  --      0.1815                 0.0589                 0.1824
 IR Inten    --      3.4786                 3.4784                15.3028
  Atom  AN      X      Y      Z        X      Y      Z        X      Y      Z
     1   8    -0.02   0.00   0.01     0.01  -0.03   0.01    -0.02   0.01   0.02
     2   1    -0.15  -0.06  -0.18     0.15   0.01   0.22    -0.14  -0.05  -0.15
     3   6     0.04   0.06  -0.17     0.01  -0.01  -0.02     0.01  -0.02  -0.03
     4   1     0.17   0.20  -0.58     0.02  -0.03  -0.08     0.04  -0.08  -0.13
     5   6    -0.14  -0.12   0.37    -0.01   0.02   0.05    -0.02   0.05   0.11
     6   6    -0.05  -0.01   0.12    -0.00  -0.01   0.01     0.00  -0.04  -0.02
     7   8     0.00   0.09  -0.12     0.06  -0.03  -0.02     0.15  -0.14  -0.01
     8   8    -0.00   0.04  -0.02    -0.03  -0.02  -0.01    -0.02  -0.02  -0.13
     9   6     0.01  -0.05  -0.10    -0.02   0.04  -0.02    -0.05   0.18   0.10
    10   6     0.13  -0.03   0.02    -0.02   0.04  -0.00    -0.05  -0.00   0.01
    11   1    -0.05  -0.07  -0.21     0.03   0.04   0.02     0.03   0.23   0.44
    12   1     0.04  -0.17  -0.04    -0.04   0.07  -0.03    -0.20   0.50  -0.04
    13   1     0.07  -0.16   0.09     0.06   0.49   0.34    -0.10  -0.27  -0.18
    14   1     0.22   0.10  -0.04     0.28  -0.40   0.01    -0.28   0.13   0.05
    15   1     0.24  -0.04   0.14    -0.41   0.09  -0.36     0.21  -0.03   0.07
                     10                     11                     12
                      A                      A                      A
 Frequencies --    415.1762               428.7332               566.9247
 Red. masses --      1.2168                 2.5836                 4.0185
 Frc consts  --      0.1236                 0.2798                 0.7610
 IR Inten    --     80.1344                10.9854                 1.2187
  Atom  AN      X      Y      Z        X      Y      Z        X      Y      Z
     1   8    -0.02   0.01  -0.04    -0.02   0.02  -0.03     0.00  -0.01   0.00
     2   1     0.49  -0.17   0.78     0.26  -0.36   0.47     0.01   0.19  -0.02
     3   6     0.02   0.01  -0.00    -0.10  -0.02  -0.02    -0.19  -0.00  -0.07
     4   1     0.03   0.07  -0.03    -0.11  -0.14  -0.00    -0.18  -0.26  -0.18
     5   6     0.00  -0.06   0.03    -0.07   0.14  -0.05    -0.18   0.26   0.06
     6   6     0.01   0.00  -0.02    -0.06  -0.01   0.02    -0.02  -0.02  -0.05
     7   8    -0.02   0.02  -0.02     0.04  -0.07  -0.01    -0.00  -0.05  -0.02
     8   8     0.03   0.02  -0.05    -0.09  -0.07   0.13     0.17   0.02  -0.03
     9   6    -0.01  -0.01   0.04     0.03   0.07  -0.08     0.21  -0.13   0.14
    10   6    -0.04  -0.00   0.02     0.18   0.00  -0.03    -0.01  -0.01   0.01
    11   1    -0.02  -0.02   0.03     0.08   0.08  -0.06     0.11  -0.16  -0.02
    12   1    -0.05  -0.03   0.05     0.09   0.07  -0.09     0.20  -0.23   0.19
    13   1    -0.04  -0.09  -0.14     0.07  -0.27   0.11     0.15   0.25  -0.35
    14   1    -0.20   0.10   0.04     0.29   0.12  -0.09    -0.31  -0.05   0.10
    15   1    -0.01  -0.01   0.04     0.43  -0.01   0.02    -0.30   0.01  -0.01
                     13                     14                     15
                      A                      A                      A
 Frequencies --    610.7534               700.1765               746.8725
 Red. masses --      7.1593                 1.3353                 1.3142
 Frc consts  --      1.5735                 0.3857                 0.4319
 IR Inten    --     10.4394                15.9551                38.9341
  Atom  AN      X      Y      Z        X      Y      Z        X      Y      Z
     1   8    -0.01  -0.02   0.00    -0.02   0.04   0.02     0.00   0.00  -0.00
     2   1    -0.05  -0.06  -0.06     0.14   0.62   0.14    -0.00  -0.00  -0.00
     3   6    -0.25   0.03  -0.07    -0.02   0.00  -0.01     0.00  -0.14  -0.04
     4   1    -0.27   0.45   0.06    -0.02   0.03  -0.01    -0.02   0.94   0.29
     5   6    -0.20  -0.36  -0.19    -0.02  -0.02  -0.01    -0.00   0.07   0.02
     6   6    -0.02   0.14   0.03     0.01   0.02   0.01     0.00  -0.00  -0.00
     7   8     0.34  -0.09   0.07     0.02   0.02   0.01    -0.01   0.00  -0.00
     8   8     0.04   0.22   0.08    -0.01  -0.01   0.01    -0.00  -0.00  -0.00
     9   6     0.02   0.02   0.02    -0.00  -0.04  -0.03     0.01  -0.00   0.00
    10   6    -0.01   0.02   0.01     0.03  -0.13  -0.05     0.00   0.00  -0.00
    11   1    -0.15  -0.03  -0.27    -0.06  -0.00   0.39     0.01  -0.00   0.00
    12   1     0.14  -0.24   0.14     0.08   0.31  -0.21     0.00  -0.00   0.00
    13   1    -0.01   0.01  -0.02     0.09   0.10   0.02     0.01   0.01  -0.01
    14   1    -0.07  -0.07   0.05     0.17   0.14  -0.15    -0.01  -0.00   0.00
    15   1    -0.02  -0.02  -0.08    -0.19   0.06   0.33    -0.00   0.00  -0.00
                     16                     17                     18
                      A                      A                      A
 Frequencies --    779.8627               789.2316               875.0926
 Red. masses --      1.4641                 5.5375                 2.5012
 Frc consts  --      0.5246                 2.0322                 1.1285
 IR Inten    --     17.9719                46.1602                11.8430
  Atom  AN      X      Y      Z        X      Y      Z        X      Y      Z
     1   8     0.00   0.00   0.00    -0.00  -0.01  -0.00    -0.02  -0.03   0.00
     2   1     0.00   0.00   0.00     0.02  -0.00   0.03     0.12   0.58   0.10
     3   6     0.05   0.04  -0.14     0.02   0.02  -0.07     0.06  -0.01   0.02
     4   1    -0.29  -0.28   0.89    -0.23  -0.21   0.69     0.07  -0.03   0.01
     5   6    -0.03  -0.03   0.09     0.05   0.06  -0.16     0.04   0.05   0.03
     6   6     0.02   0.03  -0.07    -0.16  -0.18   0.50    -0.06  -0.08  -0.04
     7   8    -0.01  -0.01   0.02     0.05   0.05  -0.14    -0.04  -0.14  -0.06
     8   8    -0.01  -0.01   0.02     0.04   0.05  -0.13     0.11   0.14   0.08
     9   6    -0.00   0.00  -0.00     0.01  -0.01  -0.00    -0.04   0.13  -0.07
    10   6     0.00  -0.00  -0.00     0.00   0.01   0.02    -0.07  -0.05   0.02
    11   1     0.00   0.00  -0.00    -0.01  -0.00   0.03    -0.14   0.08  -0.41
    12   1     0.01  -0.00  -0.00    -0.06   0.02  -0.00     0.20  -0.19   0.05
    13   1    -0.00  -0.00   0.01     0.02   0.02  -0.07    -0.21  -0.29   0.28
    14   1     0.01  -0.00  -0.01    -0.09   0.01   0.04     0.06  -0.09  -0.01
    15   1     0.01   0.00   0.00    -0.07  -0.02  -0.00     0.00  -0.07   0.15
                     19                     20                     21
                      A                      A                      A
 Frequencies --    913.3318               938.6230              1008.4603
 Red. masses --      1.7023                 2.5471                 1.8538
 Frc consts  --      0.8366                 1.3222                 1.1108
 IR Inten    --     94.6985               169.9879               244.2197
  Atom  AN      X      Y      Z        X      Y      Z        X      Y      Z
     1   8    -0.02  -0.05   0.01     0.03   0.09   0.00    -0.00  -0.11  -0.03
     2   1     0.09   0.59   0.05    -0.08  -0.48  -0.06    -0.01  -0.09  -0.01
     3   6     0.04  -0.00   0.01     0.09  -0.01   0.03     0.03  -0.00   0.01
     4   1     0.05   0.01   0.02     0.10  -0.01   0.03     0.03  -0.00   0.01
     5   6     0.03  -0.03   0.00     0.06  -0.00   0.02     0.02  -0.00   0.01
     6   6    -0.04   0.03  -0.01    -0.12  -0.01  -0.04    -0.04  -0.01  -0.03
     7   8     0.00  -0.01  -0.00    -0.02  -0.12  -0.05    -0.01  -0.04  -0.01
     8   8    -0.12  -0.01  -0.02    -0.04   0.15   0.04    -0.04   0.07   0.03
     9   6     0.04   0.06   0.05    -0.05  -0.07   0.11     0.06  -0.05  -0.05
    10   6     0.15   0.02   0.00     0.08  -0.09  -0.09     0.02   0.17   0.07
    11   1    -0.01   0.02  -0.24    -0.39  -0.09   0.16    -0.08  -0.01   0.28
    12   1    -0.16  -0.20   0.20     0.06  -0.05   0.08     0.07   0.26  -0.21
    13   1     0.21  -0.04  -0.42     0.29   0.43  -0.24     0.02   0.05  -0.12
    14   1    -0.32  -0.13   0.17     0.02   0.08  -0.11     0.10   0.44  -0.02
    15   1    -0.13  -0.04  -0.18    -0.03   0.27  -0.05    -0.39  -0.56   0.19
                     22                     23                     24
                      A                      A                      A
 Frequencies --   1089.9610              1131.4912              1185.5141
 Red. masses --      3.4970                 2.2458                 1.4425
 Frc consts  --      2.4478                 1.6940                 1.1945
 IR Inten    --     40.2400                68.4085                 9.6606
  Atom  AN      X      Y      Z        X      Y      Z        X      Y      Z
     1   8     0.00   0.03  -0.00    -0.02  -0.05  -0.00     0.01  -0.01  -0.01
     2   1     0.01  -0.08   0.04     0.07   0.32   0.06    -0.03  -0.18  -0.02
     3   6     0.07  -0.00   0.02    -0.00   0.00  -0.00    -0.02   0.00  -0.00
     4   1     0.07   0.01   0.03    -0.00  -0.00  -0.00    -0.02  -0.00  -0.01
     5   6     0.03  -0.03  -0.00    -0.00  -0.00   0.00    -0.01  -0.00  -0.00
     6   6    -0.12   0.07  -0.02     0.01  -0.02   0.00     0.04  -0.02   0.01
     7   8     0.01  -0.02  -0.01    -0.00   0.00  -0.00     0.00   0.03   0.01
     8   8    -0.19   0.03  -0.09    -0.01   0.02  -0.03    -0.01  -0.05  -0.03
     9   6     0.33  -0.01   0.04    -0.03  -0.08   0.20    -0.00   0.14   0.07
    10   6    -0.15  -0.06   0.03     0.01   0.15  -0.18    -0.01  -0.07  -0.05
    11   1     0.29  -0.02  -0.10    -0.08  -0.10   0.12    -0.11   0.08  -0.34
    12   1     0.55   0.00  -0.00    -0.05  -0.11   0.23     0.06  -0.24   0.25
    13   1    -0.21  -0.06   0.39    -0.20  -0.25   0.25     0.09   0.28   0.04
    14   1     0.08  -0.18   0.01     0.53   0.01  -0.30     0.19   0.37  -0.21
    15   1     0.21   0.08   0.29     0.38  -0.09  -0.05    -0.31  -0.33   0.40
                     25                     26                     27
                      A                      A                      A
 Frequencies --   1292.8688              1312.3314              1353.9707
 Red. masses --      2.3296                 1.0817                 1.5604
 Frc consts  --      2.2942                 1.0976                 1.6854
 IR Inten    --    455.8803                14.9417               271.5522
  Atom  AN      X      Y      Z        X      Y      Z        X      Y      Z
     1   8    -0.00   0.00  -0.00    -0.00  -0.01  -0.01    -0.00  -0.02  -0.00
     2   1     0.01   0.01   0.03     0.01  -0.03   0.03     0.01   0.03   0.01
     3   6    -0.06   0.00  -0.02     0.01  -0.00   0.00     0.02  -0.00   0.01
     4   1    -0.07  -0.01  -0.03     0.01   0.00   0.00     0.03   0.01   0.01
     5   6    -0.01   0.01  -0.00     0.00   0.00   0.00     0.00  -0.00  -0.00
     6   6     0.23  -0.18   0.02    -0.03   0.01  -0.00    -0.10   0.08  -0.00
     7   8    -0.03   0.02  -0.00     0.00  -0.01  -0.00     0.02   0.01   0.01
     8   8    -0.10   0.07   0.00     0.02   0.02   0.02     0.06  -0.11  -0.02
     9   6     0.07   0.02  -0.03     0.00  -0.01  -0.03    -0.06   0.02  -0.01
    10   6    -0.01   0.03   0.01    -0.02   0.03  -0.05     0.01   0.07   0.00
    11   1    -0.76  -0.02   0.06     0.24   0.01  -0.01    -0.54  -0.00   0.08
    12   1     0.12   0.08  -0.07    -0.47   0.02   0.03     0.63  -0.05  -0.07
    13   1     0.04   0.14  -0.03     0.09   0.28  -0.07     0.06   0.13  -0.13
    14   1    -0.15  -0.32   0.14    -0.04  -0.42   0.08    -0.06  -0.30   0.12
    15   1     0.25   0.07   0.18     0.24  -0.18   0.59     0.21  -0.11   0.21
                     28                     29                     30
                      A                      A                      A
 Frequencies --   1413.5848              1431.5509              1460.2671
 Red. masses --      1.1828                 1.3432                 1.0703
 Frc consts  --      1.3925                 1.6218                 1.3447
 IR Inten    --     63.0049                59.2904                64.2499
  Atom  AN      X      Y      Z        X      Y      Z        X      Y      Z
     1   8    -0.01  -0.01   0.00     0.01   0.01  -0.00     0.01   0.01   0.00
     2   1     0.03   0.15   0.03    -0.02  -0.13  -0.01    -0.02  -0.08  -0.01
     3   6    -0.01   0.00  -0.00    -0.01   0.00  -0.00     0.00  -0.00   0.00
     4   1    -0.01  -0.00  -0.00    -0.02  -0.00  -0.01     0.00  -0.00   0.00
     5   6    -0.00   0.00   0.00    -0.00   0.00   0.00     0.00   0.00  -0.00
     6   6     0.04  -0.02   0.01     0.06  -0.03   0.01    -0.00   0.00  -0.00
     7   8    -0.01  -0.01  -0.01    -0.01  -0.00  -0.01     0.00   0.00   0.00
     8   8    -0.02   0.03  -0.01    -0.03   0.04  -0.01     0.00  -0.01   0.00
     9   6    -0.05  -0.01   0.02    -0.11  -0.02   0.05     0.03   0.02  -0.01
    10   6    -0.06  -0.03   0.07     0.07   0.03  -0.03    -0.04   0.01   0.05
    11   1     0.34   0.01  -0.17     0.47  -0.00  -0.18    -0.10   0.01   0.03
    12   1     0.28   0.12  -0.10     0.52   0.15  -0.13    -0.11  -0.06   0.05
    13   1     0.19   0.36  -0.39    -0.02  -0.22  -0.01    -0.03  -0.33  -0.57
    14   1     0.28   0.10  -0.06    -0.12  -0.27   0.10     0.58  -0.26  -0.08
    15   1     0.46  -0.21  -0.22    -0.34   0.12   0.33    -0.24   0.22   0.11
                     31                     32                     33
                      A                      A                      A
 Frequencies --   1499.3035              1823.5450              2271.9465
 Red. masses --      1.1022                11.7965                 5.7387
 Frc consts  --      1.4598                23.1119                17.4526
 IR Inten    --     22.6266               347.8720                87.6055
  Atom  AN      X      Y      Z        X      Y      Z        X      Y      Z
     1   8    -0.00  -0.00   0.00    -0.00  -0.00   0.00     0.00  -0.00  -0.00
     2   1    -0.00   0.01  -0.00    -0.00  -0.07  -0.04    -0.00   0.01   0.00
     3   6    -0.01   0.00  -0.00    -0.07   0.01  -0.02    -0.36   0.03  -0.11
     4   1    -0.01  -0.00  -0.00    -0.10   0.03  -0.02    -0.72   0.05  -0.22
     5   6    -0.00   0.00   0.00     0.03  -0.02   0.01     0.51  -0.03   0.16
     6   6     0.03  -0.01   0.01     0.38   0.59   0.34    -0.09  -0.00  -0.03
     7   8    -0.01  -0.01  -0.01    -0.25  -0.39  -0.22     0.00   0.00   0.00
     8   8    -0.02   0.02  -0.01    -0.01  -0.06  -0.02    -0.00   0.00   0.00
     9   6    -0.02   0.04  -0.06     0.04   0.01   0.02     0.00  -0.00  -0.00
    10   6     0.00   0.00  -0.00    -0.01   0.02  -0.01    -0.00  -0.00   0.00
    11   1     0.25   0.12   0.65    -0.19  -0.02  -0.12     0.00  -0.00   0.00
    12   1     0.19  -0.62   0.25    -0.11   0.13  -0.00    -0.00  -0.00   0.00
    13   1     0.01   0.04  -0.01    -0.03  -0.04   0.03     0.00   0.00   0.00
    14   1    -0.01  -0.02   0.01     0.03  -0.00  -0.01     0.00   0.00  -0.00
    15   1     0.03  -0.03   0.01    -0.04  -0.10   0.03     0.00  -0.00  -0.00
                     34                     35                     36
                      A                      A                      A
 Frequencies --   3098.6626              3106.1250              3150.6178
 Red. masses --      1.0579                 1.0570                 1.1081
 Frc consts  --      5.9849                 6.0083                 6.4806
 IR Inten    --     13.8613                 5.5747                 3.3723
  Atom  AN      X      Y      Z        X      Y      Z        X      Y      Z
     1   8     0.00  -0.00  -0.00    -0.00   0.00   0.00     0.00   0.00  -0.00
     2   1    -0.00  -0.00   0.00     0.00   0.00  -0.00    -0.00   0.00   0.00
     3   6    -0.00   0.00  -0.00    -0.00   0.00  -0.00    -0.00   0.00  -0.00
     4   1     0.00   0.00  -0.00     0.00  -0.00   0.00     0.00  -0.00   0.00
     5   6     0.00  -0.00   0.00     0.00  -0.00   0.00     0.00   0.00  -0.00
     6   6    -0.00   0.00   0.00    -0.00   0.00   0.00    -0.00  -0.00  -0.00
     7   8    -0.00  -0.00  -0.00    -0.00  -0.00  -0.00     0.00   0.00   0.00
     8   8     0.00  -0.00   0.00     0.00  -0.00   0.00     0.00   0.00  -0.00
     9   6     0.01  -0.03   0.06     0.00   0.01   0.01    -0.00  -0.08  -0.04
    10   6    -0.01   0.00  -0.00     0.04  -0.03  -0.04     0.01  -0.01   0.00
    11   1    -0.05   0.67  -0.06     0.00  -0.02   0.00    -0.05   0.73  -0.08
    12   1    -0.10  -0.33  -0.64    -0.02  -0.07  -0.14     0.09   0.29   0.58
    13   1     0.10  -0.04   0.03    -0.64   0.21  -0.14    -0.15   0.05  -0.03
    14   1    -0.01  -0.00  -0.03     0.20   0.16   0.66     0.00  -0.00   0.01
    15   1    -0.00   0.01   0.00     0.01  -0.00  -0.01     0.00   0.01   0.00
                     37                     38                     39
                      A                      A                      A
 Frequencies --   3181.0477              3490.2555              3749.4974
 Red. masses --      1.1073                 1.1715                 1.0664
 Frc consts  --      6.6016                 8.4086                 8.8333
 IR Inten    --      4.6367                63.2878               137.5675
  Atom  AN      X      Y      Z        X      Y      Z        X      Y      Z
     1   8     0.00   0.00   0.00    -0.00   0.00   0.00    -0.05   0.01   0.03
     2   1    -0.00  -0.00  -0.00     0.00  -0.00  -0.00     0.83  -0.11  -0.54
     3   6     0.00  -0.00   0.00    -0.11   0.01  -0.03     0.00  -0.00   0.00
     4   1    -0.00  -0.00  -0.00     0.95  -0.07   0.29    -0.00  -0.00  -0.00
     5   6    -0.00   0.00  -0.00     0.03  -0.00   0.01     0.00   0.00   0.00
     6   6     0.00  -0.00  -0.00    -0.00   0.00  -0.00    -0.00  -0.00  -0.00
     7   8     0.00   0.00   0.00     0.00  -0.00  -0.00     0.00   0.00   0.00
     8   8     0.00   0.00   0.00     0.00   0.00   0.00    -0.00   0.00   0.00
     9   6    -0.00  -0.01  -0.01    -0.00   0.00  -0.00     0.00  -0.00  -0.00
    10   6    -0.07   0.00  -0.06     0.00  -0.00   0.00     0.00   0.00  -0.00
    11   1    -0.00   0.03  -0.00     0.00  -0.00   0.00    -0.00   0.00   0.00
    12   1     0.01   0.05   0.10     0.00   0.00   0.00    -0.00   0.00   0.00
    13   1     0.64  -0.23   0.13     0.00  -0.00  -0.00    -0.00  -0.00   0.00
    14   1     0.19   0.17   0.65    -0.00   0.00  -0.00     0.00  -0.00   0.00
    15   1    -0.01   0.01  -0.01    -0.00   0.00   0.00    -0.01  -0.02   0.00

 -------------------
 - Thermochemistry -
 -------------------
 Temperature   298.150 Kelvin.  Pressure   1.00000 Atm.
 Atom     1 has atomic number  8 and mass  15.99491
 Atom     2 has atomic number  1 and mass   1.00783
 Atom     3 has atomic number  6 and mass  12.00000
 Atom     4 has atomic number  1 and mass   1.00783
 Atom     5 has atomic number  6 and mass  12.00000
 Atom     6 has atomic number  6 and mass  12.00000
 Atom     7 has atomic number  8 and mass  15.99491
 Atom     8 has atomic number  8 and mass  15.99491
 Atom     9 has atomic number  6 and mass  12.00000
 Atom    10 has atomic number  6 and mass  12.00000
 Atom    11 has atomic number  1 and mass   1.00783
 Atom    12 has atomic number  1 and mass   1.00783
 Atom    13 has atomic number  1 and mass   1.00783
 Atom    14 has atomic number  1 and mass   1.00783
 Atom    15 has atomic number  1 and mass   1.00783
 Molecular mass:   115.03952 amu.
 Principal axes and moments of inertia in atomic units:
                           1         2         3
     Eigenvalues --   541.060591519.789211853.21542
           X            0.99968  -0.02527   0.00304
           Y            0.02529   0.99967  -0.00505
           Z           -0.00291   0.00512   0.99998
 This molecule is an asymmetric top.
 Rotational symmetry number  1.
 Warning -- assumption of classical behavior for rotation
           may cause significant error
 Rotational temperatures (Kelvin)      0.16008     0.05699     0.04674
 Rotational constants (GHZ):           3.33556     1.18749     0.97384
    2 imaginary frequencies ignored.
 Zero-point vibrational energy     282660.2 (Joules/Mol)
                                   67.55741 (Kcal/Mol)
 Warning -- explicit consideration of  11 degrees of freedom as
           vibrations may cause significant error
 Vibrational temperatures:    126.56   152.85   226.88   270.75   391.99
          (Kelvin)            415.47   489.23   597.35   616.85   815.68
                              878.74  1007.40  1074.58  1122.05  1135.53
                             1259.06  1314.08  1350.47  1450.95  1568.21
                             1627.96  1705.69  1860.15  1888.15  1948.06
                             2033.83  2059.68  2101.00  2157.16  2623.67
                             3268.82  4458.28  4469.02  4533.04  4576.82
                             5021.70  5394.69
 
 Zero-point correction=                           0.107660 (Hartree/Particle)
 Thermal correction to Energy=                    0.116045
 Thermal correction to Enthalpy=                  0.116989
 Thermal correction to Gibbs Free Energy=         0.073763
 Sum of electronic and zero-point Energies=           -420.093395
 Sum of electronic and thermal Energies=              -420.085009
 Sum of electronic and thermal Enthalpies=            -420.084065
 Sum of electronic and thermal Free Energies=         -420.127291
 
                     E (Thermal)             CV                S
                      KCal/Mol        Cal/Mol-Kelvin    Cal/Mol-Kelvin
 Total                   72.819             29.903             90.976
 Electronic               0.000              0.000              1.377
 Translational            0.889              2.981             40.136
 Rotational               0.889              2.981             28.812
 Vibrational             71.042             23.941             20.651
 Vibration     1          0.601              1.958              3.705
 Vibration     2          0.605              1.944              3.337
 Vibration     3          0.621              1.894              2.577
 Vibration     4          0.633              1.856              2.246
 Vibration     5          0.675              1.724              1.581
 Vibration     6          0.685              1.695              1.481
 Vibration     7          0.720              1.595              1.212
 Vibration     8          0.779              1.437              0.909
 Vibration     9          0.790              1.408              0.863
 Vibration    10          0.923              1.103              0.510
 Vibration    11          0.970              1.009              0.432
                       Q            Log10(Q)             Ln(Q)
 Total Bot       0.117831D-33        -33.928740        -78.123810
 Total V=0       0.390109D+16         15.591186         35.900031
 Vib (Bot)       0.274905D-47        -47.560817       -109.512829
 Vib (Bot)    1  0.233819D+01          0.368879          0.849375
 Vib (Bot)    2  0.192943D+01          0.285430          0.657226
 Vib (Bot)    3  0.128296D+01          0.108214          0.249172
 Vib (Bot)    4  0.106426D+01          0.027046          0.062276
 Vib (Bot)    5  0.708458D+00         -0.149686         -0.344664
 Vib (Bot)    6  0.662682D+00         -0.178695         -0.411459
 Vib (Bot)    7  0.546075D+00         -0.262747         -0.604998
 Vib (Bot)    8  0.424481D+00         -0.372142         -0.856889
 Vib (Bot)    9  0.406804D+00         -0.390614         -0.899423
 Vib (Bot)   10  0.272298D+00         -0.564956         -1.300859
 Vib (Bot)   11  0.241776D+00         -0.616586         -1.419742
 Vib (V=0)       0.910139D+02          1.959108          4.511013
 Vib (V=0)    1  0.289105D+01          0.461055          1.061619
 Vib (V=0)    2  0.249317D+01          0.396751          0.913553
 Vib (V=0)    3  0.187695D+01          0.273453          0.629648
 Vib (V=0)    4  0.167586D+01          0.224237          0.516325
 Vib (V=0)    5  0.136713D+01          0.135810          0.312713
 Vib (V=0)    6  0.133015D+01          0.123900          0.285291
 Vib (V=0)    7  0.124040D+01          0.093563          0.215437
 Vib (V=0)    8  0.115588D+01          0.062914          0.144865
 Vib (V=0)    9  0.114458D+01          0.058648          0.135042
 Vib (V=0)   10  0.106934D+01          0.029115          0.067040
 Vib (V=0)   11  0.105539D+01          0.023412          0.053908
 Electronic      0.200000D+01          0.301030          0.693147
 Translational   0.484981D+08          7.685724         17.697035
 Rotational      0.441899D+06          5.645323         12.998837
 ***** Axes restored to original set *****
 -------------------------------------------------------------------
 Center     Atomic                   Forces (Hartrees/Bohr)
 Number     Number              X              Y              Z
 -------------------------------------------------------------------
      1        8           0.000395810    0.004676406    0.000873028
      2        1          -0.000082702   -0.000067180    0.000037530
      3        6          -0.000004036    0.000007797    0.000000376
      4        1           0.000000080   -0.000003477   -0.000001447
      5        6          -0.000002972    0.000035374    0.000025637
      6        6           0.000107709   -0.000309862   -0.000090967
      7        8           0.000155325    0.000194614   -0.000072132
      8        8          -0.000262142    0.000256454    0.000048235
      9        6           0.000152048   -0.000671085    0.000138418
     10        6           0.000142780   -0.000771662   -0.000481791
     11        1          -0.000105789   -0.000021281    0.000056536
     12        1          -0.000032145    0.000005719   -0.000013078
     13        1          -0.000155753   -0.000557818   -0.000043595
     14        1           0.000029947   -0.000726693    0.000125474
     15        1          -0.000338161   -0.002047306   -0.000602223
 -------------------------------------------------------------------
 Cartesian Forces:  Max     0.004676406 RMS     0.000816898

 GradGradGradGradGradGradGradGradGradGradGradGradGradGradGradGradGradGrad
 Berny optimization.
 Search for a local minimum.
 Step number   1 out of a maximum of    2
 All quantities printed in internal units (Hartrees-Bohrs-Radians)
 Second derivative matrix not updated -- analytic derivatives used.
 ITU=  0
     Eigenvalues ---   -0.09596  -0.00002   0.00121   0.00194   0.00388
     Eigenvalues ---    0.00427   0.00948   0.00969   0.01482   0.02261
     Eigenvalues ---    0.02968   0.03331   0.04310   0.05230   0.06410
     Eigenvalues ---    0.06959   0.07419   0.09032   0.09268   0.09515
     Eigenvalues ---    0.09684   0.12058   0.15949   0.17015   0.19046
     Eigenvalues ---    0.25311   0.29885   0.38390   0.45416   0.55211
     Eigenvalues ---    0.65145   0.72042   0.80209   0.85345   0.90252
     Eigenvalues ---    0.91217   0.94428   1.69213   2.74333
 Eigenvalue     1 is  -9.60D-02 should be greater than     0.000000 Eigenvector:
                          Y15       Y1        Y14       Y13       Z15
   1                    0.74226  -0.54039   0.20106   0.17961   0.15696
                          X15       X1        Z1        Y9        Z7
   1                    0.08078  -0.07941  -0.07843   0.07654   0.07283
 Eigenvalue     2 is  -2.30D-05 should be greater than     0.000000 Eigenvector:
                          Z1        X1        Z7        Y4        X14
   1                    0.39487   0.38510  -0.35567  -0.26815  -0.26537
                          Z13       X2        Y12       Y3        Y7
   1                   -0.26396   0.21122   0.18756  -0.17509   0.16056
 Quadratic step=4.523D-01 exceeds max=3.000D-01 adjusted using Lamda=-1.195D-05.
 Angle between NR and scaled steps=   3.49 degrees.
 Angle between quadratic step and forces=  80.98 degrees.
 Linear search not attempted -- first point.
 B after Tr=    -0.002383    0.001607    0.000845
         Rot=    0.999999    0.000192   -0.001411   -0.000804 Ang=   0.19 deg.
 Variable       Old X    -DE/DX   Delta X   Delta X   Delta X     New X
                                 (Linear)    (Quad)   (Total)
    X1        4.42866   0.00040   0.00000  -0.10465  -0.11434   4.31432
    Y1        3.16092   0.00468   0.00000   0.06712   0.07538   3.23631
    Z1       -0.62498   0.00087   0.00000  -0.11676  -0.12934  -0.75432
    X2        2.89184  -0.00008   0.00000  -0.06116  -0.06802   2.82382
    Y2        3.35286  -0.00007   0.00000   0.00694   0.01322   3.36608
    Z2        0.37039   0.00004   0.00000  -0.03761  -0.04603   0.32436
    X3       -6.26919  -0.00000   0.00000   0.03078   0.02496  -6.24423
    Y3        0.35763   0.00001   0.00000   0.05322   0.04442   0.40205
    Z3       -0.97558   0.00000   0.00000  -0.02055  -0.00225  -0.97784
    X4       -8.18908   0.00000   0.00000   0.03898   0.03118  -8.15789
    Y4        0.49468  -0.00000   0.00000   0.08095   0.06883   0.56351
    Z4       -1.56391  -0.00000   0.00000  -0.04094  -0.01731  -1.58122
    X5       -4.11081  -0.00000   0.00000   0.02161   0.01801  -4.09279
    Y5        0.20265   0.00004   0.00000   0.02037   0.01528   0.21793
    Z5       -0.31225   0.00003   0.00000   0.00188   0.01418  -0.29807
    X6       -1.49438   0.00011   0.00000   0.01122   0.01023  -1.48415
    Y6        0.11493  -0.00031   0.00000  -0.01694  -0.01751   0.09742
    Z6        0.51628  -0.00009   0.00000   0.03157   0.03656   0.55284
    X7       -0.43314   0.00016   0.00000   0.00577   0.00501  -0.42813
    Y7        1.86425   0.00019   0.00000  -0.05060  -0.04906   1.81519
    Z7        1.50914  -0.00007   0.00000   0.09899   0.10034   1.60949
    X8       -0.46343  -0.00026   0.00000   0.00928   0.01041  -0.45302
    Y8       -2.12734   0.00026   0.00000  -0.00499  -0.00410  -2.13145
    Z8        0.05129   0.00005   0.00000  -0.02442  -0.02148   0.02982
    X9        2.12034   0.00015   0.00000   0.00018   0.00421   2.12454
    Y9       -2.49236  -0.00067   0.00000  -0.03512  -0.02978  -2.52213
    Z9        0.83668   0.00014   0.00000  -0.00152  -0.00569   0.83099
   X10        3.96772   0.00014   0.00000   0.02694   0.02398   3.99170
   Y10       -1.55398  -0.00077   0.00000  -0.00831  -0.00070  -1.55467
   Z10       -1.11904  -0.00048   0.00000   0.03160   0.02177  -1.09727
   X11        2.27624  -0.00011   0.00000  -0.01385  -0.00597   2.27027
   Y11       -4.53381  -0.00002   0.00000  -0.03845  -0.03280  -4.56661
   Z11        1.06733   0.00006   0.00000  -0.03120  -0.03499   1.03234
   X12        2.40733  -0.00003   0.00000  -0.01669  -0.00889   2.39844
   Y12       -1.58019   0.00001   0.00000  -0.06250  -0.05601  -1.63621
   Z12        2.66356  -0.00001   0.00000   0.01474   0.00945   2.67301
   X13        5.87759  -0.00016   0.00000   0.02769   0.02699   5.90458
   Y13       -2.21871  -0.00056   0.00000   0.01866   0.02951  -2.18920
   Z13       -0.72592  -0.00004   0.00000   0.07777   0.06279  -0.66312
   X14        3.39875   0.00003   0.00000   0.07619   0.06860   3.46735
   Y14       -2.02761  -0.00073   0.00000  -0.03962  -0.03359  -2.06120
   Z14       -3.04121   0.00013   0.00000   0.02457   0.01641  -3.02480
   X15        4.17722  -0.00034   0.00000  -0.01993  -0.02634   4.15088
   Y15        0.66154  -0.00205   0.00000  -0.03099  -0.02311   0.63843
   Z15       -1.06788  -0.00060   0.00000   0.00672  -0.00440  -1.07228
         Item               Value     Threshold  Converged?
 Maximum Force            0.004676     0.000450     NO 
 RMS     Force            0.000817     0.000300     NO 
 Maximum Displacement     0.129344     0.001800     NO 
 RMS     Displacement     0.044004     0.001200     NO 
 Predicted change in Energy=-3.522798D-04
 GradGradGradGradGradGradGradGradGradGradGradGradGradGradGradGradGradGrad


 ----------------------------------------------------------------------

 Electric dipole moment (input orientation):
 (Debye = 10**-18 statcoulomb cm , SI units = C m)
                  (au)            (Debye)         (10**-30 SI)
   Tot        0.141353D+01      0.359285D+01      0.119844D+02
   x         -0.770091D+00     -0.195738D+01     -0.652911D+01
   y         -0.118530D+01     -0.301273D+01     -0.100494D+02
   z         -0.102417D-01     -0.260318D-01     -0.868327D-01

 Dipole polarizability, Alpha (input orientation).
 (esu units = cm**3 , SI units = C**2 m**2 J**-1)
 Alpha(0;0):
               (au)            (10**-24 esu)      (10**-40 SI)
   iso        0.746328D+02      0.110594D+02      0.123053D+02
   aniso      0.387489D+02      0.574200D+01      0.638884D+01
   xx         0.932721D+02      0.138215D+02      0.153785D+02
   yx        -0.644954D+00     -0.955723D-01     -0.106339D+00
   yy         0.785002D+02      0.116325D+02      0.129429D+02
   zx         0.769706D+01      0.114059D+01      0.126907D+01
   zy         0.252437D+01      0.374073D+00      0.416212D+00
   zz         0.521263D+02      0.772432D+01      0.859447D+01

 ----------------------------------------------------------------------

 Dipole orientation:
     8          1.30957791         -1.63986638         -5.05874497
     1          0.68617781         -0.04202520         -4.38964488
     6         -5.09095099          2.17114469          3.12262970
     1         -6.82042642          2.60126037          4.05791845
     6         -3.14515806          1.68894628          2.07189181
     6         -0.81922089          1.15411454          0.71402814
     8         -0.33933201          2.00863539         -1.33820635
     8          0.68200339         -0.36433535          2.03595669
     6          3.08913931         -1.00120631          0.92871392
     6          2.88691945         -3.21750817         -0.85043197
     1          4.26350253         -1.47508390          2.55394019
     1          3.86586353          0.66472973         -0.00575932
     1          4.74585935         -3.96063595         -1.33637956
     1          1.65881496         -4.70566348         -0.12937614
     1          2.04215742         -2.62468557         -2.82272888

 Electric dipole moment (dipole orientation):
 (Debye = 10**-18 statcoulomb cm , SI units = C m)
                  (au)            (Debye)         (10**-30 SI)
   Tot        0.141353D+01      0.359285D+01      0.119844D+02
   x          0.000000D+00      0.000000D+00      0.000000D+00
   y          0.000000D+00      0.000000D+00      0.000000D+00
   z          0.141353D+01      0.359285D+01      0.119844D+02

 Dipole polarizability, Alpha (dipole orientation).
 (esu units = cm**3 , SI units = C**2 m**2 J**-1)
 Alpha(0;0):
               (au)            (10**-24 esu)      (10**-40 SI)
   iso        0.746328D+02      0.110594D+02      0.123053D+02
   aniso      0.387489D+02      0.574200D+01      0.638884D+01
   xx         0.829615D+02      0.122936D+02      0.136785D+02
   yx        -0.150601D+02     -0.223167D+01     -0.248307D+01
   yy         0.585517D+02      0.867647D+01      0.965387D+01
   zx        -0.878854D+01     -0.130233D+01     -0.144903D+01
   zy        -0.155377D+01     -0.230245D+00     -0.256183D+00
   zz         0.823853D+02      0.122082D+02      0.135835D+02

 ----------------------------------------------------------------------
 1\1\GINC-AJ\Freq\UM062X\6-311++G(d,p)\C5H7O3(2)\AAYUSH\16-Aug-2025\0\\
 # freq 6-311++g(d,p) m062x\\Title Card Required\\0,2\O,2.343546,1.6726
 88,-0.330724\H,1.530296,1.774256,0.196004\C,-3.317515,0.18925,-0.51625
 7\H,-4.333472,0.261774,-0.827585\C,-2.175345,0.107239,-0.165234\C,-0.7
 90794,0.060816,0.273205\O,-0.229206,0.986521,0.798603\O,-0.245235,-1.1
 25742,0.027144\C,1.122033,-1.318899,0.442753\C,2.099626,-0.82233,-0.59
 2173\H,1.204534,-2.399191,0.564809\H,1.273905,-0.836203,1.409494\H,3.1
 10289,-1.174089,-0.384138\H,1.798542,-1.072965,-1.609339\H,2.210491,0.
 35007,-0.565096\\Version=ES64L-G16RevA.03\State=2-A\HF=-420.2010542\S2
 =0.75844\S2-1=0.\S2A=0.750036\RMSD=4.186e-09\RMSF=8.169e-04\ZeroPoint=
 0.1076596\Thermal=0.1160448\Dipole=-0.7700914,-1.1852994,-0.0102417\Di
 poleDeriv=-0.442376,0.0756496,-0.0419387,0.0690687,0.2073324,0.0580359
 ,0.0002424,0.1087934,-0.4079814,0.3947848,-0.0419892,0.0245307,0.10514
 08,0.4230479,-0.0000064,-0.0008999,0.0725059,0.2799288,-0.2250954,0.00
 2038,-0.014248,0.0113965,-0.1479636,-0.0018965,-0.0205497,-0.0055443,-
 0.1380367,0.277175,-0.0057322,0.018532,-0.0057361,0.2232377,0.0047346,
 0.0213507,0.0043336,0.2135165,-0.6860531,0.0391222,-0.1543951,0.063169
 8,-0.1150298,0.0026405,-0.1882711,0.0081123,-0.1418865,2.0879949,-0.17
 1379,0.3922558,-0.5948845,1.6111171,0.3747683,0.3125193,0.3952399,0.66
 46886,-0.9893534,-0.2196431,-0.216872,-0.1076684,-0.877826,-0.2447425,
 -0.1485044,-0.2902437,-0.5386795,-1.3835833,0.4187465,-0.0247989,0.712
 4998,-0.9719732,-0.1080075,-0.0510835,-0.0766066,-0.3631689,0.9508516,
 -0.096186,0.0020464,-0.1979019,0.0829913,-0.0236703,0.096971,-0.088321
 ,0.2734835,-0.0358999,0.1348181,0.0038794,0.1780799,0.8839293,0.062746
 2,0.0083039,-0.0136342,-0.0118215,-0.025435,-0.0729356,0.0154473,0.036
 4186,-0.0603817,0.0419709,0.0084536,0.0579968,0.0809917,-0.0240902,0.0
 177162,0.031871,-0.0146017,0.063197,-0.0759159,-0.0217673,-0.0049272,-
 0.0311866,-0.0653008,0.0150303,-0.0090979,0.0323114,-0.0530005,0.01603
 78,-0.0153957,0.0017881,0.0651215,0.0587642,-0.0170827,-0.0464485,-0.0
 643007,-0.0863368,-0.0452439,0.0070123,0.0180348,-0.0380544,0.1076166,
 -0.0781731,0.0192365,-0.2229921,-1.182341,-0.0614512,-0.0083814,-0.187
 5277,0.0930848\Polar=93.2720627,-0.644954,78.5001816,7.6970553,2.52436
 98,52.1263037\Quadrupole=4.4683478,-3.331464,-1.1368839,-6.1891139,3.0
 722805,-0.5208216\PG=C01 [X(C5H7O3)]\NImag=2\\0.36492722,-0.03356590,0
 .03063459,-0.23109238,0.02527605,0.15269410,-0.35018154,0.04955494,0.2
 2573255,0.35285103,0.03041962,-0.02878874,-0.02403878,-0.04308589,0.03
 270092,0.22102454,-0.03606961,-0.15025114,-0.22417216,0.03332607,0.152
 78801,-0.00020422,-0.00006303,0.00017000,0.00033455,0.00041774,-0.0001
 5106,1.43624833,-0.00003398,0.00000913,-0.00009908,0.00005997,-0.00010
 134,0.00011951,-0.09739436,0.06439092,-0.00005248,-0.00004289,0.000139
 00,0.00007169,0.00006974,-0.00018917,0.42223577,-0.03147847,0.19093458
 ,0.00010082,-0.00000230,-0.00001166,-0.00013651,-0.00007499,-0.0000050
 1,-0.38839821,0.02537027,-0.10981863,0.37870976,0.00003748,0.00003488,
 0.00000976,-0.00005675,0.00002577,0.00001805,0.02542345,-0.02934661,0.
 00868052,-0.02564310,0.01874035,0.00004987,0.00003825,-0.00005321,-0.0
 0007271,-0.00004780,0.00006012,-0.10973951,0.00868193,-0.06368496,0.11
 056545,-0.00822668,0.05196468,-0.00051082,-0.00001603,0.00048309,0.000
 94599,0.00059789,-0.00052779,-1.04723958,0.07248838,-0.31090607,0.0097
 7281,0.00017899,0.00056435,1.36849879,-0.00030599,-0.00045165,0.000319
 98,0.00046583,0.00017207,-0.00072865,0.07080111,-0.03967343,0.02209775
 ,-0.00004921,0.00513292,-0.00105823,-0.09122835,0.11229749,-0.00065980
 ,-0.00039947,0.00026466,0.00097341,0.00083030,-0.00020278,-0.31142953,
 0.02263285,-0.13027149,0.00054797,-0.00095862,0.00779637,0.40072658,-0
 .01271621,0.19086962,0.00118779,-0.00018471,-0.00046132,-0.00316449,-0
 .00335116,-0.00051078,0.00572123,-0.00145704,0.00041540,-0.00105428,0.
 00010880,-0.00222924,-0.25652585,0.01050392,-0.05576621,0.70439713,0.0
 0812943,0.00619538,-0.00133842,-0.01288431,-0.00259061,0.00362011,-0.0
 0153043,0.00329299,-0.00035966,0.00089830,0.00549175,0.00016840,0.0202
 5717,-0.06184897,0.01150977,0.10926493,0.77997098,0.00347657,0.0025081
 7,-0.00150581,-0.00562576,-0.00143934,0.00236046,0.00017457,-0.0004045
 9,0.00254864,-0.00195970,-0.00002368,0.00518195,-0.05228760,0.00755288
 ,-0.08847690,0.20365040,0.24148489,0.36732900,-0.00735654,-0.00568045,
 0.00273508,-0.00038981,0.00209931,0.00085561,-0.00276514,0.00109058,-0
 .00063857,0.00054020,0.00129984,0.00099744,-0.03654331,-0.03738790,-0.
 03304755,-0.26019282,-0.23284567,-0.14338387,0.27078823,-0.00755422,-0
 .00402405,0.00199605,0.00669578,0.00076010,-0.00200996,0.00222142,0.00
 084852,0.00090199,-0.00008240,-0.00009775,0.00032960,-0.03102326,-0.00
 200874,-0.01914801,-0.22848309,-0.46199612,-0.21399181,0.26850439,0.56
 156434,0.00134507,0.00050455,0.00160830,0.00315589,0.00003750,-0.00406
 731,-0.00001820,0.00049424,0.00055422,0.00045777,0.00071795,-0.0006015
 9,-0.03026685,-0.02015971,0.00404917,-0.14321362,-0.22028333,-0.207816
 69,0.17043771,0.27933228,0.19622306,0.00263620,0.00237237,0.00037317,-
 0.00435882,0.00056580,0.00122106,-0.00449681,-0.00010567,-0.00161175,0
 .00072893,-0.00133312,-0.00010598,-0.04083513,0.04577589,-0.00103191,-
 0.15577016,0.08580596,0.00259268,0.03702253,0.00189983,-0.00020312,0.4
 2583477,-0.00356158,-0.00349152,0.00037431,0.00659671,0.00023079,-0.00
 233834,-0.00013382,0.00026022,-0.00014207,-0.00051392,-0.00004705,-0.0
 0006483,0.02695693,-0.01086135,0.00112473,0.06723591,-0.25244194,-0.04
 783679,-0.00230464,-0.09928378,-0.04520014,-0.13493083,0.44030227,-0.0
 0068528,-0.00071773,0.00050954,0.00120238,-0.00012181,-0.00077388,-0.0
 0165783,-0.00011295,-0.00012740,0.00018046,-0.00032946,-0.00043776,-0.
 00732669,0.00733740,0.01125807,-0.00583774,-0.03871201,-0.08289978,-0.
 00048319,-0.04599234,0.01436993,0.07062213,0.08713939,0.14060638,-0.00
 186352,-0.00100469,-0.00048140,0.00415794,-0.00090968,-0.00114058,0.00
 154282,0.00002577,0.00048852,-0.00038617,0.00009950,-0.00002654,0.0043
 9441,-0.00109109,-0.00016947,-0.03095400,0.04463428,0.00352470,-0.0059
 6797,-0.01976398,-0.00691022,-0.17123162,0.01066758,-0.03937010,0.4305
 4754,0.00089163,0.00770265,0.00162223,-0.00226491,0.00085142,0.0015993
 7,0.00019531,0.00026409,0.00028357,0.00010732,0.00009205,0.00018552,0.
 00202993,-0.00274232,-0.00291865,0.04358965,-0.01640582,0.01159823,0.0
 0275401,0.00365417,0.00337728,-0.00814972,-0.08246023,-0.01046723,0.00
 112880,0.61899589,-0.00084294,-0.00286124,-0.00089424,0.00045773,0.000
 24303,0.00092399,0.00067699,0.00015462,0.00006755,-0.00000167,0.000151
 62,-0.00024237,-0.00014523,-0.00336825,0.00527498,0.00437985,0.0155296
 7,0.00653536,-0.00234010,-0.00363005,-0.00718291,-0.04740857,-0.004586
 70,-0.08704616,-0.00195731,0.03717425,0.56871728,-0.00164822,-0.017414
 47,-0.00079076,0.00099189,0.00302685,-0.00189069,-0.00020850,-0.000047
 50,-0.00003843,0.00003034,-0.00004159,0.00007544,-0.00031210,0.0011074
 6,-0.00132461,-0.00031224,-0.00607164,-0.00051300,0.00044252,0.0010820
 4,0.00217192,-0.04443283,-0.00589799,0.02158093,-0.12345769,-0.0303126
 6,0.05421892,0.55142768,-0.01623424,-0.11672309,-0.01757048,0.00823451
 ,-0.00054346,-0.00509248,0.00034911,-0.00012670,0.00008489,-0.00008390
 ,0.00013160,-0.00001124,0.00035510,-0.00108717,0.00006386,-0.00010269,
 0.01588345,0.00415089,-0.00574880,-0.00767271,-0.00073269,0.01478331,-
 0.00392452,-0.00844399,-0.03861040,-0.08395466,0.03483716,-0.02193402,
 0.34606441,0.00109121,0.00079013,0.00217807,-0.00183575,-0.00120352,-0
 .00043953,-0.00030080,-0.00004093,0.00001165,0.00003604,-0.00001201,0.
 00004362,0.00014713,0.00058673,-0.00095224,0.00011715,-0.00438839,-0.0
 0032325,0.00037105,0.00171963,0.00100207,-0.01054655,-0.00192246,0.011
 79290,0.06591653,0.03869985,-0.15806889,0.04360001,0.00473492,0.551343
 92,0.00039732,0.00141904,0.00021070,-0.00081528,0.00035099,0.00046098,
 -0.00043560,-0.00006470,-0.00014302,0.00005743,-0.00004732,-0.00004236
 ,-0.00107786,0.00115261,0.00069281,-0.00397763,-0.00388818,-0.00536268
 ,0.00201028,0.00155485,0.00109571,-0.02157069,0.04300582,-0.00565106,-
 0.04218765,0.00484865,-0.00076103,0.00106251,-0.01908140,0.00267658,0.
 06562387,-0.00009760,-0.00118187,-0.00026822,0.00012888,0.00023695,-0.
 00013709,0.00009983,-0.00000233,-0.00001007,-0.00002655,0.00000673,-0.
 00000777,0.00021050,-0.00019403,0.00016898,-0.00112021,0.00125723,0.00
 069612,0.00073195,0.00001707,0.00041855,0.00508627,-0.00350407,-0.0003
 2612,0.02002719,-0.31900623,0.02530915,-0.00261741,-0.01060279,0.00199
 361,-0.02148800,0.34088463,0.00002131,-0.00028507,0.00011323,0.0002844
 8,-0.00013587,-0.00046309,-0.00006965,-0.00001245,-0.00005986,0.000004
 70,-0.00000296,-0.00001835,-0.00038010,0.00022188,0.00039128,-0.001782
 81,-0.00271323,-0.00209151,0.00198313,-0.00024661,0.00117694,-0.007047
 22,0.01348563,-0.00077058,-0.00145634,0.02409428,-0.05399658,0.0013305
 0,0.02369122,-0.00334025,0.00336268,-0.03138793,0.05383910,0.00005456,
 0.00080054,-0.00035903,-0.00011883,-0.00003030,0.00025223,-0.00008432,
 0.00004202,0.00000943,0.00005303,-0.00000928,-0.00003162,-0.00048495,-
 0.00002173,0.00054017,0.00151920,-0.00759385,-0.00373798,0.00114479,0.
 00297643,0.00166509,-0.02296367,-0.00912479,-0.03484694,-0.05319777,-0
 .01053948,-0.02195134,0.00644309,0.00993380,0.02018054,0.00167692,0.00
 015729,0.00247988,0.06839029,0.00002985,0.00056174,-0.00055854,0.00031
 311,-0.00049217,0.00046310,-0.00007655,0.00001313,0.00003004,-0.000004
 20,0.00000485,0.00003258,-0.00009001,0.00004063,-0.00076762,0.00207915
 ,0.00220074,0.00204730,0.00039174,-0.00238793,0.00023131,0.00122153,0.
 00253140,0.00762704,-0.01704549,-0.10716495,-0.11295858,0.00166859,0.0
 0587894,0.01306875,-0.00364585,-0.01189587,-0.02759273,0.01641741,0.11
 051265,0.00004642,0.00035456,0.00056721,-0.00013228,0.00056834,-0.0003
 5984,0.00003580,0.00000323,0.00008060,0.00000438,-0.00001671,-0.000005
 46,-0.00004646,0.00027986,-0.00019494,0.00008408,-0.00511160,-0.000776
 21,0.00264837,0.00062662,0.00128415,-0.00990852,-0.00008962,-0.0070213
 4,-0.03071703,-0.10597885,-0.25960764,-0.00086177,-0.00841774,-0.01942
 932,0.00152420,0.00164889,0.00566483,0.03440549,0.11628344,0.28102572,
 0.00125109,0.00210072,0.00034479,-0.00052483,-0.00052118,0.00027915,-0
 .00010106,0.00000997,-0.00000351,0.00003170,-0.00001207,0.00001291,-0.
 00017882,0.00024898,-0.00028289,0.00067362,-0.00329736,-0.00066049,0.0
 0066058,0.00103823,0.00049368,-0.00410011,0.00049893,0.00393802,-0.015
 10356,0.00797546,-0.00750522,-0.28560064,0.08524506,-0.04830126,0.0004
 9211,-0.00032772,-0.00039012,0.00006924,0.00004424,0.00059417,0.307313
 65,0.00109192,0.00854098,0.00036564,-0.00111447,-0.00041571,0.00138223
 ,-0.00004518,0.00001908,-0.00005473,0.00000560,-0.00002581,0.00001022,
 -0.00010017,0.00029794,0.00005186,-0.00054299,-0.00354456,-0.00078240,
 0.00134367,0.00151688,0.00015434,-0.00507386,0.00218706,0.00241646,-0.
 00945247,0.00237289,-0.00331796,0.09280559,-0.06138246,0.02139697,0.00
 005757,0.00060240,-0.00073060,0.00011039,0.00008622,0.00013376,-0.0921
 0794,0.07014218,0.00058449,0.00143311,-0.00004153,-0.00004464,-0.00023
 746,0.00001311,0.00012499,0.00001405,0.00001487,-0.00000793,0.00001377
 ,-0.00001645,0.00005291,-0.00035618,0.00034144,0.00016718,0.00185386,0
 .00011732,-0.00020123,-0.00048401,-0.00043519,0.00575933,0.00043246,-0
 .00266396,0.01792642,-0.00903963,0.00684317,-0.04959985,0.01972930,-0.
 06057740,-0.00040998,0.00017132,0.00108869,-0.00098959,-0.00060288,-0.
 00020235,0.05232258,-0.02184295,0.05804761,-0.00037774,-0.00141690,0.0
 0025538,0.00019042,0.00019479,0.00005828,0.00002060,-0.00000827,-0.000
 03309,-0.00002203,0.00000869,0.00000034,0.00004479,-0.00006026,0.00009
 235,-0.00035610,0.00152960,0.00058300,-0.00032251,-0.00047400,-0.00039
 002,0.00347021,-0.00014249,-0.00110940,0.00484342,0.00611223,0.0226690
 7,-0.07078038,-0.01937544,-0.07493688,0.00029347,0.00003266,-0.0006196
 7,-0.00291179,-0.00175085,0.00314521,-0.00474868,-0.00823609,-0.026168
 39,0.07125291,0.00161533,0.00710206,0.00182931,-0.00193019,0.00035578,
 0.00046302,-0.00003316,0.00001233,-0.00000433,0.00002445,-0.00001303,-
 0.00000806,-0.00007836,0.00011793,0.00013521,0.00035639,-0.00192993,-0
 .00101536,0.00079205,0.00127402,0.00014979,-0.00022029,0.00097313,-0.0
 0059283,0.00516963,0.00373295,0.01273138,-0.02099000,-0.04889786,-0.06
 715532,0.00039753,0.00026410,-0.00044136,-0.00203994,-0.00046030,0.000
 92374,0.00260457,0.00285455,0.01135669,0.02184573,0.05399152,-0.000066
 19,-0.00211179,0.00036092,0.00029527,0.00014533,-0.00026828,0.00003827
 ,-0.00000881,0.00001630,0.00000004,0.00000148,0.00000336,0.00005845,-0
 .00001364,-0.00007062,0.00015726,-0.00022456,-0.00033096,0.00007959,-0
 .00000836,0.00025476,-0.00106114,-0.00047669,0.00272818,-0.00712145,-0
 .00641337,-0.02054430,-0.07239111,-0.06056829,-0.28849512,0.00012461,0
 .00017885,0.00027344,0.00282854,0.00239482,-0.00136904,0.00008167,-0.0
 0143036,-0.00220735,0.07748663,0.06551261,0.31076722,-0.00841240,0.003
 10087,0.00289180,0.00021828,0.01030022,0.00424623,0.00006589,0.0000245
 5,0.00002473,-0.00002782,-0.00001351,-0.00001784,0.00005161,0.00008873
 ,0.00013868,-0.00119140,-0.00240823,-0.00047084,0.00092895,0.00140798,
 0.00017920,0.00006719,0.00164815,-0.00055570,-0.00113616,-0.01836622,0
 .00051084,-0.03364543,0.00227000,0.00178499,-0.00154919,-0.00079709,0.
 00227921,0.00041020,0.00044734,-0.00082207,-0.00013430,0.02125844,0.00
 048371,-0.00059657,-0.00751374,-0.00051044,0.04495115,0.01913826,0.093
 87952,0.01208019,-0.01071321,-0.00240177,0.00538467,-0.00023145,0.0001
 3999,-0.00005625,0.00007463,-0.00013065,-0.00002188,-0.00053868,0.0008
 0869,0.00039103,0.00210313,-0.01353457,-0.00454452,0.00495994,0.007835
 97,0.00095808,-0.00769748,0.00952958,0.00129618,0.00612504,-0.02593188
 ,0.00459190,0.00563675,-0.03304298,-0.00826796,-0.00457161,0.00311808,
 0.00205580,-0.00107851,0.00057094,-0.00120791,-0.00349990,-0.02325164,
 -0.00244145,0.00174059,-0.01937726,0.00302278,-0.01144750,0.00178797,0
 .00575959,0.01158297,-0.00568910,-0.00029009,-0.00799571,0.00086934,-0
 .00008979,0.00005685,-0.00003452,0.00000778,-0.00002302,0.00001006,-0.
 00014573,0.00000439,-0.00007662,0.00083042,-0.00103550,0.00014838,-0.0
 0001348,0.00060499,-0.00041892,-0.00164362,0.00010112,0.00047585,0.001
 49427,0.01618315,-0.00077924,0.00443247,0.01354469,-0.03474623,0.00222
 188,0.00155173,-0.00180729,-0.00044487,0.00030199,0.00034365,-0.000923
 48,0.00224751,-0.00032200,-0.00103282,-0.02388450,-0.00111850,-0.01016
 252,-0.01324064,0.04314514\\-0.00039581,-0.00467641,-0.00087303,0.0000
 8270,0.00006718,-0.00003753,0.00000404,-0.00000780,-0.00000038,-0.0000
 0008,0.00000348,0.00000145,0.00000297,-0.00003537,-0.00002564,-0.00010
 771,0.00030986,0.00009097,-0.00015533,-0.00019461,0.00007213,0.0002621
 4,-0.00025645,-0.00004824,-0.00015205,0.00067109,-0.00013842,-0.000142
 78,0.00077166,0.00048179,0.00010579,0.00002128,-0.00005654,0.00003215,
 -0.00000572,0.00001308,0.00015575,0.00055782,0.00004360,-0.00002995,0.
 00072669,-0.00012547,0.00033816,0.00204731,0.00060222\\\@


 Discoveries are often made by not following instructions,
 by going off the main road, by trying the untried.
 -- Frank Tyger
 Job cpu time:       0 days  0 hours 54 minutes 25.0 seconds.
 Elapsed time:       0 days  0 hours  2 minutes 16.1 seconds.
 File lengths (MBytes):  RWF=    153 Int=      0 D2E=      0 Chk=      5 Scr=      1
 Normal termination of Gaussian 16 at Sat Aug 16 15:53:33 2025.
