 Entering Gaussian System, Link 0=g16
 Initial command:
 /opt/g16/l1.exe "/home/aayush/scratches/g16/Gau-10556.inp" -scrdir="/home/aayush/scratches/g16/"
 Entering Link 1 = /opt/g16/l1.exe PID=     10559.
  
 Copyright (c) 1988,1990,1992,1993,1995,1998,2003,2009,2016,
            Gaussian, Inc.  All Rights Reserved.
  
 This is part of the Gaussian(R) 16 program.  It is based on
 the Gaussian(R) 09 system (copyright 2009, Gaussian, Inc.),
 the Gaussian(R) 03 system (copyright 2003, Gaussian, Inc.),
 the Gaussian(R) 98 system (copyright 1998, Gaussian, Inc.),
 the Gaussian(R) 94 system (copyright 1995, Gaussian, Inc.),
 the Gaussian 92(TM) system (copyright 1992, Gaussian, Inc.),
 the Gaussian 90(TM) system (copyright 1990, Gaussian, Inc.),
 the Gaussian 88(TM) system (copyright 1988, Gaussian, Inc.),
 the Gaussian 86(TM) system (copyright 1986, Carnegie Mellon
 University), and the Gaussian 82(TM) system (copyright 1983,
 Carnegie Mellon University). Gaussian is a federally registered
 trademark of Gaussian, Inc.
  
 This software contains proprietary and confidential information,
 including trade secrets, belonging to Gaussian, Inc.
  
 This software is provided under written license and may be
 used, copied, transmitted, or stored only in accord with that
 written license.
  
 The following legend is applicable only to US Government
 contracts under FAR:
  
                    RESTRICTED RIGHTS LEGEND
  
 Use, reproduction and disclosure by the US Government is
 subject to restrictions as set forth in subparagraphs (a)
 and (c) of the Commercial Computer Software - Restricted
 Rights clause in FAR 52.227-19.
  
 Gaussian, Inc.
 340 Quinnipiac St., Bldg. 40, Wallingford CT 06492
  
  
 ---------------------------------------------------------------
 Warning -- This program may not be used in any manner that
 competes with the business of Gaussian, Inc. or will provide
 assistance to any competitor of Gaussian, Inc.  The licensee
 of this program is prohibited from giving any competitor of
 Gaussian, Inc. access to this program.  By using this program,
 the user acknowledges that Gaussian, Inc. is engaged in the
 business of creating and licensing software in the field of
 computational chemistry and represents and warrants to the
 licensee that it is not a competitor of Gaussian, Inc. and that
 it will not use this program in any manner prohibited above.
 ---------------------------------------------------------------
  

 Cite this work as:
 Gaussian 16, Revision A.03,
 M. J. Frisch, G. W. Trucks, H. B. Schlegel, G. E. Scuseria, 
 M. A. Robb, J. R. Cheeseman, G. Scalmani, V. Barone, 
 G. A. Petersson, H. Nakatsuji, X. Li, M. Caricato, A. V. Marenich, 
 J. Bloino, B. G. Janesko, R. Gomperts, B. Mennucci, H. P. Hratchian, 
 J. V. Ortiz, A. F. Izmaylov, J. L. Sonnenberg, D. Williams-Young, 
 F. Ding, F. Lipparini, F. Egidi, J. Goings, B. Peng, A. Petrone, 
 T. Henderson, D. Ranasinghe, V. G. Zakrzewski, J. Gao, N. Rega, 
 G. Zheng, W. Liang, M. Hada, M. Ehara, K. Toyota, R. Fukuda, 
 J. Hasegawa, M. Ishida, T. Nakajima, Y. Honda, O. Kitao, H. Nakai, 
 T. Vreven, K. Throssell, J. A. Montgomery, Jr., J. E. Peralta, 
 F. Ogliaro, M. J. Bearpark, J. J. Heyd, E. N. Brothers, K. N. Kudin, 
 V. N. Staroverov, T. A. Keith, R. Kobayashi, J. Normand, 
 K. Raghavachari, A. P. Rendell, J. C. Burant, S. S. Iyengar, 
 J. Tomasi, M. Cossi, J. M. Millam, M. Klene, C. Adamo, R. Cammi, 
 J. W. Ochterski, R. L. Martin, K. Morokuma, O. Farkas, 
 J. B. Foresman, and D. J. Fox, Gaussian, Inc., Wallingford CT, 2016.
 
 ******************************************
 Gaussian 16:  ES64L-G16RevA.03 25-Dec-2016
                21-Aug-2025 
 ******************************************
 %chk=ethyl_propiolate.chk
 %nprocshared=24
 Will use up to   24 processors via shared memory.
 %mem=12GB
 --------------------------
 # ccsd(t)/6-311++g(d,p) sp
 --------------------------
 1/38=1,172=1/1;
 2/12=2,17=6,18=5,40=1/2;
 3/5=4,6=6,7=1111,11=9,25=1,30=1/1,2,3;
 4//1;
 5/5=2,38=5/2;
 8/6=4,9=120000,10=2/1,4;
 9/5=7,14=2/13;
 6/7=2,8=2,9=2,10=2/1;
 99/5=1,9=1/99;
 -------------------
 Title Card Required
 -------------------
 Symbolic Z-matrix:
 Charge =  0 Multiplicity = 2
 O                     2.34439   1.68411  -0.32851 
 H                     1.52764   1.77305   0.19769 
 C                    -3.31751   0.18928  -0.51625 
 H                    -4.33345   0.26164  -0.82763 
 C                    -2.17534   0.10736  -0.16514 
 C                    -0.79046   0.06014   0.27301 
 O                    -0.22883   0.9869    0.79832 
 O                    -0.24579  -1.12527   0.02725 
 C                     1.12224  -1.32101   0.44332 
 C                     2.09984  -0.82766  -0.59413 
 H                     1.2006   -2.40057   0.56759 
 H                     1.27326  -0.83591   1.40885 
 H                     3.10593  -1.19251  -0.38462 
 H                     1.79893  -1.10126  -1.60585 
 H                     2.2015    0.29796  -0.5869 
 
                          Input orientation:                          
 ---------------------------------------------------------------------
 Center     Atomic      Atomic             Coordinates (Angstroms)
 Number     Number       Type             X           Y           Z
 ---------------------------------------------------------------------
      1          8           0        2.344392    1.684106   -0.328506
      2          1           0        1.527641    1.773054    0.197688
      3          6           0       -3.317508    0.189276   -0.516248
      4          1           0       -4.333448    0.261643   -0.827634
      5          6           0       -2.175335    0.107361   -0.165136
      6          6           0       -0.790455    0.060144    0.273009
      7          8           0       -0.228829    0.986895    0.798318
      8          8           0       -0.245788   -1.125274    0.027253
      9          6           0        1.122238   -1.321005    0.443322
     10          6           0        2.099844   -0.827663   -0.594129
     11          1           0        1.200596   -2.400569    0.567591
     12          1           0        1.273263   -0.835910    1.408851
     13          1           0        3.105927   -1.192509   -0.384623
     14          1           0        1.798926   -1.101255   -1.605854
     15          1           0        2.201502    0.297958   -0.586904
 ---------------------------------------------------------------------
                    Distance matrix (angstroms):
                    1          2          3          4          5
     1  O    0.000000
     2  H    0.975640   0.000000
     3  C    5.858914   5.147186   0.000000
     4  H    6.845880   6.139056   1.065050   0.000000
     5  C    4.789650   4.076543   1.197727   2.262777   0.000000
     6  C    3.581388   2.883280   2.650585   3.715483   1.453304
     7  O    2.894357   2.015934   3.450249   4.474104   2.343226
     8  O    3.837735   3.402118   3.385100   4.400379   2.297728
     9  C    3.334677   3.130158   4.786760   5.821049   3.644782
    10  C    2.537586   2.778150   5.512525   6.529040   4.397211
    11  H    4.335416   4.202727   5.319330   6.297592   4.268901
    12  H    3.242870   2.887614   5.082538   6.135283   3.906408
    13  H    2.976239   3.409492   6.571695   7.593097   5.443305
    14  H    3.112457   3.404117   5.388006   6.330018   4.396723
    15  H    1.417249   1.801550   5.520532   6.539483   4.401240
                    6          7          8          9         10
     6  C    0.000000
     7  O    1.204259   0.000000
     8  O    1.327507   2.248574   0.000000
     9  C    2.365370   2.697741   1.443232   0.000000
    10  C    3.145466   3.264084   2.444724   1.508444   0.000000
    11  H    3.179020   3.683939   2.002591   1.089514   2.152272
    12  H    2.520314   2.439600   2.073659   1.091042   2.166849
    13  H    4.145288   4.155689   3.377596   2.153376   1.090508
    14  H    3.403508   3.775209   2.616958   2.169175   1.090409
    15  H    3.122149   2.880969   2.896896   2.201640   1.130225
                   11         12         13         14         15
    11  H    0.000000
    12  H    1.777964   0.000000
    13  H    2.448756   2.588893   0.000000
    14  H    2.601938   3.071673   1.791085   0.000000
    15  H    3.101084   2.475949   1.755105   1.777111   0.000000
 Stoichiometry    C5H7O3(2)
 Framework group  C1[X(C5H7O3)]
 Deg. of freedom    39
 Full point group                 C1      NOp   1
 Largest Abelian subgroup         C1      NOp   1
 Largest concise Abelian subgroup C1      NOp   1
                         Standard orientation:                         
 ---------------------------------------------------------------------
 Center     Atomic      Atomic             Coordinates (Angstroms)
 Number     Number       Type             X           Y           Z
 ---------------------------------------------------------------------
      1          8           0        2.288136    1.710887   -0.321856
      2          1           0        1.471280    1.800393    0.204079
      3          6           0       -3.372771    0.211978   -0.507003
      4          1           0       -4.388730    0.283036   -0.818630
      5          6           0       -2.230576    0.131536   -0.155620
      6          6           0       -0.845706    0.086131    0.282745
      7          8           0       -0.284732    1.014336    0.806181
      8          8           0       -0.300243   -1.099438    0.039497
      9          6           0        1.067872   -1.293413    0.456093
     10          6           0        2.045250   -0.801586   -0.582291
     11          1           0        1.146923   -2.372666    0.582608
     12          1           0        1.218493   -0.806218    1.420628
     13          1           0        3.051552   -1.165341   -0.371939
     14          1           0        1.744603   -1.077472   -1.593474
     15          1           0        2.146174    0.324113   -0.577392
 ---------------------------------------------------------------------
 Rotational constants (GHZ):           3.3165817           1.1874670           0.9722636
 Standard basis: 6-311++G(d,p) (5D, 7F)
 There are   233 symmetry adapted cartesian basis functions of A   symmetry.
 There are   225 symmetry adapted basis functions of A   symmetry.
   225 basis functions,   351 primitive gaussians,   233 cartesian basis functions
    31 alpha electrons       30 beta electrons
       nuclear repulsion energy       353.2039911076 Hartrees.
 NAtoms=   15 NActive=   15 NUniq=   15 SFac= 1.00D+00 NAtFMM=   60 NAOKFM=F Big=F
 Integral buffers will be    131072 words long.
 Raffenetti 2 integral format.
 Two-electron integral symmetry is turned on.
 One-electron integrals computed using PRISM.
 NBasis=   225 RedAO= T EigKep=  7.23D-06  NBF=   225
 NBsUse=   224 1.00D-06 EigRej=  7.36D-07 NBFU=   224
 ExpMin= 3.60D-02 ExpMax= 8.59D+03 ExpMxC= 1.30D+03 IAcc=3 IRadAn=         5 AccDes= 0.00D+00
 Harris functional with IExCor=  205 and IRadAn=       5 diagonalized for initial guess.
 HarFok:  IExCor=  205 AccDes= 0.00D+00 IRadAn=         5 IDoV= 1 UseB2=F ITyADJ=14
 ICtDFT=  3500011 ScaDFX=  1.000000  1.000000  1.000000  1.000000
 FoFCou: FMM=F IPFlag=           0 FMFlag=      100000 FMFlg1=           0
         NFxFlg=           0 DoJE=T BraDBF=F KetDBF=T FulRan=T
         wScrn=  0.000000 ICntrl=       500 IOpCl=  0 I1Cent=   200000004 NGrid=           0
         NMat0=    1 NMatS0=      1 NMatT0=    0 NMatD0=    1 NMtDS0=    0 NMtDT0=    0
 Petite list used in FoFCou.
 Initial guess <Sx>= 0.0000 <Sy>= 0.0000 <Sz>= 0.5000 <S**2>= 0.7500 S= 0.5000
 Requested convergence on RMS density matrix=1.00D-08 within 128 cycles.
 Requested convergence on MAX density matrix=1.00D-06.
 Requested convergence on             energy=1.00D-06.
 No special actions if energy rises.
 Initial convergence to 1.0D-05 achieved.  Increase integral accuracy.
 Restarting incremental Fock formation.
 SCF Done:  E(UHF) =  -417.977681391     A.U. after   34 cycles
            NFock= 34  Conv=0.41D-08     -V/T= 2.0006
 <Sx>= 0.0000 <Sy>= 0.0000 <Sz>= 0.5000 <S**2>= 0.7667 S= 0.5083
 <L.S>=  0.00000000000    
 Annihilation of the first spin contaminant:
 S**2 before annihilation     0.7667,   after     0.7502
 ExpMin= 3.60D-02 ExpMax= 8.59D+03 ExpMxC= 1.30D+03 IAcc=3 IRadAn=         5 AccDes= 0.00D+00
 HarFok:  IExCor=  205 AccDes= 0.00D+00 IRadAn=         5 IDoV=-2 UseB2=F ITyADJ=14
 ICtDFT= 12500011 ScaDFX=  1.000000  1.000000  1.000000  1.000000
 Range of M.O.s used for correlation:     9   224
 NBasis=   225 NAE=    31 NBE=    30 NFC=     8 NFV=     0
 NROrb=    216 NOA=    23 NOB=    22 NVA=   193 NVB=   194

 **** Warning!!: The largest alpha MO coefficient is  0.10636982D+03


 **** Warning!!: The largest beta MO coefficient is  0.10808727D+03

 Semi-Direct transformation.
 ModeAB=           4 MOrb=            23 LenV=    1609184726
 LASXX=    107793295 LTotXX=   107793295 LenRXX=   218294035
 LTotAB=   110500740 MaxLAS=   127757088 LenRXY=           0
 NonZer=   326087330 LenScr=   491049984 LnRSAI=   127757088
 LnScr1=   192388096 LExtra=           0 Total=   1029489203
 MaxDsk=          -1 SrtSym=           T ITran=            4
 JobTyp=1 Pass  1:  I=   1 to  23.
 (rs|ai) integrals will be sorted in core.
 ModeAB=           4 MOrb=            22 LenV=    1609184726
 LASXX=    103454307 LTotXX=   103454307 LenRXX=   188091948
 LTotAB=    84637641 MaxLAS=   122202432 LenRXY=           0
 NonZer=   291546255 LenScr=   439034880 LnRSAI=   122202432
 LnScr1=   184078848 LExtra=           0 Total=    933408108
 MaxDsk=          -1 SrtSym=           T ITran=            4
 JobTyp=2 Pass  1:  I=   1 to  22.
 (rs|ai) integrals will be sorted in core.
 SymMOI:  orbitals are not symmetric.
 Spin components of T(2) and E(2):
     alpha-alpha T2 =       0.5287820800D-01 E2=     -0.1712183612D+00
     alpha-beta  T2 =       0.2898603663D+00 E2=     -0.9427240518D+00
     beta-beta   T2 =       0.5099088732D-01 E2=     -0.1580779087D+00
 ANorm=    0.1180563197D+01
 E2 =    -0.1272020322D+01 EUMP2 =    -0.41924970171322D+03
 (S**2,0)=  0.76669D+00           (S**2,1)=  0.75496D+00
 E(PUHF)=      -0.41798264363D+03        E(PMP2)=      -0.41925293149D+03
 Keep R2 and R3 ints in memory in canonical form, NReq=652883968.
 CIDS: In Core Option IDoMem=           1.
 Iterations=  50 Convergence= 0.100D-06
 Produce multiple copies of IABC intergrals
 Iteration Nr.   1
 **********************
 DD1Dir will call FoFMem   1 times, MxPair=      1496
 NAB=   506 NAA=   253 NBB=   231.
 E(PMP3)=      -0.41927650783D+03
 MP4(R+Q)=  0.25610695D-01
 E3=       -0.24840462D-01        EUMP3=      -0.41927454218D+03
 E4(DQ)=   -0.52790770D-02        UMP4(DQ)=   -0.41927982125D+03
 E4(SDQ)=  -0.24452700D-01        UMP4(SDQ)=  -0.41929899488D+03
 DE(Corr)=  -1.2705491     E(Corr)=     -419.24823045    
 NORM(A)=   0.11859010D+01
 Iteration Nr.   2
 **********************
 DD1Dir will call FoFMem   1 times, MxPair=      1496
 NAB=   506 NAA=   253 NBB=   231.
 DE(Corr)=  -1.3129806     E(CORR)=     -419.29066202     Delta=-4.24D-02
 NORM(A)=   0.12036432D+01
 Iteration Nr.   3
 **********************
 DD1Dir will call FoFMem   1 times, MxPair=      1496
 NAB=   506 NAA=   253 NBB=   231.
 DE(Corr)=  -1.3143390     E(CORR)=     -419.29202038     Delta=-1.36D-03
 NORM(A)=   0.12099410D+01
 Iteration Nr.   4
 **********************
 DD1Dir will call FoFMem   1 times, MxPair=      1496
 NAB=   506 NAA=   253 NBB=   231.
 DE(Corr)=  -1.3192850     E(CORR)=     -419.29696635     Delta=-4.95D-03
 NORM(A)=   0.12126191D+01
 Iteration Nr.   5
 **********************
 DD1Dir will call FoFMem   1 times, MxPair=      1496
 NAB=   506 NAA=   253 NBB=   231.
 DE(Corr)=  -1.3201477     E(CORR)=     -419.29782909     Delta=-8.63D-04
 NORM(A)=   0.12140518D+01
 Iteration Nr.   6
 **********************
 DD1Dir will call FoFMem   1 times, MxPair=      1496
 NAB=   506 NAA=   253 NBB=   231.
 DE(Corr)=  -1.3203881     E(CORR)=     -419.29806951     Delta=-2.40D-04
 NORM(A)=   0.12143732D+01
 Iteration Nr.   7
 **********************
 DD1Dir will call FoFMem   1 times, MxPair=      1496
 NAB=   506 NAA=   253 NBB=   231.
 DE(Corr)=  -1.3204410     E(CORR)=     -419.29812244     Delta=-5.29D-05
 NORM(A)=   0.12144539D+01
 Iteration Nr.   8
 **********************
 DD1Dir will call FoFMem   1 times, MxPair=      1496
 NAB=   506 NAA=   253 NBB=   231.
 DE(Corr)=  -1.3204261     E(CORR)=     -419.29810744     Delta= 1.50D-05
 NORM(A)=   0.12144971D+01
 Iteration Nr.   9
 **********************
 DD1Dir will call FoFMem   1 times, MxPair=      1496
 NAB=   506 NAA=   253 NBB=   231.
 DE(Corr)=  -1.3204409     E(CORR)=     -419.29812226     Delta=-1.48D-05
 NORM(A)=   0.12145069D+01
 Iteration Nr.  10
 **********************
 DD1Dir will call FoFMem   1 times, MxPair=      1496
 NAB=   506 NAA=   253 NBB=   231.
 DE(Corr)=  -1.3204404     E(CORR)=     -419.29812175     Delta= 5.05D-07
 NORM(A)=   0.12145185D+01
 Iteration Nr.  11
 **********************
 DD1Dir will call FoFMem   1 times, MxPair=      1496
 NAB=   506 NAA=   253 NBB=   231.
 DE(Corr)=  -1.3204509     E(CORR)=     -419.29813230     Delta=-1.05D-05
 NORM(A)=   0.12145284D+01
 Iteration Nr.  12
 **********************
 DD1Dir will call FoFMem   1 times, MxPair=      1496
 NAB=   506 NAA=   253 NBB=   231.
 DE(Corr)=  -1.3204514     E(CORR)=     -419.29813278     Delta=-4.79D-07
 NORM(A)=   0.12145366D+01
 Iteration Nr.  13
 **********************
 DD1Dir will call FoFMem   1 times, MxPair=      1496
 NAB=   506 NAA=   253 NBB=   231.
 DE(Corr)=  -1.3204543     E(CORR)=     -419.29813568     Delta=-2.90D-06
 NORM(A)=   0.12145426D+01
 Iteration Nr.  14
 **********************
 DD1Dir will call FoFMem   1 times, MxPair=      1496
 NAB=   506 NAA=   253 NBB=   231.
 DE(Corr)=  -1.3204554     E(CORR)=     -419.29813675     Delta=-1.07D-06
 NORM(A)=   0.12145478D+01
 Iteration Nr.  15
 **********************
 DD1Dir will call FoFMem   1 times, MxPair=      1496
 NAB=   506 NAA=   253 NBB=   231.
 DE(Corr)=  -1.3204556     E(CORR)=     -419.29813701     Delta=-2.61D-07
 NORM(A)=   0.12145535D+01
 Iteration Nr.  16
 **********************
 DD1Dir will call FoFMem   1 times, MxPair=      1496
 NAB=   506 NAA=   253 NBB=   231.
 DE(Corr)=  -1.3204574     E(CORR)=     -419.29813881     Delta=-1.80D-06
 NORM(A)=   0.12145572D+01
 Iteration Nr.  17
 **********************
 DD1Dir will call FoFMem   1 times, MxPair=      1496
 NAB=   506 NAA=   253 NBB=   231.
 DE(Corr)=  -1.3204572     E(CORR)=     -419.29813855     Delta= 2.63D-07
 NORM(A)=   0.12145582D+01
 Iteration Nr.  18
 **********************
 DD1Dir will call FoFMem   1 times, MxPair=      1496
 NAB=   506 NAA=   253 NBB=   231.
 DE(Corr)=  -1.3204580     E(CORR)=     -419.29813941     Delta=-8.57D-07
 NORM(A)=   0.12145565D+01
 Iteration Nr.  19
 **********************
 DD1Dir will call FoFMem   1 times, MxPair=      1496
 NAB=   506 NAA=   253 NBB=   231.
 DE(Corr)=  -1.3204574     E(CORR)=     -419.29813876     Delta= 6.48D-07
 NORM(A)=   0.12145546D+01
 Iteration Nr.  20
 **********************
 DD1Dir will call FoFMem   1 times, MxPair=      1496
 NAB=   506 NAA=   253 NBB=   231.
 DE(Corr)=  -1.3204570     E(CORR)=     -419.29813835     Delta= 4.08D-07
 NORM(A)=   0.12145530D+01
 Iteration Nr.  21
 **********************
 DD1Dir will call FoFMem   1 times, MxPair=      1496
 NAB=   506 NAA=   253 NBB=   231.
 DE(Corr)=  -1.3204566     E(CORR)=     -419.29813801     Delta= 3.41D-07
 NORM(A)=   0.12145522D+01
 Iteration Nr.  22
 **********************
 DD1Dir will call FoFMem   1 times, MxPair=      1496
 NAB=   506 NAA=   253 NBB=   231.
 DE(Corr)=  -1.3204563     E(CORR)=     -419.29813772     Delta= 2.93D-07
 NORM(A)=   0.12145520D+01
 Iteration Nr.  23
 **********************
 DD1Dir will call FoFMem   1 times, MxPair=      1496
 NAB=   506 NAA=   253 NBB=   231.
 DE(Corr)=  -1.3204563     E(CORR)=     -419.29813773     Delta=-1.56D-08
 NORM(A)=   0.12145522D+01
 Wavefunction amplitudes converged. E(Corr)=     -419.29813773    
 Largest amplitude= 4.34D-02
 Time for triples=    35244.64 seconds.
 T4(CCSD)= -0.57129872D-01
 T5(CCSD)=  0.36016587D-02
 CCSD(T)= -0.41935166595D+03

 S**2, projected HF & approx projected MPn energies after annihilation of
 unwanted spin states (see manual for definitions):

 spins       (S**2,0) (S**2,1)    PUHF        PMP2        PMP3        PMP4
 annihilated
 s+1         0.74990  0.75004 -417.982644 -419.252931 -419.276508
 s+1,s+2     0.75000  0.75000 -417.982618 -419.252908 -419.276488
 s+1 to s+3  0.75000  0.75000 -417.982618 -419.252908 -419.276488
 s+1 to s+4  0.75000  0.75000 -417.982618 -419.252909 -419.276488
 s+1 to s+5  0.75000  0.75000 -417.982618
 s+1 to s+6  0.75000  0.75000 -417.982618

 Discarding MO integrals.

 **********************************************************************

            Population analysis using the SCF density.

 **********************************************************************

 Orbital symmetries:
 Alpha Orbitals:
       Occupied  (A) (A) (A) (A) (A) (A) (A) (A) (A) (A) (A) (A)
                 (A) (A) (A) (A) (A) (A) (A) (A) (A) (A) (A) (A)
                 (A) (A) (A) (A) (A) (A) (A)
       Virtual   (A) (A) (A) (A) (A) (A) (A) (A) (A) (A) (A) (A)
                 (A) (A) (A) (A) (A) (A) (A) (A) (A) (A) (A) (A)
                 (A) (A) (A) (A) (A) (A) (A) (A) (A) (A) (A) (A)
                 (A) (A) (A) (A) (A) (A) (A) (A) (A) (A) (A) (A)
                 (A) (A) (A) (A) (A) (A) (A) (A) (A) (A) (A) (A)
                 (A) (A) (A) (A) (A) (A) (A) (A) (A) (A) (A) (A)
                 (A) (A) (A) (A) (A) (A) (A) (A) (A) (A) (A) (A)
                 (A) (A) (A) (A) (A) (A) (A) (A) (A) (A) (A) (A)
                 (A) (A) (A) (A) (A) (A) (A) (A) (A) (A) (A) (A)
                 (A) (A) (A) (A) (A) (A) (A) (A) (A) (A) (A) (A)
                 (A) (A) (A) (A) (A) (A) (A) (A) (A) (A) (A) (A)
                 (A) (A) (A) (A) (A) (A) (A) (A) (A) (A) (A) (A)
                 (A) (A) (A) (A) (A) (A) (A) (A) (A) (A) (A) (A)
                 (A) (A) (A) (A) (A) (A) (A) (A) (A) (A) (A) (A)
                 (A) (A) (A) (A) (A) (A) (A) (A) (A) (A) (A) (A)
                 (A) (A) (A) (A) (A) (A) (A) (A) (A) (A) (A) (A)
                 (A)
 Beta  Orbitals:
       Occupied  (A) (A) (A) (A) (A) (A) (A) (A) (A) (A) (A) (A)
                 (A) (A) (A) (A) (A) (A) (A) (A) (A) (A) (A) (A)
                 (A) (A) (A) (A) (A) (A)
       Virtual   (A) (A) (A) (A) (A) (A) (A) (A) (A) (A) (A) (A)
                 (A) (A) (A) (A) (A) (A) (A) (A) (A) (A) (A) (A)
                 (A) (A) (A) (A) (A) (A) (A) (A) (A) (A) (A) (A)
                 (A) (A) (A) (A) (A) (A) (A) (A) (A) (A) (A) (A)
                 (A) (A) (A) (A) (A) (A) (A) (A) (A) (A) (A) (A)
                 (A) (A) (A) (A) (A) (A) (A) (A) (A) (A) (A) (A)
                 (A) (A) (A) (A) (A) (A) (A) (A) (A) (A) (A) (A)
                 (A) (A) (A) (A) (A) (A) (A) (A) (A) (A) (A) (A)
                 (A) (A) (A) (A) (A) (A) (A) (A) (A) (A) (A) (A)
                 (A) (A) (A) (A) (A) (A) (A) (A) (A) (A) (A) (A)
                 (A) (A) (A) (A) (A) (A) (A) (A) (A) (A) (A) (A)
                 (A) (A) (A) (A) (A) (A) (A) (A) (A) (A) (A) (A)
                 (A) (A) (A) (A) (A) (A) (A) (A) (A) (A) (A) (A)
                 (A) (A) (A) (A) (A) (A) (A) (A) (A) (A) (A) (A)
                 (A) (A) (A) (A) (A) (A) (A) (A) (A) (A) (A) (A)
                 (A) (A) (A) (A) (A) (A) (A) (A) (A) (A) (A) (A)
                 (A) (A)
 The electronic state is 2-A.
 Alpha  occ. eigenvalues --  -20.62797 -20.61355 -20.57796 -11.43480 -11.30505
 Alpha  occ. eigenvalues --  -11.27692 -11.26858 -11.22814  -1.49866  -1.39787
 Alpha  occ. eigenvalues --   -1.37934  -1.08942  -1.05010  -0.93875  -0.85160
 Alpha  occ. eigenvalues --   -0.77836  -0.73977  -0.72292  -0.70677  -0.68293
 Alpha  occ. eigenvalues --   -0.65384  -0.62702  -0.58359  -0.56525  -0.54620
 Alpha  occ. eigenvalues --   -0.53421  -0.50361  -0.48569  -0.45848  -0.43687
 Alpha  occ. eigenvalues --   -0.43525
 Alpha virt. eigenvalues --    0.03549   0.04495   0.06058   0.06835   0.07418
 Alpha virt. eigenvalues --    0.07679   0.09332   0.10255   0.11095   0.11406
 Alpha virt. eigenvalues --    0.12249   0.13869   0.14265   0.15144   0.16320
 Alpha virt. eigenvalues --    0.17395   0.17848   0.18572   0.18631   0.19292
 Alpha virt. eigenvalues --    0.20594   0.21590   0.21873   0.23220   0.24158
 Alpha virt. eigenvalues --    0.24910   0.25698   0.27322   0.28914   0.30991
 Alpha virt. eigenvalues --    0.31980   0.32826   0.33486   0.34083   0.34571
 Alpha virt. eigenvalues --    0.35552   0.36123   0.37283   0.38251   0.39806
 Alpha virt. eigenvalues --    0.40608   0.41008   0.42035   0.42606   0.45446
 Alpha virt. eigenvalues --    0.45652   0.47235   0.49036   0.50610   0.52723
 Alpha virt. eigenvalues --    0.53688   0.57674   0.59944   0.60849   0.61884
 Alpha virt. eigenvalues --    0.64683   0.67269   0.70634   0.70884   0.74680
 Alpha virt. eigenvalues --    0.75114   0.78064   0.81141   0.82886   0.84029
 Alpha virt. eigenvalues --    0.85489   0.86429   0.87863   0.89190   0.89943
 Alpha virt. eigenvalues --    0.91526   0.92700   0.94968   0.96695   1.00508
 Alpha virt. eigenvalues --    1.04587   1.09108   1.15387   1.22618   1.23556
 Alpha virt. eigenvalues --    1.25479   1.27446   1.28811   1.29753   1.32099
 Alpha virt. eigenvalues --    1.34013   1.35841   1.36946   1.38775   1.39368
 Alpha virt. eigenvalues --    1.41099   1.42427   1.48096   1.50793   1.53679
 Alpha virt. eigenvalues --    1.55466   1.56324   1.58925   1.63427   1.63862
 Alpha virt. eigenvalues --    1.68016   1.70707   1.75122   1.77560   1.82601
 Alpha virt. eigenvalues --    1.83596   1.84044   1.85784   1.87171   1.89962
 Alpha virt. eigenvalues --    1.90910   1.92173   1.94451   1.95981   2.03107
 Alpha virt. eigenvalues --    2.05234   2.08287   2.08758   2.10168   2.17065
 Alpha virt. eigenvalues --    2.21619   2.26736   2.29168   2.32807   2.37833
 Alpha virt. eigenvalues --    2.41439   2.44972   2.49441   2.57331   2.61692
 Alpha virt. eigenvalues --    2.69202   2.71588   2.78420   2.82855   2.84797
 Alpha virt. eigenvalues --    2.89784   2.90723   2.92520   2.93232   2.95604
 Alpha virt. eigenvalues --    2.97878   2.99191   3.02879   3.06546   3.11299
 Alpha virt. eigenvalues --    3.14010   3.15925   3.19722   3.22716   3.25571
 Alpha virt. eigenvalues --    3.29762   3.33273   3.36257   3.38726   3.43029
 Alpha virt. eigenvalues --    3.46763   3.48897   3.50147   3.54110   3.58546
 Alpha virt. eigenvalues --    3.64444   3.67251   3.70472   3.75751   3.78514
 Alpha virt. eigenvalues --    3.92103   3.99607   4.08276   4.13533   4.22103
 Alpha virt. eigenvalues --    4.29597   4.32433   4.42500   4.49995   4.55307
 Alpha virt. eigenvalues --    4.69769   5.50700   5.57194   5.62995   5.72202
 Alpha virt. eigenvalues --    5.76470   5.89955   6.04566   6.21202   6.43831
 Alpha virt. eigenvalues --   24.68054  24.99126  25.01472  25.15112  26.28652
 Alpha virt. eigenvalues --   51.54069  51.58205  51.69700
  Beta  occ. eigenvalues --  -20.62796 -20.57806 -20.57436 -11.43482 -11.30558
  Beta  occ. eigenvalues --  -11.27694 -11.26857 -11.22094  -1.49867  -1.39762
  Beta  occ. eigenvalues --   -1.23480  -1.08800  -1.04300  -0.92952  -0.84433
  Beta  occ. eigenvalues --   -0.77783  -0.73926  -0.71797  -0.68471  -0.63871
  Beta  occ. eigenvalues --   -0.62563  -0.58565  -0.56317  -0.54174  -0.50914
  Beta  occ. eigenvalues --   -0.49824  -0.49023  -0.47585  -0.43674  -0.43520
  Beta virt. eigenvalues --    0.03551   0.04503   0.06002   0.06397   0.07251
  Beta virt. eigenvalues --    0.07434   0.08059   0.10079   0.10948   0.11126
  Beta virt. eigenvalues --    0.12119   0.12507   0.13939   0.14268   0.15379
  Beta virt. eigenvalues --    0.16473   0.17397   0.17886   0.18594   0.18857
  Beta virt. eigenvalues --    0.19347   0.20730   0.21691   0.21889   0.23279
  Beta virt. eigenvalues --    0.24203   0.25005   0.25741   0.27413   0.29296
  Beta virt. eigenvalues --    0.31384   0.32399   0.32971   0.33931   0.34547
  Beta virt. eigenvalues --    0.34990   0.35818   0.36281   0.37546   0.38323
  Beta virt. eigenvalues --    0.40346   0.40821   0.41144   0.42241   0.43272
  Beta virt. eigenvalues --    0.45571   0.45852   0.47352   0.49827   0.51213
  Beta virt. eigenvalues --    0.53109   0.56249   0.57764   0.60342   0.60972
  Beta virt. eigenvalues --    0.62217   0.64897   0.67524   0.70659   0.70899
  Beta virt. eigenvalues --    0.74772   0.75538   0.78449   0.81247   0.83038
  Beta virt. eigenvalues --    0.84232   0.85642   0.87655   0.88190   0.89478
  Beta virt. eigenvalues --    0.90232   0.91583   0.93249   0.95216   0.96947
  Beta virt. eigenvalues --    1.00541   1.04698   1.09171   1.15944   1.22891
  Beta virt. eigenvalues --    1.24122   1.26443   1.27901   1.29090   1.30905
  Beta virt. eigenvalues --    1.33893   1.35607   1.36180   1.38064   1.39419
  Beta virt. eigenvalues --    1.40852   1.42037   1.45324   1.48175   1.51053
  Beta virt. eigenvalues --    1.54376   1.55496   1.56453   1.59105   1.63532
  Beta virt. eigenvalues --    1.63894   1.68455   1.72343   1.76116   1.78998
  Beta virt. eigenvalues --    1.82801   1.83646   1.84688   1.86132   1.87302
  Beta virt. eigenvalues --    1.90047   1.90959   1.92352   1.95044   1.96345
  Beta virt. eigenvalues --    2.04384   2.05386   2.08547   2.08902   2.10447
  Beta virt. eigenvalues --    2.17099   2.21743   2.26865   2.29504   2.32927
  Beta virt. eigenvalues --    2.38133   2.43046   2.45537   2.50087   2.58355
  Beta virt. eigenvalues --    2.62128   2.70534   2.73091   2.78481   2.82996
  Beta virt. eigenvalues --    2.84924   2.89677   2.90749   2.92536   2.93451
  Beta virt. eigenvalues --    2.95859   2.97945   2.99127   3.03169   3.06835
  Beta virt. eigenvalues --    3.11367   3.14019   3.15994   3.22533   3.25324
  Beta virt. eigenvalues --    3.29798   3.30324   3.33520   3.36269   3.38737
  Beta virt. eigenvalues --    3.43220   3.47693   3.50917   3.53749   3.57307
  Beta virt. eigenvalues --    3.59868   3.64643   3.67720   3.70829   3.76856
  Beta virt. eigenvalues --    3.82704   3.92202   3.99647   4.08391   4.15073
  Beta virt. eigenvalues --    4.22402   4.29910   4.35441   4.43701   4.50068
  Beta virt. eigenvalues --    4.55324   4.70490   5.53037   5.57460   5.63054
  Beta virt. eigenvalues --    5.76231   5.83122   5.89991   6.07017   6.21321
  Beta virt. eigenvalues --    6.43853  24.68054  24.99125  25.01458  25.15620
  Beta virt. eigenvalues --   26.28652  51.56319  51.58205  51.69699
          Condensed to atoms (all electrons):
               1          2          3          4          5          6
     1  O    8.099821   0.291579   0.003079   0.000098  -0.008443   0.017361
     2  H    0.291579   0.407695  -0.005336  -0.000194   0.020875  -0.018599
     3  C    0.003079  -0.005336   6.412819   0.496382  -1.578503   1.526384
     4  H    0.000098  -0.000194   0.496382   0.405992  -0.157946   0.059881
     5  C   -0.008443   0.020875  -1.578503  -0.157946  10.027781  -3.299396
     6  C    0.017361  -0.018599   1.526384   0.059881  -3.299396   7.899731
     7  O   -0.003548   0.006376  -0.092497  -0.003063   0.087606   0.358412
     8  O   -0.004319   0.000770  -0.096995  -0.005433  -0.163400   0.190556
     9  C   -0.023360   0.029130   0.051513  -0.000388  -0.307286   0.013192
    10  C    0.017293  -0.003907  -0.024379  -0.000876   0.042383  -0.067066
    11  H   -0.000361   0.001396  -0.000208  -0.000007   0.001977  -0.014609
    12  H   -0.003229  -0.004405   0.002762   0.000007  -0.016160   0.012131
    13  H   -0.004988   0.001682   0.000027  -0.000004  -0.002095   0.002097
    14  H    0.002542  -0.000031  -0.002882  -0.000154   0.013545  -0.003811
    15  H   -0.100640  -0.017953   0.009675   0.000298  -0.039794   0.013031
               7          8          9         10         11         12
     1  O   -0.003548  -0.004319  -0.023360   0.017293  -0.000361  -0.003229
     2  H    0.006376   0.000770   0.029130  -0.003907   0.001396  -0.004405
     3  C   -0.092497  -0.096995   0.051513  -0.024379  -0.000208   0.002762
     4  H   -0.003063  -0.005433  -0.000388  -0.000876  -0.000007   0.000007
     5  C    0.087606  -0.163400  -0.307286   0.042383   0.001977  -0.016160
     6  C    0.358412   0.190556   0.013192  -0.067066  -0.014609   0.012131
     7  O    8.127164  -0.113559   0.063290  -0.061746   0.004515  -0.024271
     8  O   -0.113559   8.225044   0.210153  -0.084889  -0.088422  -0.011078
     9  C    0.063290   0.210153   5.648890  -0.146492   0.468752   0.412545
    10  C   -0.061746  -0.084889  -0.146492   5.682220  -0.068381  -0.036894
    11  H    0.004515  -0.088422   0.468752  -0.068381   0.575216  -0.047265
    12  H   -0.024271  -0.011078   0.412545  -0.036894  -0.047265   0.524853
    13  H   -0.001369   0.013450  -0.019891   0.396667   0.001381  -0.005966
    14  H    0.000260  -0.002710  -0.054759   0.416441  -0.011244   0.005697
    15  H    0.005196  -0.012278  -0.055962   0.359286   0.014717  -0.013530
              13         14         15
     1  O   -0.004988   0.002542  -0.100640
     2  H    0.001682  -0.000031  -0.017953
     3  C    0.000027  -0.002882   0.009675
     4  H   -0.000004  -0.000154   0.000298
     5  C   -0.002095   0.013545  -0.039794
     6  C    0.002097  -0.003811   0.013031
     7  O   -0.001369   0.000260   0.005196
     8  O    0.013450  -0.002710  -0.012278
     9  C   -0.019891  -0.054759  -0.055962
    10  C    0.396667   0.416441   0.359286
    11  H    0.001381  -0.011244   0.014717
    12  H   -0.005966   0.005697  -0.013530
    13  H    0.547434  -0.033489  -0.032373
    14  H   -0.033489   0.566999  -0.060332
    15  H   -0.032373  -0.060332   0.681891
          Atomic-Atomic Spin Densities.
               1          2          3          4          5          6
     1  O    0.928453  -0.006435  -0.000248  -0.000022  -0.001433  -0.011305
     2  H   -0.006435  -0.026373   0.000733   0.000011  -0.002079   0.004203
     3  C   -0.000248   0.000733   0.002236  -0.000188  -0.005938   0.005800
     4  H   -0.000022   0.000011  -0.000188  -0.000400  -0.000238   0.000693
     5  C   -0.001433  -0.002079  -0.005938  -0.000238  -0.017207   0.002671
     6  C   -0.011305   0.004203   0.005800   0.000693   0.002671  -0.004482
     7  O    0.003469  -0.000241  -0.001781  -0.000061   0.005995  -0.003519
     8  O    0.000781  -0.000773   0.000489   0.000009  -0.003763  -0.003102
     9  C    0.030220  -0.006643   0.001360   0.000363   0.013181   0.009878
    10  C   -0.051029   0.005588  -0.004603  -0.000156   0.008602  -0.022148
    11  H    0.001032   0.000092  -0.000109   0.000040   0.002811   0.005786
    12  H   -0.002082   0.000446   0.000269  -0.000036  -0.004044  -0.004797
    13  H    0.004902  -0.001004  -0.000127  -0.000001   0.000419  -0.002807
    14  H   -0.000468  -0.000540   0.000696  -0.000009  -0.003958  -0.000297
    15  H    0.005026   0.010586  -0.000164   0.000038   0.009828   0.028321
               7          8          9         10         11         12
     1  O    0.003469   0.000781   0.030220  -0.051029   0.001032  -0.002082
     2  H   -0.000241  -0.000773  -0.006643   0.005588   0.000092   0.000446
     3  C   -0.001781   0.000489   0.001360  -0.004603  -0.000109   0.000269
     4  H   -0.000061   0.000009   0.000363  -0.000156   0.000040  -0.000036
     5  C    0.005995  -0.003763   0.013181   0.008602   0.002811  -0.004044
     6  C   -0.003519  -0.003102   0.009878  -0.022148   0.005786  -0.004797
     7  O   -0.001842   0.000847  -0.002205   0.001600  -0.000302   0.000681
     8  O    0.000847   0.000792   0.010098  -0.007137  -0.000230  -0.000626
     9  C   -0.002205   0.010098  -0.032400  -0.029271  -0.011267   0.017266
    10  C    0.001600  -0.007137  -0.029271   0.357780   0.006414  -0.011037
    11  H   -0.000302  -0.000230  -0.011267   0.006414   0.007598   0.002331
    12  H    0.000681  -0.000626   0.017266  -0.011037   0.002331  -0.001941
    13  H    0.000164   0.000222   0.009906  -0.014304  -0.000152  -0.000264
    14  H    0.000357  -0.000266   0.010969  -0.027738   0.000450  -0.000821
    15  H   -0.006468   0.002826  -0.064539   0.058658  -0.006199   0.009576
              13         14         15
     1  O    0.004902  -0.000468   0.005026
     2  H   -0.001004  -0.000540   0.010586
     3  C   -0.000127   0.000696  -0.000164
     4  H   -0.000001  -0.000009   0.000038
     5  C    0.000419  -0.003958   0.009828
     6  C   -0.002807  -0.000297   0.028321
     7  O    0.000164   0.000357  -0.006468
     8  O    0.000222  -0.000266   0.002826
     9  C    0.009906   0.010969  -0.064539
    10  C   -0.014304  -0.027738   0.058658
    11  H   -0.000152   0.000450  -0.006199
    12  H   -0.000264  -0.000821   0.009576
    13  H   -0.010701   0.000875  -0.002616
    14  H    0.000875  -0.008515   0.018748
    15  H   -0.002616   0.018748  -0.162472
 Mulliken charges and spin densities:
               1          2
     1  O   -0.282884   0.900864
     2  H    0.290923  -0.022430
     3  C   -0.701842  -0.001575
     4  H    0.205407   0.000043
     5  C    1.378855   0.004847
     6  C   -0.689294   0.004893
     7  O   -0.352765  -0.003306
     8  O   -0.056889   0.000167
     9  C   -0.289325  -0.043084
    10  C   -0.419662   0.271219
    11  H    0.162543   0.008295
    12  H    0.204802   0.004919
    13  H    0.137437  -0.015486
    14  H    0.163928  -0.010517
    15  H    0.248766  -0.098850
 Sum of Mulliken charges =  -0.00000   1.00000
 Mulliken charges and spin densities with hydrogens summed into heavy atoms:
               1          2
     1  O    0.008040   0.878434
     3  C   -0.496435  -0.001531
     5  C    1.378855   0.004847
     6  C   -0.689294   0.004893
     7  O   -0.352765  -0.003306
     8  O   -0.056889   0.000167
     9  C    0.078019  -0.029870
    10  C    0.130468   0.146366
 Electronic spatial extent (au):  <R**2>=           1189.0911
 Charge=              0.0000 electrons
 Dipole moment (field-independent basis, Debye):
    X=             -2.0315    Y=             -2.1134    Z=             -0.0016  Tot=              2.9315
 Quadrupole moment (field-independent basis, Debye-Ang):
   XX=            -39.6505   YY=            -50.2434   ZZ=            -48.3181
   XY=             -6.1270   XZ=              4.7125   YZ=             -1.2173
 Traceless Quadrupole moment (field-independent basis, Debye-Ang):
   XX=              6.4202   YY=             -4.1727   ZZ=             -2.2474
   XY=             -6.1270   XZ=              4.7125   YZ=             -1.2173
 Octapole moment (field-independent basis, Debye-Ang**2):
  XXX=            -63.5397  YYY=              2.0328  ZZZ=              3.0637  XYY=              8.6839
  XXY=             -7.8848  XXZ=            -10.2317  XZZ=              3.6886  YZZ=             -1.8734
  YYZ=              4.2136  XYZ=              4.7333
 Hexadecapole moment (field-independent basis, Debye-Ang**3):
 XXXX=           -825.8440 YYYY=           -324.6284 ZZZZ=           -126.1259 XXXY=            -49.8183
 XXXZ=             76.4900 YYYX=              8.5195 YYYZ=              1.7804 ZZZX=             -1.7033
 ZZZY=              0.4630 XXYY=           -265.3777 XXZZ=           -201.7279 YYZZ=            -82.3744
 XXYZ=             -0.8753 YYXZ=              7.5423 ZZXY=              1.7816
 N-N= 3.532039911076D+02 E-N=-1.689042916486D+03  KE= 4.177222818247D+02
 1\1\GINC-AJ\SP\UCCSD(T)-FC\6-311++G(d,p)\C5H7O3(2)\AAYUSH\21-Aug-2025\
 0\\# ccsd(t)/6-311++g(d,p) sp\\Title Card Required\\0,2\O,0,2.344392,1
 .684106,-0.328506\H,0,1.527641,1.773054,0.197688\C,0,-3.317508,0.18927
 6,-0.516248\H,0,-4.333448,0.261643,-0.827634\C,0,-2.175335,0.107361,-0
 .165136\C,0,-0.790455,0.060144,0.273009\O,0,-0.228829,0.986895,0.79831
 8\O,0,-0.245788,-1.125274,0.027253\C,0,1.122238,-1.321005,0.443322\C,0
 ,2.099844,-0.827663,-0.594129\H,0,1.200596,-2.400569,0.567591\H,0,1.27
 3263,-0.83591,1.408851\H,0,3.105927,-1.192509,-0.384623\H,0,1.798926,-
 1.101255,-1.605854\H,0,2.201502,0.297958,-0.586904\\Version=ES64L-G16R
 evA.03\State=2-A\HF=-417.9776814\MP2=-419.2497017\MP3=-419.2745422\MP4
 D=-419.3054319\MP4DQ=-419.2798213\PUHF=-417.9826436\PMP2-0=-419.252931
 5\PMP3-0=-419.2765078\MP4SDQ=-419.2989949\CCSD=-419.2981377\CCSD(T)=-4
 19.3516659\S2=0.766685\S2-1=0.754962\S2A=0.750174\RMSD=4.117e-09\PG=C0
 1 [X(C5H7O3)]\\@


 STEINBACH'S GUIDELINES FOR SYSTEMS PROGRAMMING:
 NEVER TEST FOR AN ERROR CONDITION YOU DON'T KNOW HOW
 TO HANDLE.
 Job cpu time:       0 days 17 hours 37 minutes 52.0 seconds.
 Elapsed time:       0 days  0 hours 44 minutes 16.8 seconds.
 File lengths (MBytes):  RWF=  44258 Int=      0 D2E=      0 Chk=      7 Scr=      1
 Normal termination of Gaussian 16 at Thu Aug 21 14:50:35 2025.
