 Entering Gaussian System, Link 0=g16
 Initial command:
 /opt/g16/l1.exe "/home/aayush/scratches/g16/Gau-27733.inp" -scrdir="/home/aayush/scratches/g16/"
 Entering Link 1 = /opt/g16/l1.exe PID=     27736.
  
 Copyright (c) 1988,1990,1992,1993,1995,1998,2003,2009,2016,
            Gaussian, Inc.  All Rights Reserved.
  
 This is part of the Gaussian(R) 16 program.  It is based on
 the Gaussian(R) 09 system (copyright 2009, Gaussian, Inc.),
 the Gaussian(R) 03 system (copyright 2003, Gaussian, Inc.),
 the Gaussian(R) 98 system (copyright 1998, Gaussian, Inc.),
 the Gaussian(R) 94 system (copyright 1995, Gaussian, Inc.),
 the Gaussian 92(TM) system (copyright 1992, Gaussian, Inc.),
 the Gaussian 90(TM) system (copyright 1990, Gaussian, Inc.),
 the Gaussian 88(TM) system (copyright 1988, Gaussian, Inc.),
 the Gaussian 86(TM) system (copyright 1986, Carnegie Mellon
 University), and the Gaussian 82(TM) system (copyright 1983,
 Carnegie Mellon University). Gaussian is a federally registered
 trademark of Gaussian, Inc.
  
 This software contains proprietary and confidential information,
 including trade secrets, belonging to Gaussian, Inc.
  
 This software is provided under written license and may be
 used, copied, transmitted, or stored only in accord with that
 written license.
  
 The following legend is applicable only to US Government
 contracts under FAR:
  
                    RESTRICTED RIGHTS LEGEND
  
 Use, reproduction and disclosure by the US Government is
 subject to restrictions as set forth in subparagraphs (a)
 and (c) of the Commercial Computer Software - Restricted
 Rights clause in FAR 52.227-19.
  
 Gaussian, Inc.
 340 Quinnipiac St., Bldg. 40, Wallingford CT 06492
  
  
 ---------------------------------------------------------------
 Warning -- This program may not be used in any manner that
 competes with the business of Gaussian, Inc. or will provide
 assistance to any competitor of Gaussian, Inc.  The licensee
 of this program is prohibited from giving any competitor of
 Gaussian, Inc. access to this program.  By using this program,
 the user acknowledges that Gaussian, Inc. is engaged in the
 business of creating and licensing software in the field of
 computational chemistry and represents and warrants to the
 licensee that it is not a competitor of Gaussian, Inc. and that
 it will not use this program in any manner prohibited above.
 ---------------------------------------------------------------
  

 Cite this work as:
 Gaussian 16, Revision A.03,
 M. J. Frisch, G. W. Trucks, H. B. Schlegel, G. E. Scuseria, 
 M. A. Robb, J. R. Cheeseman, G. Scalmani, V. Barone, 
 G. A. Petersson, H. Nakatsuji, X. Li, M. Caricato, A. V. Marenich, 
 J. Bloino, B. G. Janesko, R. Gomperts, B. Mennucci, H. P. Hratchian, 
 J. V. Ortiz, A. F. Izmaylov, J. L. Sonnenberg, D. Williams-Young, 
 F. Ding, F. Lipparini, F. Egidi, J. Goings, B. Peng, A. Petrone, 
 T. Henderson, D. Ranasinghe, V. G. Zakrzewski, J. Gao, N. Rega, 
 G. Zheng, W. Liang, M. Hada, M. Ehara, K. Toyota, R. Fukuda, 
 J. Hasegawa, M. Ishida, T. Nakajima, Y. Honda, O. Kitao, H. Nakai, 
 T. Vreven, K. Throssell, J. A. Montgomery, Jr., J. E. Peralta, 
 F. Ogliaro, M. J. Bearpark, J. J. Heyd, E. N. Brothers, K. N. Kudin, 
 V. N. Staroverov, T. A. Keith, R. Kobayashi, J. Normand, 
 K. Raghavachari, A. P. Rendell, J. C. Burant, S. S. Iyengar, 
 J. Tomasi, M. Cossi, J. M. Millam, M. Klene, C. Adamo, R. Cammi, 
 J. W. Ochterski, R. L. Martin, K. Morokuma, O. Farkas, 
 J. B. Foresman, and D. J. Fox, Gaussian, Inc., Wallingford CT, 2016.
 
 ******************************************
 Gaussian 16:  ES64L-G16RevA.03 25-Dec-2016
                20-Jun-2025 
 ******************************************
 %nprocshared=24
 Will use up to   24 processors via shared memory.
 %mem=12GB
 %chk=ethyl_propiolate_ts1.chk
 -------------------
 # freq 6-31+g m062x
 -------------------
 1/10=4,30=1,38=1/1,3;
 2/12=2,17=6,18=5,40=1/2;
 3/5=1,6=6,7=10,11=2,25=1,30=1,71=2,74=-55,140=1/1,2,3;
 4//1;
 5/5=2,38=5,98=1/2;
 8/6=4,10=90,11=11/1;
 11/6=1,8=1,9=11,15=111,16=1/1,2,10;
 10/6=1/2;
 6/7=2,8=2,9=2,10=2,28=1/1;
 7/8=1,10=1,25=1/1,2,3,16;
 1/10=4,30=1/3;
 99//99;
 -------------------
 Title Card Required
 -------------------
 Symbolic Z-matrix:
 Charge =  0 Multiplicity = 2
 O                     2.3425    1.66263  -0.33247 
 H                     1.53488   1.77852   0.194 
 C                    -3.3175    0.18923  -0.51626 
 H                    -4.33349   0.2619   -0.82754 
 C                    -2.17533   0.10715  -0.1653 
 C                    -0.79109   0.06161   0.27343 
 O                    -0.22947   0.98615   0.79873 
 O                    -0.24473  -1.12626   0.02706 
 C                     1.12165  -1.31699   0.44233 
 C                     2.09878  -0.82502  -0.59114 
 H                     1.20782  -2.39879   0.56344 
 H                     1.27493  -0.83635   1.41024 
 H                     3.11585  -1.1541   -0.3822 
 H                     1.79724  -1.049    -1.61354 
 H                     2.22824   0.47647  -0.54242 
 

 GradGradGradGradGradGradGradGradGradGradGradGradGradGradGradGradGradGrad
 Berny optimization.
 Initialization pass.
 Trust Radius=3.00D-01 FncErr=1.00D-07 GrdErr=1.00D-07 EigMax=2.50D+02 EigMin=1.00D-04
 Number of steps in this run=      2 maximum allowed number of steps=      2.
 GradGradGradGradGradGradGradGradGradGradGradGradGradGradGradGradGradGrad

                          Input orientation:                          
 ---------------------------------------------------------------------
 Center     Atomic      Atomic             Coordinates (Angstroms)
 Number     Number       Type             X           Y           Z
 ---------------------------------------------------------------------
      1          8           0        2.342498    1.662630   -0.332470
      2          1           0        1.534880    1.778522    0.194004
      3          6           0       -3.317503    0.189234   -0.516258
      4          1           0       -4.333488    0.261904   -0.827541
      5          6           0       -2.175332    0.107149   -0.165296
      6          6           0       -0.791090    0.061609    0.273433
      7          8           0       -0.229474    0.986148    0.798727
      8          8           0       -0.244733   -1.126256    0.027060
      9          6           0        1.121646   -1.316993    0.442330
     10          6           0        2.098777   -0.825022   -0.591138
     11          1           0        1.207824   -2.398792    0.563442
     12          1           0        1.274932   -0.836351    1.410236
     13          1           0        3.115850   -1.154102   -0.382200
     14          1           0        1.797236   -1.049004   -1.613541
     15          1           0        2.228239    0.476466   -0.542424
 ---------------------------------------------------------------------
                    Distance matrix (angstroms):
                    1          2          3          4          5
     1  O    0.000000
     2  H    0.971006   0.000000
     3  C    5.851520   5.155185   0.000000
     4  H    6.839292   6.146660   1.065084   0.000000
     5  C    4.781031   4.085126   1.197692   2.262776   0.000000
     6  C    3.570681   2.892099   2.650031   3.714949   1.452819
     7  O    2.890030   2.026448   3.449664   4.473501   2.342721
     8  O    3.821114   3.410664   3.386388   4.401732   2.299022
     9  C    3.311940   3.132833   4.784731   5.819276   3.642452
    10  C    2.512911   2.777205   5.510936   6.527735   4.395258
    11  H    4.311066   4.206353   5.323741   6.302402   4.272768
    12  H    3.228255   2.895575   5.084650   6.137441   3.908557
    13  H    2.921391   3.381089   6.573474   7.595791   5.443749
    14  H    3.048182   3.366148   5.375669   6.318390   4.383537
    15  H    1.210009   1.648764   5.553237   6.571422   4.435094
                    6          7          8          9         10
     6  C    0.000000
     7  O    1.202547   0.000000
     8  O    1.330499   2.248989   0.000000
     9  C    2.363817   2.693882   1.440771   0.000000
    10  C    3.144031   3.260800   2.442325   1.504951   0.000000
    11  H    3.183290   3.684970   2.004239   1.091963   2.145601
    12  H    2.523311   2.441041   2.075236   1.091492   2.164335
    13  H    4.143910   4.143242   3.385526   2.164078   1.089214
    14  H    3.390216   3.750791   2.620530   2.180561   1.089221
    15  H    3.155008   2.845842   3.001436   2.326109   1.308818
                   11         12         13         14         15
    11  H    0.000000
    12  H    1.778422   0.000000
    13  H    2.466588   2.588971   0.000000
    14  H    2.628420   3.075915   1.807205   0.000000
    15  H    3.245196   2.538733   1.863405   1.913142   0.000000
 Stoichiometry    C5H7O3(2)
 Framework group  C1[X(C5H7O3)]
 Deg. of freedom    39
 Full point group                 C1      NOp   1
 Largest Abelian subgroup         C1      NOp   1
 Largest concise Abelian subgroup C1      NOp   1
                         Standard orientation:                         
 ---------------------------------------------------------------------
 Center     Atomic      Atomic             Coordinates (Angstroms)
 Number     Number       Type             X           Y           Z
 ---------------------------------------------------------------------
      1          8           0        2.288379    1.684732   -0.320651
      2          1           0        1.480902    1.800631    0.206038
      3          6           0       -3.372937    0.216592   -0.506000
      4          1           0       -4.388880    0.290578   -0.817110
      5          6           0       -2.230813    0.133025   -0.155233
      6          6           0       -0.846580    0.085671    0.283332
      7          8           0       -0.284108    1.009006    0.809826
      8          8           0       -0.301292   -1.102345    0.035323
      9          6           0        1.064948   -1.294848    0.450236
     10          6           0        2.042438   -0.802353   -0.582643
     11          1           0        1.150177   -2.376884    0.569888
     12          1           0        1.218729   -0.815643    1.418775
     13          1           0        3.059235   -1.132613   -0.374222
     14          1           0        1.740625   -1.024695   -1.605323
     15          1           0        2.173055    0.498953   -0.532190
 ---------------------------------------------------------------------
 Rotational constants (GHZ):           3.3470868           1.1875129           0.9748034
 Standard basis: 6-31+G (6D, 7F)
 There are   118 symmetry adapted cartesian basis functions of A   symmetry.
 There are   118 symmetry adapted basis functions of A   symmetry.
   118 basis functions,   236 primitive gaussians,   118 cartesian basis functions
    31 alpha electrons       30 beta electrons
       nuclear repulsion energy       353.5698839604 Hartrees.
 NAtoms=   15 NActive=   15 NUniq=   15 SFac= 1.00D+00 NAtFMM=   60 NAOKFM=F Big=F
 Integral buffers will be    131072 words long.
 Raffenetti 2 integral format.
 Two-electron integral symmetry is turned on.
 One-electron integrals computed using PRISM.
 NBasis=   118 RedAO= T EigKep=  1.40D-06  NBF=   118
 NBsUse=   118 1.00D-06 EigRej= -1.00D+00 NBFU=   118
 ExpMin= 4.38D-02 ExpMax= 5.48D+03 ExpMxC= 8.25D+02 IAcc=3 IRadAn=         5 AccDes= 0.00D+00
 Harris functional with IExCor= 1009 and IRadAn=       5 diagonalized for initial guess.
 HarFok:  IExCor= 1009 AccDes= 0.00D+00 IRadAn=         5 IDoV= 1 UseB2=F ITyADJ=14
 ICtDFT=  3500011 ScaDFX=  1.000000  1.000000  1.000000  1.000000
 FoFCou: FMM=F IPFlag=           0 FMFlag=      100000 FMFlg1=           0
         NFxFlg=           0 DoJE=T BraDBF=F KetDBF=T FulRan=T
         wScrn=  0.000000 ICntrl=       500 IOpCl=  0 I1Cent=   200000004 NGrid=           0
         NMat0=    1 NMatS0=      1 NMatT0=    0 NMatD0=    1 NMtDS0=    0 NMtDT0=    0
 Petite list used in FoFCou.
 Initial guess <Sx>= 0.0000 <Sy>= 0.0000 <Sz>= 0.5000 <S**2>= 0.7500 S= 0.5000
 Requested convergence on RMS density matrix=1.00D-08 within 128 cycles.
 Requested convergence on MAX density matrix=1.00D-06.
 Requested convergence on             energy=1.00D-06.
 No special actions if energy rises.
 Restarting incremental Fock formation.
 SCF Done:  E(UM062X) =  -419.952788922     A.U. after   22 cycles
            NFock= 22  Conv=0.36D-08     -V/T= 2.0051
 <Sx>= 0.0000 <Sy>= 0.0000 <Sz>= 0.5000 <S**2>= 0.7608 S= 0.5054
 <L.S>=  0.00000000000    
 Annihilation of the first spin contaminant:
 S**2 before annihilation     0.7608,   after     0.7500
 DoSCS=F DFT=T ScalE2(SS,OS)=  1.000000  1.000000
 Range of M.O.s used for correlation:     1   118
 NBasis=   118 NAE=    31 NBE=    30 NFC=     0 NFV=     0
 NROrb=    118 NOA=    31 NOB=    30 NVA=    87 NVB=    88

 **** Warning!!: The largest alpha MO coefficient is  0.20882749D+03


 **** Warning!!: The largest beta MO coefficient is  0.20306353D+03

 Symmetrizing basis deriv contribution to polar:
 IMax=3 JMax=2 DiffMx= 0.00D+00
 G2DrvN: will do    16 centers at a time, making    1 passes.
 Calling FoFCou, ICntrl=  3107 FMM=F I1Cent=   0 AccDes= 0.00D+00.
 End of G2Drv F.D. properties file   721 does not exist.
 End of G2Drv F.D. properties file   722 does not exist.
 End of G2Drv F.D. properties file   788 does not exist.
          IDoAtm=111111111111111
          Differentiating once with respect to electric field.
                with respect to dipole field.
          Differentiating once with respect to nuclear coordinates.
 Keep R1 and R2 ints in memory in canonical form, NReq=71861349.
          There are    48 degrees of freedom in the 1st order CPHF.  IDoFFX=6 NUNeed=     3.
     45 vectors produced by pass  0 Test12= 1.11D-14 2.08D-09 XBig12= 9.33D+01 4.12D+00.
 AX will form    45 AO Fock derivatives at one time.
     45 vectors produced by pass  1 Test12= 1.11D-14 2.08D-09 XBig12= 2.04D+01 7.72D-01.
     45 vectors produced by pass  2 Test12= 1.11D-14 2.08D-09 XBig12= 6.96D-01 1.28D-01.
     45 vectors produced by pass  3 Test12= 1.11D-14 2.08D-09 XBig12= 3.63D-03 7.90D-03.
     45 vectors produced by pass  4 Test12= 1.11D-14 2.08D-09 XBig12= 2.27D-05 4.43D-04.
     45 vectors produced by pass  5 Test12= 1.11D-14 2.08D-09 XBig12= 1.44D-07 3.44D-05.
     39 vectors produced by pass  6 Test12= 1.11D-14 2.08D-09 XBig12= 8.36D-10 3.21D-06.
     10 vectors produced by pass  7 Test12= 1.11D-14 2.08D-09 XBig12= 4.83D-12 2.23D-07.
      3 vectors produced by pass  8 Test12= 1.11D-14 2.08D-09 XBig12= 3.12D-14 1.85D-08.
      1 vectors produced by pass  9 Test12= 1.11D-14 2.08D-09 XBig12= 8.42D-15 1.56D-08.
 InvSVY:  IOpt=1 It=  1 EMax= 8.88D-15
 Solved reduced A of dimension   323 with    48 vectors.
 Isotropic polarizability for W=    0.000000       70.82 Bohr**3.
 End of Minotr F.D. properties file   721 does not exist.
 End of Minotr F.D. properties file   722 does not exist.
 End of Minotr F.D. properties file   788 does not exist.

 **********************************************************************

            Population analysis using the SCF density.

 **********************************************************************

 Orbital symmetries:
 Alpha Orbitals:
       Occupied  (A) (A) (A) (A) (A) (A) (A) (A) (A) (A) (A) (A)
                 (A) (A) (A) (A) (A) (A) (A) (A) (A) (A) (A) (A)
                 (A) (A) (A) (A) (A) (A) (A)
       Virtual   (A) (A) (A) (A) (A) (A) (A) (A) (A) (A) (A) (A)
                 (A) (A) (A) (A) (A) (A) (A) (A) (A) (A) (A) (A)
                 (A) (A) (A) (A) (A) (A) (A) (A) (A) (A) (A) (A)
                 (A) (A) (A) (A) (A) (A) (A) (A) (A) (A) (A) (A)
                 (A) (A) (A) (A) (A) (A) (A) (A) (A) (A) (A) (A)
                 (A) (A) (A) (A) (A) (A) (A) (A) (A) (A) (A) (A)
                 (A) (A) (A) (A) (A) (A) (A) (A) (A) (A) (A) (A)
                 (A) (A) (A)
 Beta  Orbitals:
       Occupied  (A) (A) (A) (A) (A) (A) (A) (A) (A) (A) (A) (A)
                 (A) (A) (A) (A) (A) (A) (A) (A) (A) (A) (A) (A)
                 (A) (A) (A) (A) (A) (A)
       Virtual   (A) (A) (A) (A) (A) (A) (A) (A) (A) (A) (A) (A)
                 (A) (A) (A) (A) (A) (A) (A) (A) (A) (A) (A) (A)
                 (A) (A) (A) (A) (A) (A) (A) (A) (A) (A) (A) (A)
                 (A) (A) (A) (A) (A) (A) (A) (A) (A) (A) (A) (A)
                 (A) (A) (A) (A) (A) (A) (A) (A) (A) (A) (A) (A)
                 (A) (A) (A) (A) (A) (A) (A) (A) (A) (A) (A) (A)
                 (A) (A) (A) (A) (A) (A) (A) (A) (A) (A) (A) (A)
                 (A) (A) (A) (A)
 The electronic state is 2-A.
 Alpha  occ. eigenvalues --  -19.72732 -19.68361 -19.65093 -10.75021 -10.63945
 Alpha  occ. eigenvalues --  -10.59794 -10.59434 -10.58430  -1.30081  -1.20642
 Alpha  occ. eigenvalues --   -1.11896  -0.92971  -0.89366  -0.80501  -0.72892
 Alpha  occ. eigenvalues --   -0.66899  -0.62588  -0.60927  -0.60252  -0.57634
 Alpha  occ. eigenvalues --   -0.54486  -0.51468  -0.50151  -0.48203  -0.45675
 Alpha  occ. eigenvalues --   -0.41392  -0.40765  -0.38808  -0.38513  -0.37933
 Alpha  occ. eigenvalues --   -0.32772
 Alpha virt. eigenvalues --   -0.03347   0.01334   0.01927   0.03213   0.03421
 Alpha virt. eigenvalues --    0.04020   0.04590   0.06044   0.07170   0.07568
 Alpha virt. eigenvalues --    0.08168   0.08719   0.09390   0.11023   0.11930
 Alpha virt. eigenvalues --    0.12322   0.14716   0.14797   0.16162   0.16882
 Alpha virt. eigenvalues --    0.17827   0.18834   0.19901   0.20261   0.21672
 Alpha virt. eigenvalues --    0.22946   0.23278   0.24004   0.25633   0.27444
 Alpha virt. eigenvalues --    0.27842   0.28211   0.29505   0.30157   0.30295
 Alpha virt. eigenvalues --    0.32329   0.33302   0.34237   0.34846   0.35784
 Alpha virt. eigenvalues --    0.36793   0.39179   0.40925   0.41598   0.44453
 Alpha virt. eigenvalues --    0.46356   0.56417   0.59809   0.67625   0.68819
 Alpha virt. eigenvalues --    0.69898   0.72166   0.72980   0.73987   0.76722
 Alpha virt. eigenvalues --    0.79046   0.79760   0.84707   0.85882   0.91137
 Alpha virt. eigenvalues --    0.93317   0.96615   1.00557   1.07977   1.09847
 Alpha virt. eigenvalues --    1.12606   1.14309   1.16070   1.20350   1.22509
 Alpha virt. eigenvalues --    1.23018   1.25689   1.27651   1.30402   1.30915
 Alpha virt. eigenvalues --    1.36638   1.37111   1.39807   1.42246   1.45125
 Alpha virt. eigenvalues --    1.47988   1.62420   1.68721   1.78155   1.94541
 Alpha virt. eigenvalues --    1.98984   2.02508
  Beta  occ. eigenvalues --  -19.72731 -19.68363 -19.64045 -10.75021 -10.63974
  Beta  occ. eigenvalues --  -10.59794 -10.59434 -10.57886  -1.30076  -1.20633
  Beta  occ. eigenvalues --   -1.08277  -0.92604  -0.88896  -0.79513  -0.72294
  Beta  occ. eigenvalues --   -0.66709  -0.62548  -0.60643  -0.59672  -0.55224
  Beta  occ. eigenvalues --   -0.52957  -0.50462  -0.49226  -0.45710  -0.43441
  Beta  occ. eigenvalues --   -0.41208  -0.39979  -0.38657  -0.37855  -0.36404
  Beta virt. eigenvalues --   -0.09906  -0.03322   0.01259   0.01917   0.03172
  Beta virt. eigenvalues --    0.03380   0.04078   0.04634   0.06081   0.07088
  Beta virt. eigenvalues --    0.07635   0.08276   0.08881   0.09509   0.11161
  Beta virt. eigenvalues --    0.12015   0.12380   0.14580   0.14800   0.16225
  Beta virt. eigenvalues --    0.17002   0.17865   0.18869   0.19898   0.20357
  Beta virt. eigenvalues --    0.21383   0.23383   0.23520   0.24164   0.26007
  Beta virt. eigenvalues --    0.27676   0.28071   0.28363   0.29560   0.30420
  Beta virt. eigenvalues --    0.30668   0.32677   0.33466   0.34328   0.35207
  Beta virt. eigenvalues --    0.35885   0.37209   0.40001   0.41620   0.42706
  Beta virt. eigenvalues --    0.44600   0.46699   0.56452   0.59840   0.68492
  Beta virt. eigenvalues --    0.69481   0.70961   0.72248   0.73812   0.74880
  Beta virt. eigenvalues --    0.77639   0.79399   0.80392   0.84882   0.86018
  Beta virt. eigenvalues --    0.91136   0.93290   0.96569   1.00580   1.07929
  Beta virt. eigenvalues --    1.10418   1.12907   1.14652   1.16172   1.19684
  Beta virt. eigenvalues --    1.22941   1.24131   1.25974   1.28286   1.30672
  Beta virt. eigenvalues --    1.31977   1.36992   1.38734   1.40544   1.42651
  Beta virt. eigenvalues --    1.45086   1.48583   1.62660   1.69277   1.78288
  Beta virt. eigenvalues --    1.95740   1.99241   2.02517
          Condensed to atoms (all electrons):
               1          2          3          4          5          6
     1  O    8.476389   0.165752  -0.054631  -0.000000  -0.083894   0.131132
     2  H    0.165752   0.364421   0.011793   0.000000   0.032096  -0.049620
     3  C   -0.054631   0.011793  87.744094   0.635424 -24.589822 -57.260826
     4  H   -0.000000   0.000000   0.635424   0.332469  -0.241965  -0.074957
     5  C   -0.083894   0.032096 -24.589822  -0.241965  42.141163 -10.241748
     6  C    0.131132  -0.049620 -57.260826  -0.074957 -10.241748  73.150999
     7  O    0.010636   0.015325  -0.237372  -0.000286   0.109254   0.139387
     8  O    0.005709   0.001155  -0.690529  -0.000853  -1.188148   1.279795
     9  C    0.008659   0.001225   0.143532  -0.000518  -0.438230  -0.066227
    10  C   -0.092528   0.010284  -0.018838  -0.000145   0.006903  -0.186375
    11  H   -0.001075   0.000067   0.005669   0.000000   0.012041  -0.000162
    12  H    0.002831  -0.000685   0.006138  -0.000000   0.024579  -0.030708
    13  H    0.000122   0.000362  -0.002621   0.000000  -0.015003   0.030402
    14  H    0.003818  -0.000095   0.020954  -0.000000   0.056412  -0.078039
    15  H    0.029710  -0.022163  -0.009799   0.000000  -0.051967   0.034111
               7          8          9         10         11         12
     1  O    0.010636   0.005709   0.008659  -0.092528  -0.001075   0.002831
     2  H    0.015325   0.001155   0.001225   0.010284   0.000067  -0.000685
     3  C   -0.237372  -0.690529   0.143532  -0.018838   0.005669   0.006138
     4  H   -0.000286  -0.000853  -0.000518  -0.000145   0.000000  -0.000000
     5  C    0.109254  -1.188148  -0.438230   0.006903   0.012041   0.024579
     6  C    0.139387   1.279795  -0.066227  -0.186375  -0.000162  -0.030708
     7  O    8.622271  -0.244268   0.016855  -0.001458  -0.000768  -0.001122
     8  O   -0.244268   9.039710   0.085516   0.032312  -0.073017  -0.029063
     9  C    0.016855   0.085516   5.996899  -0.182895   0.424550   0.419527
    10  C   -0.001458   0.032312  -0.182895   6.095040  -0.063378  -0.084176
    11  H   -0.000768  -0.073017   0.424550  -0.063378   0.488238  -0.031067
    12  H   -0.001122  -0.029063   0.419527  -0.084176  -0.031067   0.476015
    13  H   -0.000843   0.003682  -0.063315   0.380555  -0.001177   0.000655
    14  H   -0.001540   0.002588  -0.047571   0.378030  -0.002147   0.003379
    15  H    0.018207  -0.009478  -0.007267   0.234414   0.002763  -0.006699
              13         14         15
     1  O    0.000122   0.003818   0.029710
     2  H    0.000362  -0.000095  -0.022163
     3  C   -0.002621   0.020954  -0.009799
     4  H    0.000000  -0.000000   0.000000
     5  C   -0.015003   0.056412  -0.051967
     6  C    0.030402  -0.078039   0.034111
     7  O   -0.000843  -0.001540   0.018207
     8  O    0.003682   0.002588  -0.009478
     9  C   -0.063315  -0.047571  -0.007267
    10  C    0.380555   0.378030   0.234414
    11  H   -0.001177  -0.002147   0.002763
    12  H    0.000655   0.003379  -0.006699
    13  H    0.469625  -0.024074  -0.017130
    14  H   -0.024074   0.463029  -0.019147
    15  H   -0.017130  -0.019147   0.545874
          Atomic-Atomic Spin Densities.
               1          2          3          4          5          6
     1  O    0.649458  -0.006633   0.000270  -0.000000  -0.018047  -0.006886
     2  H   -0.006633  -0.014286   0.001066  -0.000000   0.004589  -0.000382
     3  C    0.000270   0.001066  -3.530316   0.006878   1.513793   2.089955
     4  H   -0.000000  -0.000000   0.006878  -0.000048  -0.005497  -0.001341
     5  C   -0.018047   0.004589   1.513793  -0.005497  -1.331620  -0.072384
     6  C   -0.006886  -0.000382   2.089955  -0.001341  -0.072384  -2.188603
     7  O    0.011735  -0.002843  -0.000594  -0.000004  -0.018426   0.012318
     8  O    0.001403  -0.000431  -0.019774  -0.000002  -0.038047   0.048095
     9  C    0.036379  -0.004370  -0.067492   0.000036  -0.066526   0.115619
    10  C   -0.139349   0.008395   0.015959  -0.000003   0.048891  -0.023004
    11  H   -0.000595   0.000035   0.002316  -0.000000   0.010955  -0.004140
    12  H    0.001451  -0.000247  -0.001574   0.000000  -0.007894   0.002754
    13  H    0.002920  -0.000134   0.000088  -0.000000  -0.000241  -0.003089
    14  H    0.003202  -0.000154  -0.002760   0.000000  -0.009629   0.007836
    15  H   -0.004757   0.003985   0.001109   0.000000   0.012722   0.007017
               7          8          9         10         11         12
     1  O    0.011735   0.001403   0.036379  -0.139349  -0.000595   0.001451
     2  H   -0.002843  -0.000431  -0.004370   0.008395   0.000035  -0.000247
     3  C   -0.000594  -0.019774  -0.067492   0.015959   0.002316  -0.001574
     4  H   -0.000004  -0.000002   0.000036  -0.000003  -0.000000   0.000000
     5  C   -0.018426  -0.038047  -0.066526   0.048891   0.010955  -0.007894
     6  C    0.012318   0.048095   0.115619  -0.023004  -0.004140   0.002754
     7  O    0.003609   0.003390   0.008538  -0.017690  -0.001303   0.002682
     8  O    0.003390   0.001602   0.014582  -0.009472  -0.004860   0.001708
     9  C    0.008538   0.014582  -0.009611  -0.093848  -0.000894   0.012813
    10  C   -0.017690  -0.009472  -0.093848   0.827377  -0.008153  -0.010667
    11  H   -0.001303  -0.004860  -0.000894  -0.008153   0.042157  -0.004620
    12  H    0.002682   0.001708   0.012813  -0.010667  -0.004620   0.013401
    13  H    0.000451   0.000125   0.010310  -0.018535  -0.001007   0.000325
    14  H    0.001030   0.000583   0.011746  -0.021664  -0.001138   0.000140
    15  H   -0.009371   0.000902  -0.021841   0.066176  -0.000203   0.000792
              13         14         15
     1  O    0.002920   0.003202  -0.004757
     2  H   -0.000134  -0.000154   0.003985
     3  C    0.000088  -0.002760   0.001109
     4  H   -0.000000   0.000000   0.000000
     5  C   -0.000241  -0.009629   0.012722
     6  C   -0.003089   0.007836   0.007017
     7  O    0.000451   0.001030  -0.009371
     8  O    0.000125   0.000583   0.000902
     9  C    0.010310   0.011746  -0.021841
    10  C   -0.018535  -0.021664   0.066176
    11  H   -0.001007  -0.001138  -0.000203
    12  H    0.000325   0.000140   0.000792
    13  H   -0.021323   0.003468   0.003568
    14  H    0.003468  -0.013436   0.003202
    15  H    0.003568   0.003202  -0.159936
 Mulliken charges and spin densities:
               1          2
     1  O   -0.602630   0.530551
     2  H    0.470082  -0.011411
     3  C    0.296835   0.008923
     4  H    0.350832   0.000020
     5  C    0.468328   0.022638
     6  C   -0.777163  -0.016234
     7  O   -0.444278  -0.006477
     8  O   -0.215112  -0.000197
     9  C   -0.290739  -0.054558
    10  C   -0.507747   0.624413
    11  H    0.239462   0.028551
    12  H    0.250396   0.011062
    13  H    0.238760  -0.023074
    14  H    0.244405  -0.017573
    15  H    0.278570  -0.096634
 Sum of Mulliken charges =  -0.00000   1.00000
 Mulliken charges and spin densities with hydrogens summed into heavy atoms:
               1          2
     1  O    0.146021   0.422506
     3  C    0.647667   0.008943
     5  C    0.468328   0.022638
     6  C   -0.777163  -0.016234
     7  O   -0.444278  -0.006477
     8  O   -0.215112  -0.000197
     9  C    0.199119  -0.014945
    10  C   -0.024583   0.583766
 APT charges:
               1
     1  O   -0.349920
     2  H    0.346557
     3  C   -0.204077
     4  H    0.263168
     5  C   -0.306037
     6  C    1.435525
     7  O   -0.777450
     8  O   -0.892329
     9  C    0.378670
    10  C    0.245419
    11  H    0.016779
    12  H    0.018775
    13  H    0.002943
    14  H    0.004098
    15  H   -0.182121
 Sum of APT charges =   0.00000
 APT charges with hydrogens summed into heavy atoms:
               1
     1  O   -0.185484
     3  C    0.059091
     5  C   -0.306037
     6  C    1.435525
     7  O   -0.777450
     8  O   -0.892329
     9  C    0.414224
    10  C    0.252460
 Electronic spatial extent (au):  <R**2>=           1190.4086
 Charge=             -0.0000 electrons
 Dipole moment (field-independent basis, Debye):
    X=             -2.3504    Y=             -3.6831    Z=              0.1160  Tot=              4.3708
 Quadrupole moment (field-independent basis, Debye-Ang):
   XX=            -41.7577   YY=            -52.9370   ZZ=            -48.2589
   XY=            -10.8758   XZ=              4.3409   YZ=             -0.6361
 Traceless Quadrupole moment (field-independent basis, Debye-Ang):
   XX=              5.8935   YY=             -5.2858   ZZ=             -0.6077
   XY=            -10.8758   XZ=              4.3409   YZ=             -0.6361
 Octapole moment (field-independent basis, Debye-Ang**2):
  XXX=            -67.4386  YYY=             -7.1273  ZZZ=              2.5713  XYY=              1.1280
  XXY=            -19.7629  XXZ=             -9.6539  XZZ=              3.1646  YZZ=             -3.5502
  YYZ=              5.6321  XYZ=              6.3135
 Hexadecapole moment (field-independent basis, Debye-Ang**3):
 XXXX=           -862.8497 YYYY=           -342.7349 ZZZZ=           -125.9191 XXXY=            -83.7934
 XXXZ=             71.0904 YYYX=            -16.0740 YYYZ=              4.3203 ZZZX=             -2.0354
 ZZZY=              1.7735 XXYY=           -283.2510 XXZZ=           -202.5154 YYZZ=            -83.7344
 XXYZ=              4.3778 YYXZ=             10.8411 ZZXY=             -1.9790
 N-N= 3.535698839604D+02 E-N=-1.689223413188D+03  KE= 4.178302429677D+02
  Exact polarizability:  88.969  -0.299  74.884   7.969   2.859  48.606
 Approx polarizability:  94.366   2.366  84.180  13.326   7.515  54.683
                          Isotropic Fermi Contact Couplings
        Atom                 a.u.       MegaHertz       Gauss      10(-4) cm-1
     1  O(17)              0.06652     -40.32488     -14.38892     -13.45093
     2  H(1)              -0.00830     -37.10808     -13.24109     -12.37792
     3  C(13)             -0.00003      -0.03452      -0.01232      -0.01151
     4  H(1)               0.00001       0.03143       0.01121       0.01048
     5  C(13)              0.00011       0.11895       0.04245       0.03968
     6  C(13)              0.00021       0.24153       0.08618       0.08057
     7  O(17)             -0.00336       2.03673       0.72676       0.67938
     8  O(17)              0.00321      -1.94802      -0.69510      -0.64979
     9  C(13)             -0.01748     -19.65346      -7.01284      -6.55569
    10  C(13)              0.17696     198.93677      70.98559      66.35816
    11  H(1)               0.01556      69.55357      24.81844      23.20058
    12  H(1)               0.00601      26.84458       9.57881       8.95439
    13  H(1)              -0.00683     -30.54426     -10.89895     -10.18847
    14  H(1)              -0.00386     -17.25954      -6.15863      -5.75716
    15  H(1)              -0.03580    -160.00496     -57.09375     -53.37191
 --------------------------------------------------------
       Center         ----  Spin Dipole Couplings  ----
                      3XX-RR        3YY-RR        3ZZ-RR
 --------------------------------------------------------
     1   Atom       -0.920164      1.897815     -0.977651
     2   Atom        0.048521     -0.026466     -0.022055
     3   Atom        0.001600     -0.000553     -0.001047
     4   Atom        0.000884     -0.000403     -0.000481
     5   Atom        0.002538     -0.001164     -0.001374
     6   Atom        0.006215     -0.001688     -0.004527
     7   Atom        0.000396     -0.002639      0.002243
     8   Atom        0.007382     -0.002946     -0.004436
     9   Atom       -0.000053      0.010688     -0.010635
    10   Atom       -0.305205      0.605142     -0.299937
    11   Atom       -0.002754      0.004315     -0.001561
    12   Atom       -0.005088     -0.003993      0.009081
    13   Atom        0.037870     -0.000201     -0.037669
    14   Atom       -0.034166     -0.005508      0.039674
    15   Atom       -0.116963      0.231439     -0.114476
 --------------------------------------------------------
                        XY            XZ            YZ
 --------------------------------------------------------
     1   Atom        0.529212      0.064302      0.280728
     2   Atom       -0.010952     -0.078246      0.016473
     3   Atom        0.000004      0.000293      0.000165
     4   Atom        0.000009      0.000073      0.000009
     5   Atom        0.000112     -0.000351     -0.000024
     6   Atom       -0.000202     -0.001989      0.000491
     7   Atom       -0.000529     -0.006480     -0.000656
     8   Atom       -0.000134      0.000560     -0.001219
     9   Atom        0.017184     -0.008529     -0.007531
    10   Atom        0.021684      0.004509      0.081788
    11   Atom        0.003937     -0.004452     -0.006381
    12   Atom        0.001342     -0.007861     -0.003823
    13   Atom       -0.021473      0.017350     -0.001240
    14   Atom        0.003398      0.024589      0.013680
    15   Atom        0.036198      0.003915      0.041031
 --------------------------------------------------------


 ---------------------------------------------------------------------------------
              Anisotropic Spin Dipole Couplings in Principal Axis System
 ---------------------------------------------------------------------------------

       Atom             a.u.   MegaHertz   Gauss  10(-4) cm-1        Axes

              Baa    -1.0249    74.163    26.463    24.738  0.8294 -0.0973 -0.5502
     1 O(17)  Bbb    -0.9966    72.113    25.732    24.054  0.5295 -0.1773  0.8296
              Bcc     2.0215  -146.276   -52.195   -48.792  0.1783  0.9793  0.0955
 
              Baa    -0.0740   -39.466   -14.082   -13.164  0.5196 -0.1706  0.8372
     2 H(1)   Bbb    -0.0277   -14.766    -5.269    -4.925  0.2102  0.9753  0.0682
              Bcc     0.1016    54.232    19.351    18.090  0.8282 -0.1406 -0.5426
 
              Baa    -0.0011    -0.151    -0.054    -0.050 -0.1022 -0.2752  0.9559
     3 C(13)  Bbb    -0.0005    -0.068    -0.024    -0.023 -0.0396  0.9613  0.2726
              Bcc     0.0016     0.219     0.078     0.073  0.9940  0.0100  0.1092
 
              Baa    -0.0005    -0.259    -0.092    -0.086 -0.0526 -0.1002  0.9936
     4 H(1)   Bbb    -0.0004    -0.215    -0.077    -0.072 -0.0126  0.9949  0.0996
              Bcc     0.0009     0.474     0.169     0.158  0.9985  0.0073  0.0536
 
              Baa    -0.0014    -0.189    -0.067    -0.063  0.0868  0.0586  0.9945
     5 C(13)  Bbb    -0.0012    -0.157    -0.056    -0.052 -0.0354  0.9978 -0.0557
              Bcc     0.0026     0.345     0.123     0.115  0.9956  0.0304 -0.0887
 
              Baa    -0.0049    -0.664    -0.237    -0.221  0.1715 -0.1366  0.9757
     6 C(13)  Bbb    -0.0016    -0.220    -0.078    -0.073  0.0580  0.9900  0.1284
              Bcc     0.0066     0.883     0.315     0.295  0.9835 -0.0346 -0.1777
 
              Baa    -0.0055     0.396     0.141     0.132  0.7228  0.2814  0.6312
     7 O(17)  Bbb    -0.0024     0.174     0.062     0.058 -0.2217  0.9595 -0.1739
              Bcc     0.0079    -0.569    -0.203    -0.190 -0.6546 -0.0142  0.7559
 
              Baa    -0.0051     0.371     0.133     0.124 -0.0339  0.4848  0.8740
     8 O(17)  Bbb    -0.0023     0.165     0.059     0.055  0.0402  0.8744 -0.4835
              Bcc     0.0074    -0.536    -0.191    -0.179  0.9986 -0.0187  0.0491
 
              Baa    -0.0157    -2.109    -0.753    -0.704  0.6183 -0.1844  0.7640
     9 C(13)  Bbb    -0.0109    -1.467    -0.523    -0.489 -0.5288  0.6216  0.5779
              Bcc     0.0267     3.576     1.276     1.193  0.5815  0.7613 -0.2868
 
              Baa    -0.3092   -41.487   -14.804   -13.839 -0.5965 -0.0575  0.8006
    10 C(13)  Bbb    -0.3038   -40.771   -14.548   -13.600  0.8023 -0.0725  0.5925
              Bcc     0.6130    82.259    29.352    27.439  0.0240  0.9957  0.0893
 
              Baa    -0.0069    -3.701    -1.321    -1.234  0.6052  0.2218  0.7646
    11 H(1)   Bbb    -0.0039    -2.080    -0.742    -0.694  0.6932 -0.6190 -0.3691
              Bcc     0.0108     5.781     2.063     1.928  0.3914  0.7534 -0.5284
 
              Baa    -0.0086    -4.596    -1.640    -1.533  0.9036  0.0850  0.4198
    12 H(1)   Bbb    -0.0049    -2.613    -0.932    -0.872 -0.1701  0.9707  0.1698
              Bcc     0.0135     7.209     2.572     2.405 -0.3931 -0.2249  0.8916
 
              Baa    -0.0418   -22.291    -7.954    -7.436 -0.2358 -0.0929  0.9674
    13 H(1)   Bbb    -0.0088    -4.692    -1.674    -1.565  0.3571  0.9175  0.1752
              Bcc     0.0506    26.983     9.628     9.001  0.9038 -0.3867  0.1831
 
              Baa    -0.0416   -22.206    -7.924    -7.407  0.9560  0.0209 -0.2927
    14 H(1)   Bbb    -0.0090    -4.815    -1.718    -1.606 -0.0906  0.9697 -0.2267
              Bcc     0.0506    27.021     9.642     9.013  0.2791  0.2432  0.9290
 
              Baa    -0.1207   -64.424   -22.988   -21.490  0.9725 -0.1230  0.1976
    15 H(1)   Bbb    -0.1192   -63.604   -22.695   -21.216 -0.2094 -0.0923  0.9735
              Bcc     0.2400   128.028    45.684    42.706  0.1015  0.9881  0.1155
 

 ---------------------------------------------------------------------------------

 Calling FoFJK, ICntrl=    100127 FMM=F ISym2X=0 I1Cent= 0 IOpClX= 1 NMat=1 NMatS=1 NMatT=0.
 Full mass-weighted force constant matrix:
 Low frequencies ----1448.3625 -326.4827 -125.5737  -74.6470  -57.7176   -0.0013
 Low frequencies ---   -0.0012   -0.0009   41.3463
 ******    3 imaginary frequencies (negative Signs) ****** 
 Diagonal vibrational polarizability:
       31.2427569      67.1081324     139.2117701
 Harmonic frequencies (cm**-1), IR intensities (KM/Mole), Raman scattering
 activities (A**4/AMU), depolarization ratios for plane and unpolarized
 incident light, reduced masses (AMU), force constants (mDyne/A),
 and normal coordinates:
                      1                      2                      3
                      A                      A                      A
 Frequencies --  -1448.3622              -322.4535               -82.3806
 Red. masses --      1.0865                 1.0944                 5.6201
 Frc consts  --      1.3429                 0.0670                 0.0225
 IR Inten    --    692.3988               111.7308                 0.1384
  Atom  AN      X      Y      Z        X      Y      Z        X      Y      Z
     1   8    -0.01  -0.05  -0.00    -0.04  -0.00  -0.05    -0.11  -0.04  -0.21
     2   1     0.05   0.15  -0.00     0.49  -0.20   0.80    -0.22   0.01  -0.40
     3   6     0.00  -0.00   0.00     0.01  -0.01  -0.02     0.00   0.00   0.01
     4   1    -0.00   0.00   0.00     0.01  -0.01  -0.03    -0.02  -0.05   0.05
     5   6     0.00  -0.00  -0.00     0.01   0.01  -0.01     0.02   0.07  -0.04
     6   6    -0.00   0.00   0.00     0.01   0.01   0.00     0.00   0.05   0.01
     7   8    -0.00  -0.00   0.00    -0.00  -0.00   0.03    -0.09  -0.08   0.33
     8   8     0.00  -0.00  -0.00     0.00   0.00   0.00     0.07   0.13  -0.23
     9   6    -0.00   0.01  -0.00    -0.00   0.01   0.01    -0.02   0.00   0.01
    10   6    -0.01  -0.06   0.00    -0.01  -0.00  -0.00     0.17  -0.11   0.15
    11   1     0.01   0.00   0.01     0.00   0.01   0.01    -0.14  -0.00   0.05
    12   1     0.01   0.00   0.00    -0.00   0.00   0.01    -0.14   0.02   0.02
    13   1     0.04   0.13   0.02     0.01   0.07   0.04     0.14  -0.03   0.40
    14   1    -0.01   0.14  -0.04     0.02  -0.10   0.01     0.38  -0.25   0.12
    15   1     0.17   0.94   0.09    -0.13   0.03  -0.18     0.07  -0.10   0.01
                      4                      5                      6
                      A                      A                      A
 Frequencies --     41.8687                87.2006               131.4448
 Red. masses --      4.5933                 4.2657                 3.3636
 Frc consts  --      0.0047                 0.0191                 0.0342
 IR Inten    --      7.2533                 8.5276                 1.1176
  Atom  AN      X      Y      Z        X      Y      Z        X      Y      Z
     1   8     0.14  -0.07   0.12    -0.15   0.11  -0.04     0.03   0.11  -0.07
     2   1     0.22  -0.13   0.27    -0.07   0.08   0.08     0.09   0.31  -0.03
     3   6    -0.15  -0.17   0.25    -0.02   0.27   0.15     0.03  -0.17  -0.03
     4   1    -0.23  -0.31   0.46    -0.05   0.52   0.30     0.03  -0.41  -0.09
     5   6    -0.07  -0.00   0.01     0.01  -0.04  -0.03     0.03   0.12   0.03
     6   6    -0.02   0.08  -0.13     0.03  -0.11  -0.10     0.04   0.07   0.01
     7   8    -0.02   0.09  -0.16     0.06  -0.10  -0.16     0.19  -0.03   0.00
     8   8     0.01   0.10  -0.18     0.01  -0.13  -0.04    -0.12  -0.01  -0.01
     9   6    -0.05   0.03  -0.02     0.00  -0.08   0.04    -0.13  -0.15  -0.04
    10   6     0.11  -0.05   0.09     0.08   0.06   0.18    -0.07   0.07   0.12
    11   1    -0.12   0.03   0.02     0.06  -0.08  -0.04    -0.17  -0.19  -0.33
    12   1    -0.14   0.04  -0.01    -0.11  -0.15   0.10    -0.14  -0.42   0.09
    13   1     0.07  -0.07   0.26     0.09   0.21   0.35    -0.07   0.11   0.19
    14   1     0.25  -0.09   0.06     0.28  -0.02   0.14     0.06   0.17   0.06
    15   1     0.12  -0.04   0.04    -0.10   0.09   0.09    -0.12   0.07   0.19
                      7                      8                      9
                      A                      A                      A
 Frequencies --    174.2812               255.6665               314.3093
 Red. masses --      5.9755                 3.6458                 3.1876
 Frc consts  --      0.1069                 0.1404                 0.1855
 IR Inten    --     12.0403                 2.1814                16.9031
  Atom  AN      X      Y      Z        X      Y      Z        X      Y      Z
     1   8     0.42   0.11  -0.16    -0.00  -0.01  -0.02    -0.01  -0.01   0.03
     2   1     0.56   0.44  -0.02     0.02  -0.09   0.03    -0.07  -0.12  -0.03
     3   6    -0.09   0.07  -0.01     0.02   0.04  -0.13     0.00  -0.02  -0.05
     4   1    -0.07   0.23  -0.02     0.15   0.18  -0.55     0.05  -0.09  -0.22
     5   6    -0.10  -0.11  -0.00    -0.13  -0.10   0.30    -0.05   0.06   0.13
     6   6    -0.10  -0.12   0.03    -0.07  -0.03   0.16    -0.03  -0.05   0.01
     7   8    -0.15  -0.13   0.09    -0.01   0.09  -0.10     0.19  -0.16  -0.03
     8   8    -0.03  -0.08  -0.02    -0.01   0.05  -0.04    -0.05  -0.04  -0.12
     9   6    -0.03   0.05   0.03     0.00  -0.05  -0.11    -0.05   0.22   0.07
    10   6    -0.03   0.13   0.06     0.15  -0.02   0.03    -0.03   0.01  -0.01
    11   1     0.08   0.06   0.03    -0.06  -0.07  -0.25     0.07   0.28   0.47
    12   1    -0.11   0.07   0.03     0.03  -0.19  -0.04    -0.20   0.60  -0.09
    13   1    -0.03   0.11   0.05     0.12   0.05   0.30    -0.04   0.01   0.05
    14   1    -0.02   0.16   0.05     0.41  -0.10  -0.03    -0.04  -0.14   0.03
    15   1     0.03   0.09   0.03     0.07   0.00  -0.03     0.02   0.02  -0.14
                     10                     11                     12
                      A                      A                      A
 Frequencies --    394.1364               439.2288               552.8898
 Red. masses --      1.5744                 1.9385                 4.0786
 Frc consts  --      0.1441                 0.2203                 0.7346
 IR Inten    --     15.5644                23.1973                 4.0205
  Atom  AN      X      Y      Z        X      Y      Z        X      Y      Z
     1   8     0.02  -0.04   0.03    -0.01   0.06  -0.03     0.03   0.31   0.05
     2   1    -0.07   0.05  -0.14     0.00  -0.37   0.10     0.03   0.28   0.07
     3   6    -0.03  -0.01   0.00    -0.08  -0.00  -0.01     0.05  -0.00   0.02
     4   1    -0.06  -0.09   0.08    -0.10  -0.11   0.03     0.06   0.03   0.03
     5   6    -0.01   0.07  -0.06    -0.06   0.10  -0.05     0.05  -0.03   0.01
     6   6    -0.02   0.01   0.00    -0.05   0.00  -0.00     0.01   0.00   0.01
     7   8     0.01  -0.02   0.02     0.02  -0.05   0.01    -0.03   0.04   0.00
     8   8    -0.06  -0.04   0.10    -0.06  -0.04   0.10    -0.04  -0.02  -0.01
     9   6     0.02   0.04  -0.08     0.03   0.03  -0.05    -0.07  -0.06  -0.01
    10   6     0.05   0.03  -0.06     0.16  -0.03   0.00     0.01  -0.33  -0.11
    11   1     0.06   0.04  -0.08     0.03   0.03  -0.07    -0.15  -0.02   0.38
    12   1     0.09   0.04  -0.09     0.06  -0.01  -0.03     0.00   0.27  -0.18
    13   1     0.10   0.44   0.39     0.03  -0.52  -0.09    -0.00  -0.25   0.09
    14   1     0.46  -0.42  -0.08     0.08   0.34  -0.05     0.13  -0.54  -0.10
    15   1    -0.22   0.05  -0.28     0.56  -0.01   0.16    -0.03   0.08  -0.06
                     13                     14                     15
                      A                      A                      A
 Frequencies --    576.2232               627.9276               712.4627
 Red. masses --      3.6880                 5.5555                 1.1678
 Frc consts  --      0.7215                 1.2906                 0.3492
 IR Inten    --      0.6875                13.8363               149.3566
  Atom  AN      X      Y      Z        X      Y      Z        X      Y      Z
     1   8    -0.00  -0.04  -0.02     0.00  -0.02  -0.01    -0.03  -0.06  -0.00
     2   1    -0.05  -0.36  -0.01     0.03   0.01   0.03     0.16   0.60   0.13
     3   6     0.20  -0.01   0.07     0.17  -0.00   0.06    -0.01   0.00  -0.00
     4   1     0.19   0.24   0.20     0.20  -0.65  -0.17    -0.02   0.04   0.03
     5   6     0.19  -0.20  -0.04     0.13   0.36   0.17    -0.00  -0.01  -0.01
     6   6     0.03   0.01   0.03     0.02  -0.13  -0.03     0.00   0.01   0.02
     7   8    -0.03   0.06   0.02    -0.28   0.06  -0.07     0.02   0.01   0.00
     8   8    -0.15  -0.03   0.01    -0.02  -0.20  -0.07    -0.02  -0.01   0.01
     9   6    -0.19   0.13  -0.12     0.03  -0.03  -0.00     0.01   0.01  -0.05
    10   6    -0.01   0.08   0.03     0.02   0.04   0.02     0.06  -0.02  -0.01
    11   1    -0.05   0.15  -0.04     0.19   0.01   0.18    -0.01   0.04   0.23
    12   1    -0.23   0.17  -0.13    -0.12   0.15  -0.06     0.03   0.25  -0.17
    13   1    -0.15  -0.22   0.29     0.03   0.03  -0.04     0.04  -0.07  -0.02
    14   1     0.23   0.20  -0.07     0.01   0.15  -0.00     0.13   0.32  -0.10
    15   1     0.35   0.01  -0.00     0.01  -0.02   0.07    -0.29  -0.20   0.43
                     16                     17                     18
                      A                      A                      A
 Frequencies --    782.2449               818.3275               872.8421
 Red. masses --      3.2927                 1.4246                 2.8700
 Frc consts  --      1.1871                 0.5621                 1.2883
 IR Inten    --     72.0963                55.8421                12.1703
  Atom  AN      X      Y      Z        X      Y      Z        X      Y      Z
     1   8     0.00   0.00  -0.01     0.00   0.00  -0.00     0.01   0.01  -0.01
     2   1     0.01  -0.04   0.01    -0.01  -0.03  -0.01    -0.08  -0.35  -0.06
     3   6     0.02   0.02  -0.07     0.00  -0.15  -0.05    -0.11   0.02   0.04
     4   1    -0.27  -0.27   0.80    -0.02   0.93   0.29     0.02  -0.00  -0.41
     5   6     0.05   0.05  -0.14    -0.00   0.09   0.03    -0.04  -0.05  -0.10
     6   6    -0.12  -0.13   0.35     0.00   0.00   0.00     0.07   0.07   0.10
     7   8     0.03   0.03  -0.08    -0.01   0.02   0.00     0.06   0.16   0.07
     8   8     0.03   0.03  -0.08    -0.01  -0.03  -0.02    -0.08  -0.14  -0.09
     9   6     0.00  -0.01   0.00     0.02  -0.02   0.01     0.04  -0.14   0.04
    10   6    -0.00  -0.00   0.01     0.01   0.01  -0.00     0.04   0.05  -0.01
    11   1    -0.00  -0.01   0.01     0.03  -0.01   0.04     0.18  -0.07   0.46
    12   1    -0.04  -0.00   0.01    -0.02   0.01   0.00    -0.17   0.25  -0.11
    13   1     0.01   0.02  -0.04     0.03   0.04  -0.04     0.16   0.32  -0.18
    14   1    -0.06  -0.02   0.03    -0.02   0.00   0.01    -0.02   0.15  -0.01
    15   1    -0.02   0.02  -0.05     0.00   0.01  -0.02     0.08   0.06  -0.13
                     19                     20                     21
                      A                      A                      A
 Frequencies --    875.2841               927.8234               970.7973
 Red. masses --      1.9501                 1.8753                 1.9132
 Frc consts  --      0.8802                 0.9512                 1.0624
 IR Inten    --     17.8168                14.1363                14.0679
  Atom  AN      X      Y      Z        X      Y      Z        X      Y      Z
     1   8     0.00   0.00   0.00    -0.01  -0.02   0.01     0.02   0.01  -0.01
     2   1    -0.02  -0.08  -0.02     0.03   0.30  -0.01    -0.06  -0.32  -0.03
     3   6     0.03   0.06  -0.16     0.05   0.01   0.02     0.07  -0.00   0.02
     4   1    -0.31  -0.30   0.83     0.05  -0.03   0.01     0.08  -0.01   0.03
     5   6    -0.06  -0.06   0.13     0.03  -0.04  -0.00     0.04  -0.00   0.02
     6   6     0.06   0.07  -0.11    -0.05   0.04  -0.01    -0.10  -0.00  -0.04
     7   8     0.00   0.03   0.05     0.00  -0.01  -0.00    -0.02  -0.09  -0.04
     8   8    -0.03  -0.05  -0.00    -0.14  -0.01  -0.03    -0.03   0.12   0.04
     9   6     0.01  -0.03   0.01     0.03   0.06   0.08    -0.03  -0.12   0.06
    10   6     0.01   0.01  -0.00     0.17  -0.00  -0.02     0.06   0.02  -0.05
    11   1     0.05  -0.02   0.12    -0.04   0.01  -0.29    -0.33  -0.10   0.40
    12   1    -0.03   0.06  -0.03    -0.18  -0.25   0.25     0.06   0.17  -0.08
    13   1     0.04   0.08  -0.03     0.26  -0.00  -0.48     0.24   0.50  -0.18
    14   1     0.01   0.04  -0.01    -0.35  -0.25   0.17     0.11   0.36  -0.13
    15   1     0.03   0.01  -0.02    -0.19   0.04  -0.18    -0.05  -0.02   0.00
                     22                     23                     24
                      A                      A                      A
 Frequencies --   1128.4430              1142.8259              1181.1979
 Red. masses --      2.8915                 2.2299                 1.4417
 Frc consts  --      2.1694                 1.7159                 1.1852
 IR Inten    --     30.8613                26.8328                12.7219
  Atom  AN      X      Y      Z        X      Y      Z        X      Y      Z
     1   8    -0.00   0.01  -0.01     0.01   0.01   0.01     0.01   0.02  -0.01
     2   1     0.03  -0.09   0.07    -0.06  -0.10  -0.07    -0.03  -0.26   0.01
     3   6     0.06   0.00   0.02     0.02  -0.00   0.01    -0.02  -0.00  -0.01
     4   1     0.07  -0.00   0.02     0.02  -0.00   0.01    -0.02   0.00  -0.01
     5   6     0.03  -0.03  -0.00     0.01  -0.00   0.00    -0.01   0.01  -0.00
     6   6    -0.12   0.07  -0.01    -0.04   0.03  -0.02     0.04  -0.02   0.01
     7   8     0.01  -0.02  -0.00    -0.00  -0.02  -0.00     0.00   0.02   0.01
     8   8    -0.16   0.01  -0.08    -0.02   0.03   0.03     0.03  -0.04   0.01
     9   6     0.28   0.01   0.04     0.09  -0.02  -0.21    -0.03   0.11  -0.06
    10   6    -0.14  -0.04   0.01    -0.02  -0.05   0.22    -0.02  -0.12   0.03
    11   1     0.21  -0.02  -0.10     0.10   0.02   0.16    -0.11   0.09  -0.22
    12   1     0.51  -0.03   0.03     0.11   0.26  -0.35    -0.07  -0.11   0.05
    13   1    -0.13   0.12   0.30     0.05  -0.04  -0.19     0.25   0.65  -0.16
    14   1     0.13  -0.12  -0.02    -0.45   0.05   0.32    -0.17   0.08   0.05
    15   1     0.28  -0.12   0.51    -0.30   0.09  -0.43     0.02  -0.21   0.46
                     25                     26                     27
                      A                      A                      A
 Frequencies --   1219.6707              1310.6668              1375.6422
 Red. masses --      1.2157                 1.5031                 2.3758
 Frc consts  --      1.0655                 1.5214                 2.6489
 IR Inten    --     27.7299               195.6087               386.5825
  Atom  AN      X      Y      Z        X      Y      Z        X      Y      Z
     1   8     0.01   0.02   0.01     0.00   0.01   0.00    -0.00  -0.01   0.00
     2   1    -0.06  -0.11  -0.07    -0.02  -0.06  -0.02     0.01   0.04   0.00
     3   6    -0.00   0.00  -0.00     0.04  -0.00   0.01     0.04  -0.00   0.01
     4   1    -0.00   0.00  -0.00     0.04   0.00   0.01     0.04   0.00   0.02
     5   6    -0.00  -0.00  -0.00     0.01  -0.01   0.00     0.01  -0.01   0.00
     6   6     0.01   0.00   0.00    -0.14   0.10  -0.01    -0.18   0.14  -0.01
     7   8     0.00   0.01   0.01     0.01  -0.01  -0.00     0.03   0.02   0.01
     8   8    -0.01  -0.03  -0.03     0.06  -0.01   0.01     0.11  -0.15  -0.03
     9   6     0.02   0.06   0.06    -0.04  -0.03   0.00    -0.13   0.01   0.01
    10   6    -0.01  -0.08   0.01    -0.00  -0.05  -0.02     0.03   0.05   0.01
    11   1    -0.07   0.03  -0.17     0.85   0.02  -0.07    -0.31  -0.00   0.06
    12   1     0.22  -0.14   0.13    -0.42  -0.04   0.07     0.85  -0.06  -0.10
    13   1    -0.05  -0.08   0.14     0.01   0.04   0.02     0.04   0.00  -0.10
    14   1     0.18   0.63  -0.20     0.06   0.12  -0.08    -0.08  -0.15   0.08
    15   1    -0.44  -0.00  -0.40    -0.11  -0.04   0.03     0.08   0.00   0.00
                     28                     29                     30
                      A                      A                      A
 Frequencies --   1440.9614              1474.1610              1521.7532
 Red. masses --      1.4593                 1.1254                 1.0978
 Frc consts  --      1.7853                 1.4410                 1.4978
 IR Inten    --     73.0720                11.1720                29.8615
  Atom  AN      X      Y      Z        X      Y      Z        X      Y      Z
     1   8    -0.00  -0.00  -0.00    -0.00  -0.00  -0.00     0.00   0.00  -0.00
     2   1     0.01   0.01   0.01     0.00   0.01   0.00    -0.01  -0.02  -0.01
     3   6    -0.02   0.00  -0.01    -0.00   0.00  -0.00    -0.01   0.00  -0.00
     4   1    -0.02  -0.00  -0.01    -0.00  -0.00  -0.00    -0.01   0.00  -0.00
     5   6    -0.00   0.00   0.00    -0.00  -0.00   0.00    -0.00   0.00   0.00
     6   6     0.09  -0.06   0.01     0.00  -0.00  -0.00     0.03  -0.01   0.01
     7   8    -0.02  -0.01  -0.01    -0.00  -0.00  -0.00    -0.01  -0.01  -0.01
     8   8    -0.05   0.06  -0.02    -0.00   0.00  -0.00    -0.02   0.02  -0.01
     9   6    -0.12  -0.02   0.05    -0.01  -0.02   0.01    -0.02   0.04  -0.06
    10   6     0.03  -0.01   0.02     0.07  -0.00  -0.07     0.01   0.01  -0.01
    11   1     0.62   0.02  -0.24     0.02  -0.02  -0.01     0.21   0.12   0.66
    12   1     0.64   0.19  -0.18     0.04   0.05  -0.03     0.18  -0.63   0.26
    13   1     0.09   0.07  -0.15    -0.07   0.09   0.69    -0.00  -0.01   0.02
    14   1    -0.01  -0.03   0.03    -0.68   0.14   0.13    -0.03  -0.03   0.01
    15   1     0.03  -0.02   0.01     0.00  -0.04   0.01    -0.05   0.01   0.04
                     31                     32                     33
                      A                      A                      A
 Frequencies --   1554.3792              1895.8887              2335.5023
 Red. masses --      1.0583                12.1498                 5.5411
 Frc consts  --      1.5065                25.7303                17.8075
 IR Inten    --    216.8042               283.3516                91.2736
  Atom  AN      X      Y      Z        X      Y      Z        X      Y      Z
     1   8    -0.03  -0.01   0.01     0.00   0.00   0.00     0.00  -0.00  -0.00
     2   1     0.09   0.43   0.05    -0.01  -0.08  -0.04     0.00   0.01   0.00
     3   6     0.00   0.00   0.00    -0.07   0.01  -0.02    -0.35   0.03  -0.11
     4   1     0.00   0.00   0.00    -0.11   0.02  -0.03    -0.73   0.05  -0.22
     5   6     0.00   0.00   0.00     0.04  -0.02   0.01     0.50  -0.03   0.15
     6   6    -0.00   0.01   0.00     0.37   0.61   0.35    -0.09  -0.01  -0.03
     7   8    -0.00  -0.01  -0.00    -0.25  -0.39  -0.23     0.00   0.01   0.00
     8   8     0.00  -0.00   0.00     0.01  -0.07  -0.02    -0.00   0.00   0.00
     9   6     0.00   0.00  -0.01     0.02   0.00   0.01     0.00  -0.00  -0.00
    10   6    -0.03  -0.04   0.02    -0.01   0.01  -0.00    -0.00  -0.00   0.00
    11   1     0.02   0.01   0.04    -0.15  -0.02  -0.10     0.00  -0.00   0.00
    12   1    -0.02  -0.06   0.03    -0.10   0.11  -0.00    -0.00  -0.00   0.00
    13   1     0.07   0.27   0.00    -0.03  -0.05   0.02     0.00   0.00   0.00
    14   1     0.01   0.20  -0.04     0.02  -0.01  -0.01     0.00   0.00  -0.00
    15   1     0.62  -0.26  -0.47    -0.07  -0.01   0.04     0.00  -0.00  -0.00
                     34                     35                     36
                      A                      A                      A
 Frequencies --   3116.4204              3152.1138              3171.7323
 Red. masses --      1.0578                 1.0570                 1.1028
 Frc consts  --      6.0527                 6.1874                 6.5366
 IR Inten    --     12.2975                 3.2346                 2.7382
  Atom  AN      X      Y      Z        X      Y      Z        X      Y      Z
     1   8     0.00  -0.00  -0.00    -0.00   0.00   0.00     0.00   0.00  -0.00
     2   1    -0.00  -0.00   0.00     0.00   0.00  -0.00    -0.00   0.00   0.00
     3   6    -0.00   0.00  -0.00    -0.00  -0.00  -0.00    -0.00  -0.00   0.00
     4   1    -0.00   0.00  -0.00     0.00  -0.00   0.00     0.00  -0.00   0.00
     5   6     0.00  -0.00   0.00     0.00  -0.00   0.00     0.00   0.00  -0.00
     6   6    -0.00   0.00   0.00     0.00   0.00   0.00    -0.00  -0.00  -0.00
     7   8    -0.00  -0.00  -0.00    -0.00  -0.00  -0.00     0.00   0.00   0.00
     8   8     0.00  -0.00   0.00    -0.00  -0.00   0.00    -0.00  -0.00  -0.00
     9   6     0.01  -0.04   0.05     0.00   0.02   0.02    -0.00  -0.08  -0.05
    10   6    -0.00   0.00  -0.00     0.04  -0.03  -0.04     0.01  -0.01  -0.01
    11   1    -0.06   0.77  -0.07     0.01  -0.11   0.01    -0.05   0.61  -0.08
    12   1    -0.09  -0.29  -0.55    -0.03  -0.09  -0.18     0.10   0.32   0.66
    13   1     0.05  -0.02   0.02    -0.63   0.19  -0.14    -0.20   0.06  -0.04
    14   1    -0.00   0.00  -0.00     0.21   0.13   0.66     0.04   0.02   0.12
    15   1     0.00   0.01   0.00     0.00  -0.00  -0.01     0.00   0.00  -0.00
                     37                     38                     39
                      A                      A                      A
 Frequencies --   3240.0941              3532.6906              3814.2609
 Red. masses --      1.1084                 1.1799                 1.0647
 Frc consts  --      6.8562                 8.6755                 9.1267
 IR Inten    --      3.5111                55.2189                76.8920
  Atom  AN      X      Y      Z        X      Y      Z        X      Y      Z
     1   8     0.00  -0.00   0.00    -0.00   0.00   0.00    -0.05   0.01   0.03
     2   1    -0.00  -0.00  -0.00     0.00  -0.00  -0.00     0.82  -0.15  -0.54
     3   6     0.00   0.00   0.00    -0.11   0.01  -0.03     0.00   0.00   0.00
     4   1     0.00   0.00  -0.00     0.95  -0.07   0.29    -0.00  -0.00  -0.00
     5   6    -0.00   0.00  -0.00     0.04  -0.00   0.01     0.00   0.00   0.00
     6   6     0.00  -0.00  -0.00    -0.00   0.00  -0.00    -0.00  -0.00  -0.00
     7   8     0.00   0.00   0.00    -0.00  -0.00  -0.00    -0.00   0.00   0.00
     8   8     0.00   0.00   0.00    -0.00   0.00   0.00    -0.00   0.00   0.00
     9   6    -0.00  -0.00  -0.01    -0.00   0.00  -0.00     0.00  -0.00   0.00
    10   6    -0.07   0.01  -0.06     0.00  -0.00   0.00     0.00   0.00  -0.00
    11   1    -0.00   0.01  -0.00     0.00  -0.00   0.00    -0.00   0.00   0.00
    12   1     0.01   0.03   0.06     0.00  -0.00  -0.00    -0.00   0.00   0.00
    13   1     0.66  -0.21   0.13     0.00  -0.00  -0.00    -0.00  -0.00   0.00
    14   1     0.19   0.14   0.66    -0.00   0.00  -0.00     0.00  -0.00   0.00
    15   1    -0.01   0.00  -0.01    -0.00   0.00   0.00    -0.02  -0.02   0.01

 -------------------
 - Thermochemistry -
 -------------------
 Temperature   298.150 Kelvin.  Pressure   1.00000 Atm.
 Atom     1 has atomic number  8 and mass  15.99491
 Atom     2 has atomic number  1 and mass   1.00783
 Atom     3 has atomic number  6 and mass  12.00000
 Atom     4 has atomic number  1 and mass   1.00783
 Atom     5 has atomic number  6 and mass  12.00000
 Atom     6 has atomic number  6 and mass  12.00000
 Atom     7 has atomic number  8 and mass  15.99491
 Atom     8 has atomic number  8 and mass  15.99491
 Atom     9 has atomic number  6 and mass  12.00000
 Atom    10 has atomic number  6 and mass  12.00000
 Atom    11 has atomic number  1 and mass   1.00783
 Atom    12 has atomic number  1 and mass   1.00783
 Atom    13 has atomic number  1 and mass   1.00783
 Atom    14 has atomic number  1 and mass   1.00783
 Atom    15 has atomic number  1 and mass   1.00783
 Molecular mass:   115.03952 amu.
 Principal axes and moments of inertia in atomic units:
                           1         2         3
     Eigenvalues --   539.197611519.765571851.38998
           X            0.99971  -0.02395   0.00311
           Y            0.02397   0.99969  -0.00605
           Z           -0.00297   0.00613   0.99998
 This molecule is an asymmetric top.
 Rotational symmetry number  1.
 Warning -- assumption of classical behavior for rotation
           may cause significant error
 Rotational temperatures (Kelvin)      0.16063     0.05699     0.04678
 Rotational constants (GHZ):           3.34709     1.18751     0.97480
    3 imaginary frequencies ignored.
 Zero-point vibrational energy     282099.6 (Joules/Mol)
                                   67.42341 (Kcal/Mol)
 Warning -- explicit consideration of  10 degrees of freedom as
           vibrations may cause significant error
 Vibrational temperatures:     60.24   125.46   189.12   250.75   367.85
          (Kelvin)            452.22   567.07   631.95   795.49   829.06
                              903.45  1025.07  1125.48  1177.39  1255.83
                             1259.34  1334.93  1396.76  1623.58  1644.27
                             1699.48  1754.83  1885.76  1979.24  2073.22
                             2120.99  2189.46  2236.40  2727.76  3360.27
                             4483.83  4535.19  4563.42  4661.77  5082.75
                             5487.87
 
 Zero-point correction=                           0.107446 (Hartree/Particle)
 Thermal correction to Energy=                    0.115735
 Thermal correction to Enthalpy=                  0.116679
 Thermal correction to Gibbs Free Energy=         0.072806
 Sum of electronic and zero-point Energies=           -419.845343
 Sum of electronic and thermal Energies=              -419.837054
 Sum of electronic and thermal Enthalpies=            -419.836110
 Sum of electronic and thermal Free Energies=         -419.879982
 
                     E (Thermal)             CV                S
                      KCal/Mol        Cal/Mol-Kelvin    Cal/Mol-Kelvin
 Total                   72.625             28.702             92.338
 Electronic               0.000              0.000              1.377
 Translational            0.889              2.981             40.136
 Rotational               0.889              2.981             28.808
 Vibrational             70.847             22.740             22.017
 Vibration     1          0.594              1.980              5.169
 Vibration     2          0.601              1.958              3.722
 Vibration     3          0.612              1.922              2.925
 Vibration     4          0.627              1.874              2.389
 Vibration     5          0.666              1.753              1.691
 Vibration     6          0.702              1.646              1.340
 Vibration     7          0.761              1.483              0.984
 Vibration     8          0.799              1.385              0.829
 Vibration     9          0.908              1.133              0.538
 Vibration    10          0.933              1.083              0.492
                       Q            Log10(Q)             Ln(Q)
 Total Bot       0.324633D-33        -33.488608        -77.110369
 Total V=0       0.857234D+16         15.933099         36.687317
 Vib (Bot)       0.759068D-47        -47.119719       -108.497163
 Vib (Bot)    1  0.494098D+01          0.693813          1.597563
 Vib (Bot)    2  0.235897D+01          0.372722          0.858225
 Vib (Bot)    3  0.155039D+01          0.190441          0.438507
 Vib (Bot)    4  0.115469D+01          0.062466          0.143833
 Vib (Bot)    5  0.761314D+00         -0.118436         -0.272709
 Vib (Bot)    6  0.600101D+00         -0.221776         -0.510657
 Vib (Bot)    7  0.454152D+00         -0.342799         -0.789324
 Vib (Bot)    8  0.393820D+00         -0.404703         -0.931862
 Vib (Bot)    9  0.283052D+00         -0.548134         -1.262124
 Vib (Bot)   10  0.265449D+00         -0.576019         -1.326333
 Vib (V=0)       0.200442D+03          2.301988          5.300523
 Vib (V=0)    1  0.546621D+01          0.737687          1.698586
 Vib (V=0)    2  0.291138D+01          0.464098          1.068626
 Vib (V=0)    3  0.212902D+01          0.328180          0.755663
 Vib (V=0)    4  0.175830D+01          0.245092          0.564346
 Vib (V=0)    5  0.141082D+01          0.149473          0.344174
 Vib (V=0)    6  0.128110D+01          0.107584          0.247721
 Vib (V=0)    7  0.117547D+01          0.070210          0.161664
 Vib (V=0)    8  0.113647D+01          0.055558          0.127927
 Vib (V=0)    9  0.107456D+01          0.031230          0.071911
 Vib (V=0)   10  0.106609D+01          0.027796          0.064002
 Electronic      0.200000D+01          0.301030          0.693147
 Translational   0.484981D+08          7.685724         17.697035
 Rotational      0.440917D+06          5.644357         12.996612
 ***** Axes restored to original set *****
 -------------------------------------------------------------------
 Center     Atomic                   Forces (Hartrees/Bohr)
 Number     Number              X              Y              Z
 -------------------------------------------------------------------
      1        8           0.007820657   -0.013568191   -0.008124502
      2        1          -0.013446265    0.009523750    0.010520212
      3        6          -0.020440446    0.000892419   -0.006027435
      4        1          -0.000796128    0.000245946   -0.000218043
      5        6           0.024743413   -0.001231165    0.006993961
      6        6          -0.048524644   -0.015013349   -0.020982604
      7        8           0.027981396    0.035815161    0.021101332
      8        8           0.000652831   -0.014547310   -0.005278267
      9        6           0.015012207   -0.005847434    0.003135443
     10        6          -0.000862570   -0.004437914    0.000844740
     11        1           0.000112978   -0.000886270    0.000431320
     12        1           0.000364124    0.000602699    0.001705665
     13        1           0.002454686    0.002241560    0.000202637
     14        1          -0.000562679    0.002486142   -0.001868569
     15        1           0.005490441    0.003723957   -0.002435889
 -------------------------------------------------------------------
 Cartesian Forces:  Max     0.048524644 RMS     0.013290701

 GradGradGradGradGradGradGradGradGradGradGradGradGradGradGradGradGradGrad
 Berny optimization.
 Search for a local minimum.
 Step number   1 out of a maximum of    2
 All quantities printed in internal units (Hartrees-Bohrs-Radians)
 Second derivative matrix not updated -- analytic derivatives used.
 ITU=  0
     Eigenvalues ---   -0.12543  -0.00779  -0.00237   0.00037   0.00134
     Eigenvalues ---    0.00214   0.00707   0.00996   0.01195   0.01965
     Eigenvalues ---    0.02663   0.03270   0.04021   0.05475   0.06152
     Eigenvalues ---    0.06474   0.07370   0.08993   0.09769   0.10854
     Eigenvalues ---    0.11276   0.12110   0.16163   0.17660   0.20788
     Eigenvalues ---    0.24884   0.31208   0.35459   0.44348   0.54332
     Eigenvalues ---    0.66328   0.75034   0.81506   0.86275   0.92098
     Eigenvalues ---    0.96984   0.97832   1.83227   2.89892
 Eigenvalue     1 is  -1.25D-01 should be greater than     0.000000 Eigenvector:
                          Y15       Y1        Y10       X15       X1
   1                    0.85303  -0.32699  -0.26435   0.12220  -0.10856
                          Y13       Y2        Y14       Z15       X13
   1                    0.10469   0.10428   0.09459   0.09226   0.07956
 Eigenvalue     2 is  -7.79D-03 should be greater than     0.000000 Eigenvector:
                          Z2        Z7        Z1        X2        X1
   1                    0.46838   0.44744  -0.37983   0.27234  -0.25387
                          Z15       Y14       Y2        X15       Z8
   1                   -0.23413  -0.19615  -0.16199  -0.14835  -0.13168
 Eigenvalue     3 is  -2.37D-03 should be greater than     0.000000 Eigenvector:
                          Z2        Z7        X2        Z8        X14
   1                    0.57216  -0.41106   0.33938   0.27609  -0.23490
                          Z13       Y8        X15       X10       X7
   1                   -0.17824  -0.15298  -0.14604  -0.14240   0.12268
 Quadratic step=3.503D-01 exceeds max=3.000D-01 adjusted using Lamda=-6.539D-04.
 Angle between NR and scaled steps=   8.22 degrees.
 Angle between quadratic step and forces=  70.81 degrees.
 Linear search not attempted -- first point.
 B after Tr=     0.000816   -0.003778   -0.002523
         Rot=    0.999996    0.002528   -0.000476    0.001477 Ang=   0.34 deg.
 Variable       Old X    -DE/DX   Delta X   Delta X   Delta X     New X
                                 (Linear)    (Quad)   (Total)
    X1        4.42668   0.00782   0.00000  -0.03454  -0.02526   4.40142
    Y1        3.14192  -0.01357   0.00000  -0.05742  -0.07746   3.06446
    Z1       -0.62828  -0.00812   0.00000  -0.01024  -0.03250  -0.66078
    X2        2.90050  -0.01345   0.00000  -0.00205   0.00960   2.91010
    Y2        3.36092   0.00952   0.00000   0.18409   0.17371   3.53463
    Z2        0.36661   0.01052   0.00000   0.03363   0.01044   0.37705
    X3       -6.26917  -0.02044   0.00000  -0.02529  -0.02437  -6.29354
    Y3        0.35760   0.00089   0.00000  -0.00995  -0.00011   0.35749
    Z3       -0.97559  -0.00603   0.00000  -0.01056  -0.00888  -0.98446
    X4       -8.18911  -0.00080   0.00000  -0.02735  -0.02668  -8.21578
    Y4        0.49493   0.00025   0.00000  -0.04209  -0.02959   0.46533
    Z4       -1.56383  -0.00022   0.00000  -0.02042  -0.01745  -1.58127
    X5       -4.11078   0.02474   0.00000  -0.00664  -0.00539  -4.11617
    Y5        0.20248  -0.00123   0.00000   0.04078   0.04760   0.25008
    Z5       -0.31236   0.00699   0.00000   0.00250   0.00264  -0.30972
    X6       -1.49494  -0.04852   0.00000  -0.03150  -0.02976  -1.52470
    Y6        0.11642  -0.01501   0.00000   0.02836   0.03165   0.14808
    Z6        0.51671  -0.02098   0.00000  -0.01055  -0.01237   0.50435
    X7       -0.43364   0.02798   0.00000   0.06998   0.07784  -0.35580
    Y7        1.86355   0.03582   0.00000   0.04010   0.04487   1.90842
    Z7        1.50938   0.02110   0.00000  -0.02345  -0.03528   1.47410
    X8       -0.46248   0.00065   0.00000  -0.01813  -0.02359  -0.48607
    Y8       -2.12832  -0.01455   0.00000  -0.02304  -0.02500  -2.15331
    Z8        0.05114  -0.00528   0.00000   0.02132   0.03013   0.08126
    X9        2.11960   0.01501   0.00000   0.03256   0.02668   2.14629
    Y9       -2.48876  -0.00585   0.00000  -0.05252  -0.05834  -2.54710
    Z9        0.83588   0.00314   0.00000   0.00986   0.01814   0.85403
   X10        3.96611  -0.00086   0.00000   0.00384  -0.00110   3.96501
   Y10       -1.55907  -0.00444   0.00000  -0.02475  -0.04582  -1.60489
   Z10       -1.11709   0.00084   0.00000   0.01196   0.01370  -1.10339
   X11        2.28246   0.00011   0.00000   0.00397  -0.00780   2.27465
   Y11       -4.53306  -0.00089   0.00000  -0.06268  -0.06797  -4.60103
   Z11        1.06475   0.00043   0.00000  -0.04146  -0.02292   1.04183
   X12        2.40927   0.00036   0.00000   0.03118   0.02966   2.43893
   Y12       -1.58047   0.00060   0.00000  -0.08588  -0.08321  -1.66369
   Z12        2.66496   0.00171   0.00000   0.03116   0.03472   2.69968
   X13        5.88810   0.00245   0.00000   0.04237   0.03626   5.92436
   Y13       -2.18094   0.00224   0.00000   0.08088   0.05593  -2.12501
   Z13       -0.72225   0.00020   0.00000  -0.00526  -0.00276  -0.72502
   X14        3.39628  -0.00056   0.00000   0.00546  -0.00235   3.39393
   Y14       -1.98233   0.00249   0.00000   0.05717   0.02793  -1.95440
   Z14       -3.04915  -0.00187   0.00000  -0.00555  -0.00152  -3.05067
   X15        4.21076   0.00549   0.00000  -0.03632  -0.03374   4.17702
   Y15        0.90039   0.00372   0.00000   0.02694   0.00581   0.90620
   Z15       -1.02503  -0.00244   0.00000   0.03505   0.02390  -1.00113
         Item               Value     Threshold  Converged?
 Maximum Force            0.048525     0.000450     NO 
 RMS     Force            0.013291     0.000300     NO 
 Maximum Displacement     0.173710     0.001800     NO 
 RMS     Displacement     0.043285     0.001200     NO 
 Predicted change in Energy=-5.243406D-03
 GradGradGradGradGradGradGradGradGradGradGradGradGradGradGradGradGradGrad


 ----------------------------------------------------------------------

 Electric dipole moment (input orientation):
 (Debye = 10**-18 statcoulomb cm , SI units = C m)
                  (au)            (Debye)         (10**-30 SI)
   Tot        0.171959D+01      0.437076D+01      0.145793D+02
   x         -0.923459D+00     -0.234720D+01     -0.782941D+01
   y         -0.144981D+01     -0.368505D+01     -0.122920D+02
   z          0.475283D-01      0.120805D+00      0.402962D+00

 Dipole polarizability, Alpha (input orientation).
 (esu units = cm**3 , SI units = C**2 m**2 J**-1)
 Alpha(0;0):
               (au)            (10**-24 esu)      (10**-40 SI)
   iso        0.708197D+02      0.104944D+02      0.116766D+02
   aniso      0.383965D+02      0.568977D+01      0.633073D+01
   xx         0.889679D+02      0.131837D+02      0.146688D+02
   yx        -0.275720D+00     -0.408575D-01     -0.454601D-01
   yy         0.748914D+02      0.110978D+02      0.123479D+02
   zx         0.796945D+01      0.118095D+01      0.131398D+01
   zy         0.283084D+01      0.419487D+00      0.466742D+00
   zz         0.485998D+02      0.720175D+01      0.801303D+01

 ----------------------------------------------------------------------

 Dipole orientation:
     8          1.46268241         -1.51150139         -5.04358810
     1          0.80259429          0.06724480         -4.38114405
     6         -5.19128073          2.04986842          3.03822465
     1         -6.94881352          2.44216055          3.93723190
     6         -3.21410453          1.61024760          2.02823357
     6         -0.84921635          1.13020283          0.71894121
     8         -0.32244705          2.03812509         -1.29659218
     8          0.63249438         -0.40922998          2.04418912
     6          3.07018415         -0.99636376          0.98313533
     6          2.94008958         -3.16990313         -0.84629711
     1          4.21095021         -1.50536325          2.62558847
     1          3.86063346          0.69813380          0.11234539
     1          4.80872656         -3.87553647         -1.34322721
     1          1.67910187         -4.67827178         -0.23682575
     1          2.08189472         -2.44188818         -3.04873799

 Electric dipole moment (dipole orientation):
 (Debye = 10**-18 statcoulomb cm , SI units = C m)
                  (au)            (Debye)         (10**-30 SI)
   Tot        0.171959D+01      0.437076D+01      0.145793D+02
   x          0.000000D+00      0.000000D+00      0.000000D+00
   y          0.000000D+00      0.000000D+00      0.000000D+00
   z          0.171959D+01      0.437076D+01      0.145793D+02

 Dipole polarizability, Alpha (dipole orientation).
 (esu units = cm**3 , SI units = C**2 m**2 J**-1)
 Alpha(0;0):
               (au)            (10**-24 esu)      (10**-40 SI)
   iso        0.708197D+02      0.104944D+02      0.116766D+02
   aniso      0.383965D+02      0.568977D+01      0.633073D+01
   xx         0.795860D+02      0.117934D+02      0.131220D+02
   yx        -0.141153D+02     -0.209167D+01     -0.232730D+01
   yy         0.545604D+02      0.808501D+01      0.899579D+01
   zx        -0.918228D+01     -0.136067D+01     -0.151395D+01
   zy        -0.303239D+01     -0.449353D+00     -0.499973D+00
   zz         0.783127D+02      0.116047D+02      0.129120D+02

 ----------------------------------------------------------------------
 1\1\GINC-AJ\Freq\UM062X\6-31+G\C5H7O3(2)\AAYUSH\20-Jun-2025\0\\# freq 
 6-31+g m062x\\Title Card Required\\0,2\O,2.342498,1.66263,-0.33247\H,1
 .53488,1.778522,0.194004\C,-3.317503,0.189234,-0.516258\H,-4.333488,0.
 261904,-0.827541\C,-2.175332,0.107149,-0.165296\C,-0.79109,0.061609,0.
 273433\O,-0.229474,0.986148,0.798727\O,-0.244733,-1.126256,0.02706\C,1
 .121646,-1.316993,0.44233\C,2.098777,-0.825022,-0.591138\H,1.207824,-2
 .398792,0.563442\H,1.274932,-0.836351,1.410236\H,3.11585,-1.154102,-0.
 3822\H,1.797236,-1.049004,-1.613541\H,2.228239,0.476466,-0.542424\\Ver
 sion=ES64L-G16RevA.03\State=2-A\HF=-419.9527889\S2=0.760827\S2-1=0.\S2
 A=0.750048\RMSD=3.624e-09\RMSF=1.329e-02\ZeroPoint=0.107446\Thermal=0.
 1157349\Dipole=-0.9234587,-1.4498118,0.0475283\DipoleDeriv=-0.4612562,
 0.1039157,-0.1098266,0.0814943,-0.0595572,0.0593955,-0.0881853,0.07289
 71,-0.5289477,0.321286,-0.0575279,0.0911789,0.0811598,0.4117928,-0.004
 634,0.0746859,0.0625154,0.3065924,-0.2089845,-0.0031197,0.0134397,-0.0
 070818,-0.2070075,0.0015116,0.011611,-0.0005358,-0.1962397,0.2719819,-
 0.0012837,0.003528,-0.0024553,0.2651065,0.0051017,0.0050863,0.0056258,
 0.2524149,-0.7060003,0.0503578,-0.1732799,0.0767031,-0.1001945,-0.0127
 443,-0.2239008,-0.0056938,-0.1119159,2.0452381,-0.1791261,0.3641678,-0
 .5974541,1.5857313,0.3490898,0.2917542,0.3772307,0.6756064,-0.9303911,
 -0.2026957,-0.1965217,-0.0796028,-0.8640416,-0.219537,-0.1187483,-0.27
 18609,-0.5379169,-1.2977348,0.4051016,0.0045315,0.6937323,-0.9721059,-
 0.0898604,-0.0098103,-0.0634631,-0.4071453,0.8252451,-0.116106,-0.0103
 016,-0.245852,0.0551984,0.0151785,0.0954889,-0.0695193,0.2555676,-0.04
 86564,0.1288814,0.0049759,0.198909,0.7986792,0.0430243,0.0191557,0.018
 5684,-0.0137661,-0.0083568,-0.075075,0.0224119,0.0453525,-0.0440033,0.
 0371644,0.011178,0.0512909,0.1026986,-0.0085766,0.0223441,0.0315908,-0
 .0120474,0.0850355,-0.088339,-0.0289853,-0.0152844,-0.0201353,-0.05406
 23,0.0035899,-0.0099063,0.0528139,-0.0162103,0.0141259,-0.0283445,-0.0
 013457,0.0791004,0.083026,-0.0132916,-0.0527922,-0.0618973,-0.0434764,
 -0.0545779,0.0030025,0.0289712,-0.0272555,0.177242,-0.0659646,0.016803
 9,-0.2237742,-0.8949471,-0.0548991,-0.0139878,-0.1893964,0.1713421\Pol
 ar=88.967858,-0.27572,74.891394,7.9694475,2.8308377,48.5998264\Quadrup
 ole=4.3954826,-3.9454397,-0.4500428,-8.0741821,3.2389699,-0.4659735\PG
 =C01 [X(C5H7O3)]\NImag=3\\0.37592026,-0.04743444,0.07680716,-0.2394273
 3,0.04431118,0.16519161,-0.35145322,0.06730714,0.23426299,0.35648407,0
 .03555429,-0.02338288,-0.02739187,-0.05784656,0.04189230,0.22661855,-0
 .04738747,-0.15057434,-0.23539276,0.04679962,0.15404335,-0.00013401,-0
 .00009938,0.00018560,0.00018629,0.00047951,-0.00015218,1.51016563,-0.0
 0004389,0.00005222,-0.00004484,-0.00002193,-0.00008640,-0.00005348,-0.
 10104386,0.07464172,-0.00005790,0.00005877,0.00003608,0.00012803,0.000
 05705,0.00001420,0.43976223,-0.03421196,0.21205009,0.00008903,0.,0.000
 00779,-0.00010311,-0.00006808,-0.00002431,-0.39816830,0.02570727,-0.11
 064788,0.38717821,0.00003840,0.00000236,0.00001741,-0.00005009,0.00002
 588,0.00001379,0.02569158,-0.03570870,0.00901196,-0.02623440,0.0211132
 1,0.00004537,0.00002584,-0.00006133,-0.00006841,-0.00003336,0.00006038
 ,-0.11054671,0.00901229,-0.07079375,0.11235715,-0.00848730,0.05488273,
 -0.00042137,-0.00003361,0.00036362,0.00081370,0.00072003,-0.00022835,-
 1.11578376,0.07492216,-0.32546729,0.01195819,0.00058880,-0.00069491,1.
 44932533,-0.00024685,-0.00032609,0.00026628,0.00064691,0.00019476,-0.0
 0041495,0.07314171,-0.05101047,0.02545686,0.00031028,0.01068127,-0.001
 16206,-0.09126782,0.13367878,-0.00062764,-0.00049059,0.00054137,0.0006
 7306,0.00105068,-0.00047646,-0.32552638,0.02592012,-0.15561829,-0.0006
 9236,-0.00107751,0.01371278,0.41508864,-0.01627338,0.23206732,0.000783
 36,-0.00024466,-0.00015376,-0.00270054,-0.00402646,-0.00112576,0.00952
 137,-0.00119584,-0.00343963,-0.00170056,0.00017201,-0.00171781,-0.2687
 6788,0.00940880,-0.05039070,0.72472257,0.00701289,0.00222519,-0.001151
 36,-0.01064254,-0.00287521,0.00173279,0.00027536,0.01201947,-0.0018610
 7,0.00077620,0.00381431,0.00025965,0.01492839,-0.07671173,0.01452256,0
 .11834748,0.84592160,0.00303782,0.00128923,-0.00191217,-0.00435427,-0.
 00163750,0.00216122,-0.00348536,-0.00238988,0.01665484,-0.00149537,0.0
 0015717,0.00322289,-0.04797213,0.01214094,-0.11647048,0.21695100,0.271
 38612,0.37424097,-0.00653754,-0.00403957,0.00255406,-0.00175671,0.0030
 2297,0.00191886,-0.00277813,0.00200882,0.00032269,0.00036489,0.0010947
 1,0.00082968,-0.03816663,-0.04227987,-0.03683861,-0.26127930,-0.265224
 54,-0.16185753,0.27584881,-0.00679038,-0.00194731,0.00173683,0.0048839
 7,0.00036712,-0.00084691,0.00280954,-0.00081502,0.00126371,-0.00000009
 ,0.00011616,0.00037237,-0.02652524,-0.00011848,-0.01877886,-0.26049960
 ,-0.49495653,-0.24317111,0.30058131,0.59243454,0.00148542,0.00078488,0
 .00186021,0.00250481,-0.00055629,-0.00441014,0.00088199,0.00126361,-0.
 00129083,0.00036910,0.00062594,-0.00045681,-0.03126147,-0.02349999,0.0
 0837100,-0.16093098,-0.24800218,-0.20652786,0.19073128,0.30791525,0.19
 266892,0.00223183,0.00019444,0.00035392,-0.00378801,0.00023734,0.00068
 453,-0.00401972,-0.00043167,-0.00132358,0.00056282,-0.00123961,-0.0001
 4752,-0.04239562,0.04867845,-0.00108616,-0.15852610,0.11798296,0.01056
 658,0.03362444,-0.00373732,-0.00265276,0.45707482,-0.00281865,-0.00118
 910,0.00027815,0.00542154,0.00031559,-0.00160407,-0.00103520,0.0008804
 2,0.00016541,-0.00057589,-0.00014115,-0.00015123,0.02544161,-0.0141087
 6,-0.00159130,0.08421135,-0.27343067,-0.05227935,0.00237612,-0.0976270
 3,-0.04312348,-0.16900921,0.45885197,-0.00052496,-0.00025533,0.0006575
 7,0.00105980,-0.00007609,-0.00068272,-0.00157771,0.00016931,-0.0007769
 3,0.00007169,-0.00033280,-0.00038688,-0.00910530,0.00657390,0.01213437
 ,-0.00322743,-0.03804314,-0.07463346,0.00030000,-0.04711273,0.01359796
 ,0.07212355,0.08627914,0.13095486,-0.00147899,0.00128846,-0.00051549,0
 .00371242,-0.00058569,-0.00071219,0.00164294,0.00037603,0.00085994,-0.
 00030359,0.00002001,-0.00006604,0.00489277,-0.00132076,-0.00056566,-0.
 03702483,0.03670542,-0.00146713,-0.00448179,-0.01731672,-0.00590234,-0
 .19134640,0.02849329,-0.04140486,0.46064732,0.00096438,0.00587860,0.00
 114666,-0.00233543,-0.00024646,0.00139247,-0.00023585,0.00002527,0.000
 10485,0.00010992,0.00008458,0.00014653,0.00133707,-0.00204531,-0.00315
 831,0.05121646,-0.02199498,0.01180986,0.00336177,0.00440250,0.00351700
 ,-0.00339330,-0.07710547,-0.00890195,-0.01312849,0.60966167,-0.0013385
 8,-0.00330687,-0.00069773,0.00070272,0.00047372,0.00090620,0.00081114,
 0.00044036,-0.00038996,0.00000312,0.00009449,-0.00021639,-0.00049908,-
 0.00406292,0.00663679,0.00443362,0.01171982,0.00590427,-0.00194633,-0.
 00310849,-0.00630706,-0.05302075,0.00077745,-0.08463740,0.00362536,0.0
 3727750,0.56929965,-0.00050865,-0.01738528,-0.00051561,0.00114967,0.00
 275794,-0.00220692,-0.00015514,-0.00006901,-0.00017107,0.00002969,-0.0
 0003660,0.00010085,-0.00030355,0.00117627,-0.00113627,-0.00001757,-0.0
 0628578,-0.00078935,0.00058242,0.00137876,0.00213872,-0.04623408,-0.00
 741136,0.02309344,-0.12814176,-0.03152854,0.05181902,0.56424771,-0.019
 81598,-0.12518116,-0.01669755,0.00940831,0.00338544,-0.00506086,0.0003
 1084,-0.00025748,0.00030097,-0.00009078,0.00014984,-0.00000731,0.00065
 865,-0.00075594,-0.00033187,-0.00087336,0.01289270,0.00380508,-0.00418
 501,-0.00622597,-0.00069752,0.01273639,-0.00237991,-0.00736272,-0.0340
 9772,-0.07954640,0.03074681,-0.02759216,0.22947178,0.00068217,-0.00344
 916,0.00279838,-0.00166657,-0.00110179,-0.00062975,-0.00032799,-0.0000
 5776,0.00006192,0.00003832,-0.00001347,0.00003561,0.00024014,0.0006153
 9,-0.00110945,-0.00002311,-0.00423315,-0.00010946,0.00011354,0.0013649
 7,0.00079529,-0.01154773,-0.00080965,0.01177282,0.06549035,0.04081968,
 -0.15973424,0.04809247,-0.00527428,0.56270136,0.00035231,0.00054208,-0
 .00001870,-0.00070547,0.00010754,0.00039095,-0.00043028,-0.00010769,-0
 .00013144,0.00006151,-0.00003233,-0.00004217,-0.00091641,0.00118837,0.
 00068221,-0.00441495,-0.00297729,-0.00526780,0.00188629,0.00103797,0.0
 0090276,-0.02336299,0.04309087,-0.00620745,-0.04088523,0.00574191,-0.0
 0062732,0.00039363,-0.02002597,0.00504118,0.06606763,-0.00010033,-0.00
 115263,-0.00029951,0.00017740,0.00030066,-0.00014253,0.00014055,0.0000
 0186,-0.00001697,-0.00001509,0.00000294,0.00000288,0.00033878,-0.00018
 435,0.00026215,-0.00162372,0.00154894,0.00084589,0.00069514,-0.0000943
 7,0.00029927,0.00365212,-0.00443774,-0.00100417,0.02324355,-0.31850489
 ,0.02437358,-0.00358924,-0.01179536,0.00303114,-0.02285102,0.34368759,
 0.00010092,0.00037651,0.00022503,0.00019777,0.00001172,-0.00036582,-0.
 00006112,-0.00005054,-0.00007967,-0.00000192,0.00000207,-0.00000575,-0
 .00035738,0.00031592,0.00045530,-0.00190356,-0.00240380,-0.00195798,0.
 00186596,-0.00039018,0.00098221,-0.00740679,0.01353537,-0.00060327,-0.
 00218045,0.02524184,-0.05254187,0.00371515,0.02556792,-0.00567492,0.00
 309807,-0.03149233,0.05498157,0.00000814,0.00055426,-0.00059665,-0.000
 03194,-0.00026383,0.00025857,-0.00007694,-0.00003381,0.00006703,0.0000
 6954,0.00000235,-0.00003736,-0.00028494,0.00012764,0.00043556,0.001157
 44,-0.00740426,-0.00354346,0.00119889,0.00265301,0.00169238,-0.0243351
 9,-0.00945414,-0.03631528,-0.05393349,-0.01051894,-0.02312821,0.006366
 92,0.00882330,0.02141006,0.00230762,0.00052157,0.00243426,0.07008161,0
 .00001668,0.00056785,-0.00068426,0.00043061,-0.00076243,0.00046689,-0.
 00014517,0.00007544,0.00002281,-0.00002084,-0.00000584,0.00003486,-0.0
 0017738,-0.00006200,-0.00083541,0.00251126,0.00237938,0.00192400,-0.00
 011261,-0.00205688,0.00023019,0.00219494,0.00244467,0.00780469,-0.0175
 3680,-0.10660205,-0.11326984,0.00070493,0.00549683,0.01437766,-0.00374
 809,-0.01333297,-0.02964810,0.01730147,0.11184304,0.00019436,0.0007647
 1,0.00064809,-0.00026288,0.00078256,-0.00034232,0.00006228,-0.00007371
 ,0.00012167,0.00000593,-0.00000755,-0.00000286,0.00010155,0.00043279,-
 0.00024641,-0.00015058,-0.00483753,-0.00066144,0.00291198,0.00054528,0
 .00120788,-0.00906524,-0.00168503,-0.00754493,-0.03309521,-0.10664871,
 -0.26247983,-0.00029732,-0.00792926,-0.02104208,0.00115062,0.00256888,
 0.00463426,0.03556482,0.11727191,0.28736059,0.00136258,0.00212967,0.00
 053575,-0.00055726,-0.00065859,0.00026249,-0.00009678,0.00001589,-0.00
 002515,0.00002832,-0.00000958,0.00000649,-0.00022623,0.00025969,-0.000
 21011,0.00076074,-0.00307949,-0.00066182,0.00061214,0.00098624,0.00047
 472,-0.00348408,0.00035219,0.00395706,-0.01622428,0.00806768,-0.008182
 85,-0.29929715,0.08178026,-0.05060313,0.00046796,-0.00029041,-0.000438
 02,0.00007386,0.00014413,0.00061742,0.32301739,0.00075301,0.00778836,-
 0.00011109,-0.00105021,-0.00077619,0.00149794,-0.00003693,0.00000852,-
 0.00005443,0.00000478,-0.00002377,0.00000806,-0.00009026,0.00027454,0.
 00007154,-0.00062303,-0.00268185,-0.00054421,0.00104252,0.00106145,0.0
 0008428,-0.00402043,0.00167784,0.00229434,-0.01133935,0.00371400,-0.00
 139455,0.09454301,-0.05608254,0.02230670,0.00033439,0.00069119,-0.0009
 4054,0.00015432,0.00005196,0.00016424,-0.08878792,0.06135795,0.0007302
 4,0.00168862,-0.00023269,-0.00007764,-0.00040220,0.00004788,0.00011778
 ,0.00001571,-0.00003619,-0.00000422,0.00001215,-0.00001314,0.00000039,
 -0.00035029,0.00044559,0.00030008,0.00169536,-0.00007235,-0.00024187,-
 0.00038709,-0.00041469,0.00528215,0.00061445,-0.00268161,0.02084997,-0
 .00720880,0.00634079,-0.05230600,0.01959384,-0.06284322,-0.00032950,0.
 00021398,0.00096902,-0.00102074,-0.00072068,-0.00006299,0.05487439,-0.
 02180790,0.06070235,-0.00058443,-0.00156921,0.00042623,0.00027668,0.00
 033543,0.00001512,0.00002326,-0.00000734,0.00004250,-0.00002915,0.0000
 0881,0.00000451,0.00011331,-0.00008108,-0.00000320,-0.00055276,0.00172
 872,0.00078078,-0.00032973,-0.00061764,-0.00036760,0.00394727,-0.00013
 607,-0.00167036,0.00418789,0.00405100,0.02503134,-0.07378417,-0.017683
 43,-0.07844118,0.00015649,0.00007610,-0.00035867,-0.00279436,-0.001751
 94,0.00299704,-0.00494050,-0.00672635,-0.02804133,0.07411421,0.0017129
 0,0.00548869,0.00190908,-0.00190343,-0.00018463,0.00014885,-0.00002200
 ,-0.00001562,-0.00005751,0.00002280,-0.00000638,-0.00001187,-0.0001193
 6,0.00010698,0.00023885,0.00058408,-0.00121291,-0.00088016,0.00043185,
 0.00085813,0.00004328,0.00028653,0.00022237,-0.00051085,0.00246854,0.0
 0573077,0.01443896,-0.02034833,-0.04360405,-0.06650442,0.00071423,0.00
 014894,-0.00087333,-0.00190235,-0.00064538,0.00060700,0.00363984,0.004
 41764,0.01023155,0.01996519,0.04543473,0.00012810,-0.00209092,0.000475
 26,0.00026535,0.00025835,-0.00030812,0.00002350,-0.00001310,0.00005306
 ,0.00000483,0.00000185,0.00000007,0.00008214,0.00002332,-0.00017020,0.
 00023362,-0.00017458,-0.00035476,0.00010384,-0.00000147,0.00025663,-0.
 00120718,-0.00076214,0.00287600,-0.00775348,-0.00616112,-0.02114254,-0
 .07547380,-0.05435367,-0.30202490,0.00006408,0.00015411,0.00024226,0.0
 0259975,0.00235315,-0.00125766,0.00120731,-0.00256609,-0.00247278,0.08
 082576,0.05915222,0.32546056,-0.01962930,-0.00120991,0.00253755,-0.001
 52658,0.02023416,0.00969341,0.00010357,-0.00007512,0.00008152,-0.00003
 750,-0.00001405,-0.00002311,0.00016309,0.00025825,0.00019763,-0.001960
 99,-0.00214351,-0.00044195,0.00121193,0.00115620,-0.00006604,0.0000509
 9,0.00105356,-0.00057219,-0.00126300,-0.01370964,0.00231683,-0.0243279
 7,0.01064667,0.00150149,-0.00097812,-0.00037539,0.00129577,0.00019283,
 0.00018880,-0.00073477,-0.00149672,0.01584246,-0.00013370,0.00019597,-
 0.00553048,-0.00110382,0.04930179,0.03119798,0.05436875,-0.00328512,-0
 .01442569,-0.01816755,0.00345793,-0.00023069,0.00018877,-0.00024045,0.
 00007392,-0.00010471,-0.00000935,-0.00072182,0.00038680,0.00047133,0.0
 0263522,-0.00693771,-0.00245610,0.00122639,0.00460169,0.00111577,-0.00
 413162,0.00602698,0.00047843,0.00273025,-0.02345182,0.00479999,0.01368
 539,0.07443223,-0.00107184,-0.00301498,0.00312017,0.00074748,-0.000560
 59,0.00060839,-0.00195559,-0.00454960,-0.02147909,-0.00318871,0.002407
 82,-0.01673926,0.00418008,-0.02632197,-0.05685363,0.00895346,0.0076806
 0,-0.01895534,0.00202799,-0.01823459,0.00055644,-0.00016707,0.00007388
 ,-0.00000622,0.00000813,-0.00001818,0.00002244,-0.00029057,-0.00006180
 ,-0.00027323,0.00114501,-0.00060949,0.00051578,-0.00076755,0.00059845,
 -0.00033272,-0.00155302,0.00035629,-0.00004638,0.00283723,0.01062250,-
 0.00094069,0.00393669,0.01770042,-0.02499737,0.00129452,0.00120362,-0.
 00126036,0.00017927,0.00067211,-0.00033197,-0.00181453,0.00099171,0.00
 032403,-0.00124094,-0.01793167,-0.00163288,-0.01454860,-0.00304385,0.0
 4735847\\-0.00782066,0.01356819,0.00812450,0.01344627,-0.00952375,-0.0
 1052021,0.02044045,-0.00089242,0.00602744,0.00079613,-0.00024595,0.000
 21804,-0.02474341,0.00123117,-0.00699396,0.04852464,0.01501335,0.02098
 260,-0.02798140,-0.03581516,-0.02110133,-0.00065283,0.01454731,0.00527
 827,-0.01501221,0.00584743,-0.00313544,0.00086257,0.00443791,-0.000844
 74,-0.00011298,0.00088627,-0.00043132,-0.00036412,-0.00060270,-0.00170
 566,-0.00245469,-0.00224156,-0.00020264,0.00056268,-0.00248614,0.00186
 857,-0.00549044,-0.00372396,0.00243589\\\@


 ... THE UNIVERSE IS NOT ONLY QUEERER THAN WE SUPPOSE,
 BUT QUEERER THAN WE CAN SUPPOSE ... 

                                   -- J. B. S. HALDANE
 Job cpu time:       0 days  0 hours 19 minutes 28.5 seconds.
 Elapsed time:       0 days  0 hours  0 minutes 48.8 seconds.
 File lengths (MBytes):  RWF=     59 Int=      0 D2E=      0 Chk=      8 Scr=      1
 Normal termination of Gaussian 16 at Fri Jun 20 12:51:27 2025.
