 Entering Gaussian System, Link 0=g16
 Initial command:
 /opt/g16/l1.exe "/home/aayush/scratches/g16/Gau-8799.inp" -scrdir="/home/aayush/scratches/g16/"
 Entering Link 1 = /opt/g16/l1.exe PID=      8802.
  
 Copyright (c) 1988,1990,1992,1993,1995,1998,2003,2009,2016,
            Gaussian, Inc.  All Rights Reserved.
  
 This is part of the Gaussian(R) 16 program.  It is based on
 the Gaussian(R) 09 system (copyright 2009, Gaussian, Inc.),
 the Gaussian(R) 03 system (copyright 2003, Gaussian, Inc.),
 the Gaussian(R) 98 system (copyright 1998, Gaussian, Inc.),
 the Gaussian(R) 94 system (copyright 1995, Gaussian, Inc.),
 the Gaussian 92(TM) system (copyright 1992, Gaussian, Inc.),
 the Gaussian 90(TM) system (copyright 1990, Gaussian, Inc.),
 the Gaussian 88(TM) system (copyright 1988, Gaussian, Inc.),
 the Gaussian 86(TM) system (copyright 1986, Carnegie Mellon
 University), and the Gaussian 82(TM) system (copyright 1983,
 Carnegie Mellon University). Gaussian is a federally registered
 trademark of Gaussian, Inc.
  
 This software contains proprietary and confidential information,
 including trade secrets, belonging to Gaussian, Inc.
  
 This software is provided under written license and may be
 used, copied, transmitted, or stored only in accord with that
 written license.
  
 The following legend is applicable only to US Government
 contracts under FAR:
  
                    RESTRICTED RIGHTS LEGEND
  
 Use, reproduction and disclosure by the US Government is
 subject to restrictions as set forth in subparagraphs (a)
 and (c) of the Commercial Computer Software - Restricted
 Rights clause in FAR 52.227-19.
  
 Gaussian, Inc.
 340 Quinnipiac St., Bldg. 40, Wallingford CT 06492
  
  
 ---------------------------------------------------------------
 Warning -- This program may not be used in any manner that
 competes with the business of Gaussian, Inc. or will provide
 assistance to any competitor of Gaussian, Inc.  The licensee
 of this program is prohibited from giving any competitor of
 Gaussian, Inc. access to this program.  By using this program,
 the user acknowledges that Gaussian, Inc. is engaged in the
 business of creating and licensing software in the field of
 computational chemistry and represents and warrants to the
 licensee that it is not a competitor of Gaussian, Inc. and that
 it will not use this program in any manner prohibited above.
 ---------------------------------------------------------------
  

 Cite this work as:
 Gaussian 16, Revision A.03,
 M. J. Frisch, G. W. Trucks, H. B. Schlegel, G. E. Scuseria, 
 M. A. Robb, J. R. Cheeseman, G. Scalmani, V. Barone, 
 G. A. Petersson, H. Nakatsuji, X. Li, M. Caricato, A. V. Marenich, 
 J. Bloino, B. G. Janesko, R. Gomperts, B. Mennucci, H. P. Hratchian, 
 J. V. Ortiz, A. F. Izmaylov, J. L. Sonnenberg, D. Williams-Young, 
 F. Ding, F. Lipparini, F. Egidi, J. Goings, B. Peng, A. Petrone, 
 T. Henderson, D. Ranasinghe, V. G. Zakrzewski, J. Gao, N. Rega, 
 G. Zheng, W. Liang, M. Hada, M. Ehara, K. Toyota, R. Fukuda, 
 J. Hasegawa, M. Ishida, T. Nakajima, Y. Honda, O. Kitao, H. Nakai, 
 T. Vreven, K. Throssell, J. A. Montgomery, Jr., J. E. Peralta, 
 F. Ogliaro, M. J. Bearpark, J. J. Heyd, E. N. Brothers, K. N. Kudin, 
 V. N. Staroverov, T. A. Keith, R. Kobayashi, J. Normand, 
 K. Raghavachari, A. P. Rendell, J. C. Burant, S. S. Iyengar, 
 J. Tomasi, M. Cossi, J. M. Millam, M. Klene, C. Adamo, R. Cammi, 
 J. W. Ochterski, R. L. Martin, K. Morokuma, O. Farkas, 
 J. B. Foresman, and D. J. Fox, Gaussian, Inc., Wallingford CT, 2016.
 
 ******************************************
 Gaussian 16:  ES64L-G16RevA.03 25-Dec-2016
                 8-Jul-2025 
 ******************************************
 %nprocshared=24
 Will use up to   24 processors via shared memory.
 %mem=12GB
 %chk=ethyl_propiolate_ts1.chk
 --------------------------
 # ccsd(t)/6-311++g(d,p) sp
 --------------------------
 1/38=1,172=1/1;
 2/12=2,17=6,18=5,40=1/2;
 3/5=4,6=6,7=1111,11=9,25=1,30=1/1,2,3;
 4//1;
 5/5=2,38=5/2;
 8/6=4,9=120000,10=2/1,4;
 9/5=7,14=2/13;
 6/7=2,8=2,9=2,10=2/1;
 99/5=1,9=1/99;
 -------------------
 Title Card Required
 -------------------
 Symbolic Z-matrix:
 Charge =  0 Multiplicity = 2
 O                     2.28787   1.69815  -0.3215 
 H                     1.47458   1.79976   0.20517 
 C                    -3.37289   0.21346  -0.50654 
 H                    -4.38885   0.28565  -0.81792 
 C                    -2.2307    0.13183  -0.15546 
 C                    -0.84615   0.08587   0.28302 
 O                    -0.28477   1.01191   0.80806 
 O                    -0.30034  -1.10067   0.03745 
 C                     1.06696  -1.29338   0.45317 
 C                     2.04447  -0.79702  -0.58194 
 H                     1.14968  -2.3736    0.57566 
 H                     1.21871  -0.81026   1.41971 
 H                     3.0552   -1.14849  -0.37375 
 H                     1.74346  -1.04813  -1.59901 
 H                     2.15509   0.37541  -0.55534 
 
                          Input orientation:                          
 ---------------------------------------------------------------------
 Center     Atomic      Atomic             Coordinates (Angstroms)
 Number     Number       Type             X           Y           Z
 ---------------------------------------------------------------------
      1          8           0        2.287865    1.698150   -0.321499
      2          1           0        1.474583    1.799762    0.205172
      3          6           0       -3.372885    0.213463   -0.506542
      4          1           0       -4.388851    0.285650   -0.817919
      5          6           0       -2.230705    0.131831   -0.155464
      6          6           0       -0.846153    0.085872    0.283021
      7          8           0       -0.284767    1.011906    0.808055
      8          8           0       -0.300343   -1.100672    0.037451
      9          6           0        1.066957   -1.293377    0.453165
     10          6           0        2.044467   -0.797024   -0.581943
     11          1           0        1.149680   -2.373603    0.575659
     12          1           0        1.218710   -0.810258    1.419713
     13          1           0        3.055199   -1.148489   -0.373746
     14          1           0        1.743455   -1.048133   -1.599014
     15          1           0        2.155089    0.375410   -0.555339
 ---------------------------------------------------------------------
                    Distance matrix (angstroms):
                    1          2          3          4          5
     1  O    0.000000
     2  H    0.974236   0.000000
     3  C    5.855137   5.149838   0.000000
     4  H    6.842523   6.141588   1.065060   0.000000
     5  C    4.785227   4.079364   1.197704   2.262764   0.000000
     6  C    3.575885   2.886052   2.650295   3.715197   1.453054
     7  O    2.892276   2.019777   3.449949   4.473784   2.342984
     8  O    3.828978   3.404557   3.385763   4.401073   2.298386
     9  C    3.322643   3.129723   4.785792   5.820208   3.643655
    10  C    2.520509   2.772655   5.511304   6.528051   4.395651
    11  H    4.321982   4.202356   5.321434   6.299922   4.270684
    12  H    3.235278   2.890119   5.083425   6.136184   3.907324
    13  H    2.948709   3.394949   6.572124   7.593940   5.443128
    14  H    3.077417   3.381994   5.381641   6.324102   4.389772
    15  H    1.349797   1.752211   5.530561   6.549821   4.410716
                    6          7          8          9         10
     6  C    0.000000
     7  O    1.203476   0.000000
     8  O    1.328947   2.248791   0.000000
     9  C    2.364586   2.695818   1.442034   0.000000
    10  C    3.143780   3.260315   2.444174   1.507760   0.000000
    11  H    3.180881   3.684198   2.003144   1.090292   2.150881
    12  H    2.521662   2.440256   2.074249   1.091168   2.165335
    13  H    4.144338   4.149618   3.380981   2.158212   1.090162
    14  H    3.396188   3.761838   2.618757   2.174680   1.089999
    15  H    3.129558   2.866508   2.925639   2.232927   1.177942
                   11         12         13         14         15
    11  H    0.000000
    12  H    1.777988   0.000000
    13  H    2.456273   2.589129   0.000000
    14  H    2.615080   3.073216   1.797783   0.000000
    15  H    3.138005   2.486653   1.779169   1.812505   0.000000
 Stoichiometry    C5H7O3(2)
 Framework group  C1[X(C5H7O3)]
 Deg. of freedom    39
 Full point group                 C1      NOp   1
 Largest Abelian subgroup         C1      NOp   1
 Largest concise Abelian subgroup C1      NOp   1
                         Standard orientation:                         
 ---------------------------------------------------------------------
 Center     Atomic      Atomic             Coordinates (Angstroms)
 Number     Number       Type             X           Y           Z
 ---------------------------------------------------------------------
      1          8           0        2.287865    1.698150   -0.321499
      2          1           0        1.474583    1.799762    0.205172
      3          6           0       -3.372885    0.213463   -0.506542
      4          1           0       -4.388851    0.285650   -0.817919
      5          6           0       -2.230705    0.131831   -0.155464
      6          6           0       -0.846153    0.085872    0.283021
      7          8           0       -0.284767    1.011906    0.808055
      8          8           0       -0.300343   -1.100672    0.037451
      9          6           0        1.066957   -1.293377    0.453165
     10          6           0        2.044467   -0.797024   -0.581943
     11          1           0        1.149680   -2.373603    0.575659
     12          1           0        1.218710   -0.810258    1.419713
     13          1           0        3.055199   -1.148489   -0.373746
     14          1           0        1.743455   -1.048133   -1.599014
     15          1           0        2.155089    0.375410   -0.555339
 ---------------------------------------------------------------------
 Rotational constants (GHZ):           3.3355626           1.1874943           0.9738431
 Standard basis: 6-311++G(d,p) (5D, 7F)
 There are   233 symmetry adapted cartesian basis functions of A   symmetry.
 There are   225 symmetry adapted basis functions of A   symmetry.
   225 basis functions,   351 primitive gaussians,   233 cartesian basis functions
    31 alpha electrons       30 beta electrons
       nuclear repulsion energy       353.4199825413 Hartrees.
 NAtoms=   15 NActive=   15 NUniq=   15 SFac= 1.00D+00 NAtFMM=   60 NAOKFM=F Big=F
 Integral buffers will be    131072 words long.
 Raffenetti 2 integral format.
 Two-electron integral symmetry is turned on.
 One-electron integrals computed using PRISM.
 NBasis=   225 RedAO= T EigKep=  7.23D-06  NBF=   225
 NBsUse=   224 1.00D-06 EigRej=  7.37D-07 NBFU=   224
 ExpMin= 3.60D-02 ExpMax= 8.59D+03 ExpMxC= 1.30D+03 IAcc=3 IRadAn=         5 AccDes= 0.00D+00
 Harris functional with IExCor=  205 and IRadAn=       5 diagonalized for initial guess.
 HarFok:  IExCor=  205 AccDes= 0.00D+00 IRadAn=         5 IDoV= 1 UseB2=F ITyADJ=14
 ICtDFT=  3500011 ScaDFX=  1.000000  1.000000  1.000000  1.000000
 FoFCou: FMM=F IPFlag=           0 FMFlag=      100000 FMFlg1=           0
         NFxFlg=           0 DoJE=T BraDBF=F KetDBF=T FulRan=T
         wScrn=  0.000000 ICntrl=       500 IOpCl=  0 I1Cent=   200000004 NGrid=           0
         NMat0=    1 NMatS0=      1 NMatT0=    0 NMatD0=    1 NMtDS0=    0 NMtDT0=    0
 Petite list used in FoFCou.
 Initial guess <Sx>= 0.0000 <Sy>= 0.0000 <Sz>= 0.5000 <S**2>= 0.7500 S= 0.5000
 Requested convergence on RMS density matrix=1.00D-08 within 128 cycles.
 Requested convergence on MAX density matrix=1.00D-06.
 Requested convergence on             energy=1.00D-06.
 No special actions if energy rises.
 Initial convergence to 1.0D-05 achieved.  Increase integral accuracy.
 Restarting incremental Fock formation.
 SCF Done:  E(UHF) =  -417.971038325     A.U. after   33 cycles
            NFock= 33  Conv=0.66D-08     -V/T= 2.0007
 <Sx>= 0.0000 <Sy>= 0.0000 <Sz>= 0.5000 <S**2>= 0.7746 S= 0.5122
 <L.S>=  0.00000000000    
 Annihilation of the first spin contaminant:
 S**2 before annihilation     0.7746,   after     0.7503
 ExpMin= 3.60D-02 ExpMax= 8.59D+03 ExpMxC= 1.30D+03 IAcc=3 IRadAn=         5 AccDes= 0.00D+00
 HarFok:  IExCor=  205 AccDes= 0.00D+00 IRadAn=         5 IDoV=-2 UseB2=F ITyADJ=14
 ICtDFT= 12500011 ScaDFX=  1.000000  1.000000  1.000000  1.000000
 Range of M.O.s used for correlation:     9   224
 NBasis=   225 NAE=    31 NBE=    30 NFC=     8 NFV=     0
 NROrb=    216 NOA=    23 NOB=    22 NVA=   193 NVB=   194

 **** Warning!!: The largest alpha MO coefficient is  0.10633331D+03


 **** Warning!!: The largest beta MO coefficient is  0.10760759D+03

 Semi-Direct transformation.
 ModeAB=           4 MOrb=            23 LenV=    1609184722
 LASXX=    107793295 LTotXX=   107793295 LenRXX=   218294035
 LTotAB=   110500740 MaxLAS=   127757088 LenRXY=           0
 NonZer=   326087330 LenScr=   491049984 LnRSAI=   127757088
 LnScr1=   192388096 LExtra=           0 Total=   1029489203
 MaxDsk=          -1 SrtSym=           T ITran=            4
 JobTyp=1 Pass  1:  I=   1 to  23.
 (rs|ai) integrals will be sorted in core.
 ModeAB=           4 MOrb=            22 LenV=    1609184722
 LASXX=    103454307 LTotXX=   103454307 LenRXX=   188091948
 LTotAB=    84637641 MaxLAS=   122202432 LenRXY=           0
 NonZer=   291546255 LenScr=   439034880 LnRSAI=   122202432
 LnScr1=   184078848 LExtra=           0 Total=    933408108
 MaxDsk=          -1 SrtSym=           T ITran=            4
 JobTyp=2 Pass  1:  I=   1 to  22.
 (rs|ai) integrals will be sorted in core.
 SymMOI:  orbitals are not symmetric.
 Spin components of T(2) and E(2):
     alpha-alpha T2 =       0.5314685004D-01 E2=     -0.1718453510D+00
     alpha-beta  T2 =       0.2914132644D+00 E2=     -0.9454790685D+00
     beta-beta   T2 =       0.5166515202D-01 E2=     -0.1594427569D+00
 ANorm=    0.1181619764D+01
 E2 =    -0.1276767176D+01 EUMP2 =    -0.41924780550140D+03
 (S**2,0)=  0.77459D+00           (S**2,1)=  0.75800D+00
 E(PUHF)=      -0.41797747627D+03        E(PMP2)=      -0.41925208758D+03
 Keep R2 and R3 ints in memory in canonical form, NReq=652883968.
 CIDS: In Core Option IDoMem=           1.
 Iterations=  50 Convergence= 0.100D-06
 Produce multiple copies of IABC intergrals
 Iteration Nr.   1
 **********************
 DD1Dir will call FoFMem   1 times, MxPair=      1496
 NAB=   506 NAA=   253 NBB=   231.
 E(PMP3)=      -0.41927416345D+03
 MP4(R+Q)=  0.25778304D-01
 E3=       -0.23804030D-01        EUMP3=      -0.41927160953D+03
 E4(DQ)=   -0.53425323D-02        UMP4(DQ)=   -0.41927695206D+03
 E4(SDQ)=  -0.25065346D-01        UMP4(SDQ)=  -0.41929667488D+03
 DE(Corr)=  -1.2741187     E(Corr)=     -419.24515706    
 NORM(A)=   0.11869062D+01
 Iteration Nr.   2
 **********************
 DD1Dir will call FoFMem   1 times, MxPair=      1496
 NAB=   506 NAA=   253 NBB=   231.
 DE(Corr)=  -1.3171458     E(CORR)=     -419.28818415     Delta=-4.30D-02
 NORM(A)=   0.12051711D+01
 Iteration Nr.   3
 **********************
 DD1Dir will call FoFMem   1 times, MxPair=      1496
 NAB=   506 NAA=   253 NBB=   231.
 DE(Corr)=  -1.3186741     E(CORR)=     -419.28971245     Delta=-1.53D-03
 NORM(A)=   0.12119037D+01
 Iteration Nr.   4
 **********************
 DD1Dir will call FoFMem   1 times, MxPair=      1496
 NAB=   506 NAA=   253 NBB=   231.
 DE(Corr)=  -1.3238447     E(CORR)=     -419.29488301     Delta=-5.17D-03
 NORM(A)=   0.12148788D+01
 Iteration Nr.   5
 **********************
 DD1Dir will call FoFMem   1 times, MxPair=      1496
 NAB=   506 NAA=   253 NBB=   231.
 DE(Corr)=  -1.3247878     E(CORR)=     -419.29582614     Delta=-9.43D-04
 NORM(A)=   0.12165070D+01
 Iteration Nr.   6
 **********************
 DD1Dir will call FoFMem   1 times, MxPair=      1496
 NAB=   506 NAA=   253 NBB=   231.
 DE(Corr)=  -1.3250625     E(CORR)=     -419.29610081     Delta=-2.75D-04
 NORM(A)=   0.12168925D+01
 Iteration Nr.   7
 **********************
 DD1Dir will call FoFMem   1 times, MxPair=      1496
 NAB=   506 NAA=   253 NBB=   231.
 DE(Corr)=  -1.3251250     E(CORR)=     -419.29616331     Delta=-6.25D-05
 NORM(A)=   0.12170012D+01
 Iteration Nr.   8
 **********************
 DD1Dir will call FoFMem   1 times, MxPair=      1496
 NAB=   506 NAA=   253 NBB=   231.
 DE(Corr)=  -1.3251094     E(CORR)=     -419.29614768     Delta= 1.56D-05
 NORM(A)=   0.12170523D+01
 Iteration Nr.   9
 **********************
 DD1Dir will call FoFMem   1 times, MxPair=      1496
 NAB=   506 NAA=   253 NBB=   231.
 DE(Corr)=  -1.3251267     E(CORR)=     -419.29616502     Delta=-1.73D-05
 NORM(A)=   0.12170654D+01
 Iteration Nr.  10
 **********************
 DD1Dir will call FoFMem   1 times, MxPair=      1496
 NAB=   506 NAA=   253 NBB=   231.
 DE(Corr)=  -1.3251261     E(CORR)=     -419.29616442     Delta= 6.05D-07
 NORM(A)=   0.12170780D+01
 Iteration Nr.  11
 **********************
 DD1Dir will call FoFMem   1 times, MxPair=      1496
 NAB=   506 NAA=   253 NBB=   231.
 DE(Corr)=  -1.3251375     E(CORR)=     -419.29617579     Delta=-1.14D-05
 NORM(A)=   0.12170888D+01
 Iteration Nr.  12
 **********************
 DD1Dir will call FoFMem   1 times, MxPair=      1496
 NAB=   506 NAA=   253 NBB=   231.
 DE(Corr)=  -1.3251382     E(CORR)=     -419.29617652     Delta=-7.31D-07
 NORM(A)=   0.12170972D+01
 Iteration Nr.  13
 **********************
 DD1Dir will call FoFMem   1 times, MxPair=      1496
 NAB=   506 NAA=   253 NBB=   231.
 DE(Corr)=  -1.3251411     E(CORR)=     -419.29617941     Delta=-2.89D-06
 NORM(A)=   0.12171033D+01
 Iteration Nr.  14
 **********************
 DD1Dir will call FoFMem   1 times, MxPair=      1496
 NAB=   506 NAA=   253 NBB=   231.
 DE(Corr)=  -1.3251422     E(CORR)=     -419.29618056     Delta=-1.15D-06
 NORM(A)=   0.12171080D+01
 Iteration Nr.  15
 **********************
 DD1Dir will call FoFMem   1 times, MxPair=      1496
 NAB=   506 NAA=   253 NBB=   231.
 DE(Corr)=  -1.3251427     E(CORR)=     -419.29618098     Delta=-4.17D-07
 NORM(A)=   0.12171125D+01
 Iteration Nr.  16
 **********************
 DD1Dir will call FoFMem   1 times, MxPair=      1496
 NAB=   506 NAA=   253 NBB=   231.
 DE(Corr)=  -1.3251439     E(CORR)=     -419.29618222     Delta=-1.25D-06
 NORM(A)=   0.12171155D+01
 Iteration Nr.  17
 **********************
 DD1Dir will call FoFMem   1 times, MxPair=      1496
 NAB=   506 NAA=   253 NBB=   231.
 DE(Corr)=  -1.3251440     E(CORR)=     -419.29618237     Delta=-1.50D-07
 NORM(A)=   0.12171170D+01
 Iteration Nr.  18
 **********************
 DD1Dir will call FoFMem   1 times, MxPair=      1496
 NAB=   506 NAA=   253 NBB=   231.
 DE(Corr)=  -1.3251446     E(CORR)=     -419.29618294     Delta=-5.68D-07
 NORM(A)=   0.12171165D+01
 Iteration Nr.  19
 **********************
 DD1Dir will call FoFMem   1 times, MxPair=      1496
 NAB=   506 NAA=   253 NBB=   231.
 DE(Corr)=  -1.3251444     E(CORR)=     -419.29618272     Delta= 2.18D-07
 NORM(A)=   0.12171153D+01
 Iteration Nr.  20
 **********************
 DD1Dir will call FoFMem   1 times, MxPair=      1496
 NAB=   506 NAA=   253 NBB=   231.
 DE(Corr)=  -1.3251441     E(CORR)=     -419.29618247     Delta= 2.54D-07
 NORM(A)=   0.12171140D+01
 Iteration Nr.  21
 **********************
 DD1Dir will call FoFMem   1 times, MxPair=      1496
 NAB=   506 NAA=   253 NBB=   231.
 DE(Corr)=  -1.3251439     E(CORR)=     -419.29618221     Delta= 2.56D-07
 NORM(A)=   0.12171133D+01
 Iteration Nr.  22
 **********************
 DD1Dir will call FoFMem   1 times, MxPair=      1496
 NAB=   506 NAA=   253 NBB=   231.
 DE(Corr)=  -1.3251437     E(CORR)=     -419.29618201     Delta= 1.99D-07
 NORM(A)=   0.12171132D+01
 Iteration Nr.  23
 **********************
 DD1Dir will call FoFMem   1 times, MxPair=      1496
 NAB=   506 NAA=   253 NBB=   231.
 DE(Corr)=  -1.3251437     E(CORR)=     -419.29618203     Delta=-1.53D-08
 NORM(A)=   0.12171134D+01
 Wavefunction amplitudes converged. E(Corr)=     -419.29618203    
 Largest amplitude= 4.47D-02
 Time for triples=    38946.47 seconds.
 T4(CCSD)= -0.57852588D-01
 T5(CCSD)=  0.37031117D-02
 CCSD(T)= -0.41935033151D+03

 S**2, projected HF & approx projected MPn energies after annihilation of
 unwanted spin states (see manual for definitions):

 spins       (S**2,0) (S**2,1)    PUHF        PMP2        PMP3        PMP4
 annihilated
 s+1         0.74983  0.75007 -417.977476 -419.252088 -419.274163
 s+1,s+2     0.75000  0.75000 -417.977436 -419.252052 -419.274133
 s+1 to s+3  0.75000  0.75000 -417.977436 -419.252052 -419.274133
 s+1 to s+4  0.75000  0.75000 -417.977436 -419.252052 -419.274133
 s+1 to s+5  0.75000  0.75000 -417.977436
 s+1 to s+6  0.75000  0.75000 -417.977436

 Discarding MO integrals.

 **********************************************************************

            Population analysis using the SCF density.

 **********************************************************************

 Orbital symmetries:
 Alpha Orbitals:
       Occupied  (A) (A) (A) (A) (A) (A) (A) (A) (A) (A) (A) (A)
                 (A) (A) (A) (A) (A) (A) (A) (A) (A) (A) (A) (A)
                 (A) (A) (A) (A) (A) (A) (A)
       Virtual   (A) (A) (A) (A) (A) (A) (A) (A) (A) (A) (A) (A)
                 (A) (A) (A) (A) (A) (A) (A) (A) (A) (A) (A) (A)
                 (A) (A) (A) (A) (A) (A) (A) (A) (A) (A) (A) (A)
                 (A) (A) (A) (A) (A) (A) (A) (A) (A) (A) (A) (A)
                 (A) (A) (A) (A) (A) (A) (A) (A) (A) (A) (A) (A)
                 (A) (A) (A) (A) (A) (A) (A) (A) (A) (A) (A) (A)
                 (A) (A) (A) (A) (A) (A) (A) (A) (A) (A) (A) (A)
                 (A) (A) (A) (A) (A) (A) (A) (A) (A) (A) (A) (A)
                 (A) (A) (A) (A) (A) (A) (A) (A) (A) (A) (A) (A)
                 (A) (A) (A) (A) (A) (A) (A) (A) (A) (A) (A) (A)
                 (A) (A) (A) (A) (A) (A) (A) (A) (A) (A) (A) (A)
                 (A) (A) (A) (A) (A) (A) (A) (A) (A) (A) (A) (A)
                 (A) (A) (A) (A) (A) (A) (A) (A) (A) (A) (A) (A)
                 (A) (A) (A) (A) (A) (A) (A) (A) (A) (A) (A) (A)
                 (A) (A) (A) (A) (A) (A) (A) (A) (A) (A) (A) (A)
                 (A) (A) (A) (A) (A) (A) (A) (A) (A) (A) (A) (A)
                 (A)
 Beta  Orbitals:
       Occupied  (A) (A) (A) (A) (A) (A) (A) (A) (A) (A) (A) (A)
                 (A) (A) (A) (A) (A) (A) (A) (A) (A) (A) (A) (A)
                 (A) (A) (A) (A) (A) (A)
       Virtual   (A) (A) (A) (A) (A) (A) (A) (A) (A) (A) (A) (A)
                 (A) (A) (A) (A) (A) (A) (A) (A) (A) (A) (A) (A)
                 (A) (A) (A) (A) (A) (A) (A) (A) (A) (A) (A) (A)
                 (A) (A) (A) (A) (A) (A) (A) (A) (A) (A) (A) (A)
                 (A) (A) (A) (A) (A) (A) (A) (A) (A) (A) (A) (A)
                 (A) (A) (A) (A) (A) (A) (A) (A) (A) (A) (A) (A)
                 (A) (A) (A) (A) (A) (A) (A) (A) (A) (A) (A) (A)
                 (A) (A) (A) (A) (A) (A) (A) (A) (A) (A) (A) (A)
                 (A) (A) (A) (A) (A) (A) (A) (A) (A) (A) (A) (A)
                 (A) (A) (A) (A) (A) (A) (A) (A) (A) (A) (A) (A)
                 (A) (A) (A) (A) (A) (A) (A) (A) (A) (A) (A) (A)
                 (A) (A) (A) (A) (A) (A) (A) (A) (A) (A) (A) (A)
                 (A) (A) (A) (A) (A) (A) (A) (A) (A) (A) (A) (A)
                 (A) (A) (A) (A) (A) (A) (A) (A) (A) (A) (A) (A)
                 (A) (A) (A) (A) (A) (A) (A) (A) (A) (A) (A) (A)
                 (A) (A) (A) (A) (A) (A) (A) (A) (A) (A) (A) (A)
                 (A) (A)
 The electronic state is 2-A.
 Alpha  occ. eigenvalues --  -20.62851 -20.60941 -20.57823 -11.43494 -11.30650
 Alpha  occ. eigenvalues --  -11.27714 -11.26876 -11.23561  -1.49901  -1.39840
 Alpha  occ. eigenvalues --   -1.37711  -1.08995  -1.05118  -0.93928  -0.85191
 Alpha  occ. eigenvalues --   -0.77898  -0.73997  -0.72421  -0.70866  -0.68254
 Alpha  occ. eigenvalues --   -0.65106  -0.62703  -0.58559  -0.56706  -0.54426
 Alpha  occ. eigenvalues --   -0.53415  -0.50371  -0.48621  -0.44545  -0.43699
 Alpha  occ. eigenvalues --   -0.43548
 Alpha virt. eigenvalues --    0.03539   0.04456   0.06036   0.06824   0.07399
 Alpha virt. eigenvalues --    0.07637   0.09364   0.10254   0.11097   0.11460
 Alpha virt. eigenvalues --    0.12245   0.13839   0.14243   0.15117   0.16297
 Alpha virt. eigenvalues --    0.17379   0.17783   0.18523   0.18620   0.19249
 Alpha virt. eigenvalues --    0.20544   0.21565   0.21854   0.23214   0.24154
 Alpha virt. eigenvalues --    0.24860   0.25701   0.27311   0.28961   0.31051
 Alpha virt. eigenvalues --    0.32041   0.32776   0.33505   0.34033   0.34557
 Alpha virt. eigenvalues --    0.35710   0.36205   0.37290   0.38311   0.39831
 Alpha virt. eigenvalues --    0.40633   0.41054   0.42019   0.42641   0.45408
 Alpha virt. eigenvalues --    0.45552   0.47198   0.49033   0.50508   0.52638
 Alpha virt. eigenvalues --    0.53503   0.57607   0.59992   0.60895   0.62060
 Alpha virt. eigenvalues --    0.64584   0.67242   0.70572   0.70879   0.74680
 Alpha virt. eigenvalues --    0.75168   0.77904   0.81115   0.82777   0.83932
 Alpha virt. eigenvalues --    0.85375   0.86021   0.87841   0.89013   0.89905
 Alpha virt. eigenvalues --    0.91457   0.92473   0.94676   0.96385   1.00466
 Alpha virt. eigenvalues --    1.04510   1.09128   1.15393   1.22554   1.23470
 Alpha virt. eigenvalues --    1.25392   1.27463   1.28852   1.29853   1.31824
 Alpha virt. eigenvalues --    1.33975   1.35820   1.36821   1.38683   1.39396
 Alpha virt. eigenvalues --    1.41074   1.42411   1.48002   1.50774   1.53461
 Alpha virt. eigenvalues --    1.55396   1.56179   1.58749   1.63190   1.63799
 Alpha virt. eigenvalues --    1.67899   1.70743   1.75319   1.77501   1.82394
 Alpha virt. eigenvalues --    1.83541   1.84003   1.85725   1.87052   1.89809
 Alpha virt. eigenvalues --    1.90789   1.92029   1.94308   1.95968   2.01417
 Alpha virt. eigenvalues --    2.05253   2.07817   2.08683   2.09773   2.16698
 Alpha virt. eigenvalues --    2.21445   2.26609   2.28951   2.32700   2.36990
 Alpha virt. eigenvalues --    2.40881   2.44213   2.49177   2.55136   2.60345
 Alpha virt. eigenvalues --    2.68648   2.71266   2.78370   2.82338   2.84915
 Alpha virt. eigenvalues --    2.89709   2.90737   2.92570   2.93463   2.95304
 Alpha virt. eigenvalues --    2.98179   3.00053   3.02807   3.06582   3.11496
 Alpha virt. eigenvalues --    3.13982   3.15945   3.22090   3.23066   3.25762
 Alpha virt. eigenvalues --    3.29808   3.33370   3.36259   3.38713   3.43021
 Alpha virt. eigenvalues --    3.47256   3.49431   3.51572   3.54082   3.58516
 Alpha virt. eigenvalues --    3.64605   3.67485   3.70616   3.76390   3.79668
 Alpha virt. eigenvalues --    3.92138   3.99635   4.08159   4.12541   4.21530
 Alpha virt. eigenvalues --    4.29406   4.33393   4.42742   4.49901   4.55260
 Alpha virt. eigenvalues --    4.69146   5.50963   5.57235   5.63019   5.76116
 Alpha virt. eigenvalues --    5.79395   5.89997   6.06068   6.21211   6.43764
 Alpha virt. eigenvalues --   24.68040  24.99157  25.01316  25.12029  26.28654
 Alpha virt. eigenvalues --   51.54660  51.58144  51.69726
  Beta  occ. eigenvalues --  -20.62850 -20.57834 -20.57174 -11.43496 -11.30723
  Beta  occ. eigenvalues --  -11.27716 -11.26874 -11.22593  -1.49902  -1.39822
  Beta  occ. eigenvalues --   -1.24037  -1.08812  -1.04196  -0.92743  -0.84273
  Beta  occ. eigenvalues --   -0.77824  -0.73945  -0.71832  -0.68544  -0.63765
  Beta  occ. eigenvalues --   -0.62621  -0.58560  -0.56443  -0.54143  -0.50885
  Beta  occ. eigenvalues --   -0.49620  -0.48853  -0.47306  -0.43688  -0.43541
  Beta virt. eigenvalues --    0.03541   0.04463   0.05912   0.06299   0.07144
  Beta virt. eigenvalues --    0.07412   0.07949   0.10039   0.10823   0.11113
  Beta virt. eigenvalues --    0.12181   0.12411   0.13894   0.14246   0.15338
  Beta virt. eigenvalues --    0.16417   0.17380   0.17847   0.18570   0.18827
  Beta virt. eigenvalues --    0.19331   0.20684   0.21654   0.21870   0.23275
  Beta virt. eigenvalues --    0.24204   0.24971   0.25749   0.27400   0.29303
  Beta virt. eigenvalues --    0.31416   0.32446   0.32952   0.33878   0.34560
  Beta virt. eigenvalues --    0.35038   0.35905   0.36396   0.37530   0.38407
  Beta virt. eigenvalues --    0.40238   0.40910   0.41186   0.42224   0.43228
  Beta virt. eigenvalues --    0.45540   0.45821   0.47340   0.49826   0.51147
  Beta virt. eigenvalues --    0.53123   0.56352   0.57732   0.60258   0.61020
  Beta virt. eigenvalues --    0.62640   0.64830   0.67492   0.70608   0.70892
  Beta virt. eigenvalues --    0.74739   0.75672   0.78389   0.81256   0.82972
  Beta virt. eigenvalues --    0.84214   0.85619   0.87509   0.88063   0.89343
  Beta virt. eigenvalues --    0.90202   0.91536   0.93208   0.95030   0.96571
  Beta virt. eigenvalues --    1.00498   1.04617   1.09180   1.16055   1.22839
  Beta virt. eigenvalues --    1.24198   1.26306   1.27903   1.29136   1.31018
  Beta virt. eigenvalues --    1.33901   1.35549   1.36242   1.38037   1.39445
  Beta virt. eigenvalues --    1.40821   1.41938   1.44530   1.48088   1.51022
  Beta virt. eigenvalues --    1.54161   1.55432   1.56343   1.58918   1.63265
  Beta virt. eigenvalues --    1.63825   1.68315   1.72248   1.75826   1.79504
  Beta virt. eigenvalues --    1.82641   1.83605   1.84739   1.86105   1.87224
  Beta virt. eigenvalues --    1.89925   1.90859   1.92275   1.95122   1.96308
  Beta virt. eigenvalues --    2.02843   2.05369   2.08175   2.08718   2.09954
  Beta virt. eigenvalues --    2.16748   2.21589   2.26752   2.29310   2.32862
  Beta virt. eigenvalues --    2.37366   2.42346   2.44827   2.49964   2.56529
  Beta virt. eigenvalues --    2.60802   2.70454   2.72188   2.78446   2.82498
  Beta virt. eigenvalues --    2.85124   2.89600   2.90765   2.92602   2.93729
  Beta virt. eigenvalues --    2.95656   2.98222   2.99697   3.03107   3.06779
  Beta virt. eigenvalues --    3.11566   3.13989   3.16002   3.22478   3.25338
  Beta virt. eigenvalues --    3.29843   3.32015   3.34066   3.36281   3.38724
  Beta virt. eigenvalues --    3.43182   3.47796   3.51250   3.53689   3.57710
  Beta virt. eigenvalues --    3.60858   3.64800   3.67870   3.70888   3.76991
  Beta virt. eigenvalues --    3.84237   3.92272   3.99679   4.08285   4.14286
  Beta virt. eigenvalues --    4.21938   4.29672   4.36325   4.44534   4.50020
  Beta virt. eigenvalues --    4.55283   4.70077   5.53181   5.57455   5.63050
  Beta virt. eigenvalues --    5.76291   5.88836   5.90029   6.08758   6.21358
  Beta virt. eigenvalues --    6.43789  24.68040  24.99157  25.01302  25.12697
  Beta virt. eigenvalues --   26.28654  51.56819  51.58145  51.69725
          Condensed to atoms (all electrons):
               1          2          3          4          5          6
     1  O    8.114792   0.294875   0.002841   0.000097  -0.007020   0.016671
     2  H    0.294875   0.406169  -0.005283  -0.000196   0.019898  -0.019379
     3  C    0.002841  -0.005283   6.404374   0.496150  -1.557062   1.514416
     4  H    0.000097  -0.000196   0.496150   0.406223  -0.157031   0.059069
     5  C   -0.007020   0.019898  -1.557062  -0.157031   9.986417  -3.277040
     6  C    0.016671  -0.019379   1.514416   0.059069  -3.277040   7.898060
     7  O   -0.003554   0.006582  -0.092968  -0.003076   0.088607   0.357608
     8  O   -0.003909   0.000672  -0.097505  -0.005461  -0.161097   0.186819
     9  C   -0.022994   0.029744   0.049883  -0.000579  -0.310473   0.008189
    10  C    0.007823  -0.001571  -0.022496  -0.000798   0.034994  -0.062097
    11  H   -0.000547   0.001435  -0.000263  -0.000026   0.000997  -0.015757
    12  H   -0.002710  -0.004608   0.002680   0.000021  -0.014239   0.013568
    13  H   -0.005493   0.001776   0.000229   0.000002  -0.003071   0.002883
    14  H    0.003392  -0.000272  -0.003422  -0.000177   0.015751  -0.005270
    15  H   -0.094673  -0.020671   0.009172   0.000279  -0.038653   0.008410
               7          8          9         10         11         12
     1  O   -0.003554  -0.003909  -0.022994   0.007823  -0.000547  -0.002710
     2  H    0.006582   0.000672   0.029744  -0.001571   0.001435  -0.004608
     3  C   -0.092968  -0.097505   0.049883  -0.022496  -0.000263   0.002680
     4  H   -0.003076  -0.005461  -0.000579  -0.000798  -0.000026   0.000021
     5  C    0.088607  -0.161097  -0.310473   0.034994   0.000997  -0.014239
     6  C    0.357608   0.186819   0.008189  -0.062097  -0.015757   0.013568
     7  O    8.123949  -0.113603   0.063453  -0.060865   0.004598  -0.024430
     8  O   -0.113603   8.226821   0.211348  -0.087626  -0.088752  -0.010115
     9  C    0.063453   0.211348   5.659622  -0.157465   0.469279   0.410112
    10  C   -0.060865  -0.087626  -0.157465   5.740067  -0.067130  -0.038174
    11  H    0.004598  -0.088752   0.469279  -0.067130   0.576774  -0.048680
    12  H   -0.024430  -0.010115   0.410112  -0.038174  -0.048680   0.524803
    13  H   -0.001361   0.013099  -0.019608   0.395020   0.001308  -0.005786
    14  H    0.000108  -0.002061  -0.052426   0.407623  -0.011347   0.006102
    15  H    0.006432  -0.012527  -0.046605   0.336419   0.014803  -0.015312
              13         14         15
     1  O   -0.005493   0.003392  -0.094673
     2  H    0.001776  -0.000272  -0.020671
     3  C    0.000229  -0.003422   0.009172
     4  H    0.000002  -0.000177   0.000279
     5  C   -0.003071   0.015751  -0.038653
     6  C    0.002883  -0.005270   0.008410
     7  O   -0.001361   0.000108   0.006432
     8  O    0.013099  -0.002061  -0.012527
     9  C   -0.019608  -0.052426  -0.046605
    10  C    0.395020   0.407623   0.336419
    11  H    0.001308  -0.011347   0.014803
    12  H   -0.005786   0.006102  -0.015312
    13  H    0.543514  -0.033317  -0.030580
    14  H   -0.033317   0.564950  -0.059001
    15  H   -0.030580  -0.059001   0.689416
          Atomic-Atomic Spin Densities.
               1          2          3          4          5          6
     1  O    0.880391  -0.009057  -0.000252  -0.000023  -0.001681  -0.012278
     2  H   -0.009057  -0.023879   0.000656   0.000006  -0.002331   0.003780
     3  C   -0.000252   0.000656   0.001921  -0.000211  -0.007760   0.007405
     4  H   -0.000023   0.000006  -0.000211  -0.000413  -0.000354   0.000836
     5  C   -0.001681  -0.002331  -0.007760  -0.000354  -0.014317  -0.000840
     6  C   -0.012278   0.003780   0.007405   0.000836  -0.000840  -0.005134
     7  O    0.003985  -0.000393  -0.001775  -0.000061   0.006487  -0.003175
     8  O    0.001068  -0.001015   0.000514   0.000014  -0.003711  -0.004475
     9  C    0.033587  -0.006578   0.001406   0.000391   0.016424   0.011734
    10  C   -0.066588   0.008789  -0.004344  -0.000153   0.007246  -0.020347
    11  H    0.001038   0.000259  -0.000134   0.000042   0.003173   0.006517
    12  H   -0.002340   0.000030   0.000313  -0.000039  -0.004854  -0.005990
    13  H    0.005625  -0.001083  -0.000156  -0.000001   0.000627  -0.002866
    14  H   -0.000631  -0.001009   0.000712  -0.000012  -0.004315  -0.001113
    15  H    0.020757   0.012775  -0.000133   0.000046   0.011398   0.033413
               7          8          9         10         11         12
     1  O    0.003985   0.001068   0.033587  -0.066588   0.001038  -0.002340
     2  H   -0.000393  -0.001015  -0.006578   0.008789   0.000259   0.000030
     3  C   -0.001775   0.000514   0.001406  -0.004344  -0.000134   0.000313
     4  H   -0.000061   0.000014   0.000391  -0.000153   0.000042  -0.000039
     5  C    0.006487  -0.003711   0.016424   0.007246   0.003173  -0.004854
     6  C   -0.003175  -0.004475   0.011734  -0.020347   0.006517  -0.005990
     7  O   -0.001756   0.000899  -0.003104   0.001266  -0.000382   0.000971
     8  O    0.000899   0.001641   0.013055  -0.010066  -0.000938  -0.000457
     9  C   -0.003104   0.013055  -0.045257  -0.042956  -0.011590   0.020310
    10  C    0.001266  -0.010066  -0.042956   0.494964   0.005764  -0.012043
    11  H   -0.000382  -0.000938  -0.011590   0.005764   0.014287   0.001904
    12  H    0.000971  -0.000457   0.020310  -0.012043   0.001904  -0.001106
    13  H    0.000150   0.000343   0.010186  -0.018266  -0.000347  -0.000201
    14  H    0.000547  -0.000212   0.013636  -0.034202   0.000358  -0.001100
    15  H   -0.007938   0.003472  -0.069268   0.067414  -0.007349   0.012044
              13         14         15
     1  O    0.005625  -0.000631   0.020757
     2  H   -0.001083  -0.001009   0.012775
     3  C   -0.000156   0.000712  -0.000133
     4  H   -0.000001  -0.000012   0.000046
     5  C    0.000627  -0.004315   0.011398
     6  C   -0.002866  -0.001113   0.033413
     7  O    0.000150   0.000547  -0.007938
     8  O    0.000343  -0.000212   0.003472
     9  C    0.010186   0.013636  -0.069268
    10  C   -0.018266  -0.034202   0.067414
    11  H   -0.000347   0.000358  -0.007349
    12  H   -0.000201  -0.001100   0.012044
    13  H   -0.016234   0.001507  -0.000573
    14  H    0.001507  -0.013316   0.023745
    15  H   -0.000573   0.023745  -0.242899
 Mulliken charges and spin densities:
               1          2
     1  O   -0.299593   0.853601
     2  H    0.290830  -0.019050
     3  C   -0.700747  -0.001838
     4  H    0.205503   0.000067
     5  C    1.379022   0.005191
     6  C   -0.686151   0.007467
     7  O   -0.351480  -0.004279
     8  O   -0.056103   0.000132
     9  C   -0.291480  -0.058023
    10  C   -0.423725   0.376478
    11  H    0.163309   0.012600
    12  H    0.206768   0.007443
    13  H    0.141386  -0.021288
    14  H    0.169368  -0.015404
    15  H    0.253092  -0.143098
 Sum of Mulliken charges =  -0.00000   1.00000
 Mulliken charges and spin densities with hydrogens summed into heavy atoms:
               1          2
     1  O   -0.008763   0.834551
     3  C   -0.495244  -0.001770
     5  C    1.379022   0.005191
     6  C   -0.686151   0.007467
     7  O   -0.351480  -0.004279
     8  O   -0.056103   0.000132
     9  C    0.078597  -0.037980
    10  C    0.140121   0.196688
 Electronic spatial extent (au):  <R**2>=           1187.6908
 Charge=             -0.0000 electrons
 Dipole moment (field-independent basis, Debye):
    X=             -2.0564    Y=             -2.2604    Z=             -0.0117  Tot=              3.0559
 Quadrupole moment (field-independent basis, Debye-Ang):
   XX=            -39.6573   YY=            -50.4703   ZZ=            -48.2702
   XY=             -6.5232   XZ=              4.6809   YZ=             -1.1511
 Traceless Quadrupole moment (field-independent basis, Debye-Ang):
   XX=              6.4753   YY=             -4.3377   ZZ=             -2.1376
   XY=             -6.5232   XZ=              4.6809   YZ=             -1.1511
 Octapole moment (field-independent basis, Debye-Ang**2):
  XXX=            -63.6913  YYY=              1.2659  ZZZ=              3.0051  XYY=              8.0305
  XXY=             -8.7566  XXZ=            -10.2848  XZZ=              3.7459  YZZ=             -1.9744
  YYZ=              4.3351  XYZ=              4.8940
 Hexadecapole moment (field-independent basis, Debye-Ang**3):
 XXXX=           -825.5417 YYYY=           -324.4808 ZZZZ=           -125.6839 XXXY=            -52.6855
 XXXZ=             76.3789 YYYX=              6.5213 YYYZ=              2.1048 ZZZX=             -1.7945
 ZZZY=              0.5854 XXYY=           -266.6691 XXZZ=           -201.6885 YYZZ=            -82.0828
 XXYZ=             -0.5643 YYXZ=              7.7971 ZZXY=              1.5491
 N-N= 3.534199825413D+02 E-N=-1.689418316806D+03  KE= 4.176796904421D+02
 1\1\GINC-AJ\SP\UCCSD(T)-FC\6-311++G(d,p)\C5H7O3(2)\AAYUSH\08-Jul-2025\
 0\\# ccsd(t)/6-311++g(d,p) sp\\Title Card Required\\0,2\O,0,2.287865,1
 .69815,-0.321499\H,0,1.474583,1.799762,0.205172\C,0,-3.372885,0.213463
 ,-0.506542\H,0,-4.388851,0.28565,-0.817919\C,0,-2.230705,0.131831,-0.1
 55464\C,0,-0.846153,0.085872,0.283021\O,0,-0.284767,1.011906,0.808055\
 O,0,-0.300343,-1.100672,0.037451\C,0,1.066957,-1.293377,0.453165\C,0,2
 .044467,-0.797024,-0.581943\H,0,1.14968,-2.373603,0.575659\H,0,1.21871
 ,-0.810258,1.419713\H,0,3.055199,-1.148489,-0.373746\H,0,1.743455,-1.0
 48133,-1.599014\H,0,2.155089,0.37541,-0.555339\\Version=ES64L-G16RevA.
 03\State=2-A\HF=-417.9710383\MP2=-419.2478055\MP3=-419.2716095\MP4D=-4
 19.3027304\MP4DQ=-419.2769521\PUHF=-417.9774763\PMP2-0=-419.2520876\PM
 P3-0=-419.2741634\MP4SDQ=-419.2966749\CCSD=-419.296182\CCSD(T)=-419.35
 03315\S2=0.774586\S2-1=0.758005\S2A=0.750288\RMSD=6.579e-09\PG=C01 [X(
 C5H7O3)]\\@


 THE MOLECULE ALSO HAS A BODY.  WHEN THIS BODY IS HIT, THE MOLECULE
 FEELS HURT ALL OVER -- A. KITAIGORODSKI
 Job cpu time:       0 days 19 hours 23 minutes 34.3 seconds.
 Elapsed time:       0 days  0 hours 48 minutes 50.6 seconds.
 File lengths (MBytes):  RWF=  44258 Int=      0 D2E=      0 Chk=      9 Scr=      1
 Normal termination of Gaussian 16 at Tue Jul  8 19:11:23 2025.
