 Entering Gaussian System, Link 0=g16
 Initial command:
 /opt/g16/l1.exe "/home/aayush/scratches/g16/Gau-29679.inp" -scrdir="/home/aayush/scratches/g16/"
 Entering Link 1 = /opt/g16/l1.exe PID=     29682.
  
 Copyright (c) 1988,1990,1992,1993,1995,1998,2003,2009,2016,
            Gaussian, Inc.  All Rights Reserved.
  
 This is part of the Gaussian(R) 16 program.  It is based on
 the Gaussian(R) 09 system (copyright 2009, Gaussian, Inc.),
 the Gaussian(R) 03 system (copyright 2003, Gaussian, Inc.),
 the Gaussian(R) 98 system (copyright 1998, Gaussian, Inc.),
 the Gaussian(R) 94 system (copyright 1995, Gaussian, Inc.),
 the Gaussian 92(TM) system (copyright 1992, Gaussian, Inc.),
 the Gaussian 90(TM) system (copyright 1990, Gaussian, Inc.),
 the Gaussian 88(TM) system (copyright 1988, Gaussian, Inc.),
 the Gaussian 86(TM) system (copyright 1986, Carnegie Mellon
 University), and the Gaussian 82(TM) system (copyright 1983,
 Carnegie Mellon University). Gaussian is a federally registered
 trademark of Gaussian, Inc.
  
 This software contains proprietary and confidential information,
 including trade secrets, belonging to Gaussian, Inc.
  
 This software is provided under written license and may be
 used, copied, transmitted, or stored only in accord with that
 written license.
  
 The following legend is applicable only to US Government
 contracts under FAR:
  
                    RESTRICTED RIGHTS LEGEND
  
 Use, reproduction and disclosure by the US Government is
 subject to restrictions as set forth in subparagraphs (a)
 and (c) of the Commercial Computer Software - Restricted
 Rights clause in FAR 52.227-19.
  
 Gaussian, Inc.
 340 Quinnipiac St., Bldg. 40, Wallingford CT 06492
  
  
 ---------------------------------------------------------------
 Warning -- This program may not be used in any manner that
 competes with the business of Gaussian, Inc. or will provide
 assistance to any competitor of Gaussian, Inc.  The licensee
 of this program is prohibited from giving any competitor of
 Gaussian, Inc. access to this program.  By using this program,
 the user acknowledges that Gaussian, Inc. is engaged in the
 business of creating and licensing software in the field of
 computational chemistry and represents and warrants to the
 licensee that it is not a competitor of Gaussian, Inc. and that
 it will not use this program in any manner prohibited above.
 ---------------------------------------------------------------
  

 Cite this work as:
 Gaussian 16, Revision A.03,
 M. J. Frisch, G. W. Trucks, H. B. Schlegel, G. E. Scuseria, 
 M. A. Robb, J. R. Cheeseman, G. Scalmani, V. Barone, 
 G. A. Petersson, H. Nakatsuji, X. Li, M. Caricato, A. V. Marenich, 
 J. Bloino, B. G. Janesko, R. Gomperts, B. Mennucci, H. P. Hratchian, 
 J. V. Ortiz, A. F. Izmaylov, J. L. Sonnenberg, D. Williams-Young, 
 F. Ding, F. Lipparini, F. Egidi, J. Goings, B. Peng, A. Petrone, 
 T. Henderson, D. Ranasinghe, V. G. Zakrzewski, J. Gao, N. Rega, 
 G. Zheng, W. Liang, M. Hada, M. Ehara, K. Toyota, R. Fukuda, 
 J. Hasegawa, M. Ishida, T. Nakajima, Y. Honda, O. Kitao, H. Nakai, 
 T. Vreven, K. Throssell, J. A. Montgomery, Jr., J. E. Peralta, 
 F. Ogliaro, M. J. Bearpark, J. J. Heyd, E. N. Brothers, K. N. Kudin, 
 V. N. Staroverov, T. A. Keith, R. Kobayashi, J. Normand, 
 K. Raghavachari, A. P. Rendell, J. C. Burant, S. S. Iyengar, 
 J. Tomasi, M. Cossi, J. M. Millam, M. Klene, C. Adamo, R. Cammi, 
 J. W. Ochterski, R. L. Martin, K. Morokuma, O. Farkas, 
 J. B. Foresman, and D. J. Fox, Gaussian, Inc., Wallingford CT, 2016.
 
 ******************************************
 Gaussian 16:  ES64L-G16RevA.03 25-Dec-2016
                23-Jun-2025 
 ******************************************
 %nprocshared=24
 Will use up to   24 processors via shared memory.
 %mem=12GB
 %chk=ethyl_propiolate_ts1.chk
 --------------------------
 # freq 6-311++g(d,p) m062x
 --------------------------
 1/10=4,30=1,38=1/1,3;
 2/12=2,17=6,18=5,40=1/2;
 3/5=4,6=6,7=1111,11=2,25=1,30=1,71=2,74=-55,140=1/1,2,3;
 4//1;
 5/5=2,38=5,98=1/2;
 8/6=4,10=90,11=11/1;
 11/6=1,8=1,9=11,15=111,16=1/1,2,10;
 10/6=1/2;
 6/7=2,8=2,9=2,10=2,28=1/1;
 7/8=1,10=1,25=1/1,2,3,16;
 1/10=4,30=1/3;
 99//99;
 -------------------
 Title Card Required
 -------------------
 Symbolic Z-matrix:
 Charge =  0 Multiplicity = 2
 O                     2.28885   1.67836  -0.32018 
 H                     1.48498   1.80276   0.20638 
 C                    -3.37295   0.21855  -0.50573 
 H                    -4.38887   0.29356  -0.81672 
 C                    -2.23087   0.13387  -0.15511 
 C                    -0.84678   0.08553   0.28346 
 O                    -0.28358   1.0076    0.81058 
 O                    -0.30204  -1.10321   0.03439 
 C                     1.06375  -1.29596   0.44891 
 C                     2.04106  -0.80798  -0.58321 
 H                     1.14958  -2.37895   0.56776 
 H                     1.21854  -0.81844   1.41841 
 H                     3.06115  -1.1255   -0.37408 
 H                     1.73878  -1.01506  -1.60839 
 H                     2.18471   0.57556  -0.52151 
 

 GradGradGradGradGradGradGradGradGradGradGradGradGradGradGradGradGradGrad
 Berny optimization.
 Initialization pass.
 Trust Radius=3.00D-01 FncErr=1.00D-07 GrdErr=1.00D-07 EigMax=2.50D+02 EigMin=1.00D-04
 Number of steps in this run=      2 maximum allowed number of steps=      2.
 GradGradGradGradGradGradGradGradGradGradGradGradGradGradGradGradGradGrad

                          Input orientation:                          
 ---------------------------------------------------------------------
 Center     Atomic      Atomic             Coordinates (Angstroms)
 Number     Number       Type             X           Y           Z
 ---------------------------------------------------------------------
      1          8           0        2.288846    1.678361   -0.320183
      2          1           0        1.484980    1.802760    0.206383
      3          6           0       -3.372947    0.218550   -0.505733
      4          1           0       -4.388865    0.293561   -0.816715
      5          6           0       -2.230866    0.133867   -0.155111
      6          6           0       -0.846777    0.085532    0.283458
      7          8           0       -0.283580    1.007598    0.810578
      8          8           0       -0.302037   -1.103208    0.034388
      9          6           0        1.063752   -1.295959    0.448908
     10          6           0        2.041055   -0.807982   -0.583208
     11          1           0        1.149580   -2.378947    0.567759
     12          1           0        1.218542   -0.818438    1.418409
     13          1           0        3.061146   -1.125496   -0.374082
     14          1           0        1.738775   -1.015057   -1.608388
     15          1           0        2.184710    0.575562   -0.521514
 ---------------------------------------------------------------------
                    Distance matrix (angstroms):
                    1          2          3          4          5
     1  O    0.000000
     2  H    0.968993   0.000000
     3  C    5.849904   5.159097   0.000000
     4  H    6.837839   6.150322   1.065094   0.000000
     5  C    4.779174   4.089425   1.197688   2.262782   0.000000
     6  C    3.568420   2.896878   2.649915   3.714841   1.452715
     7  O    2.888930   2.031044   3.449559   4.473399   2.342623
     8  O    3.817790   3.415796   3.386630   4.401989   2.299271
     9  C    3.307406   3.136608   4.784284   5.818884   3.641943
    10  C    2.512466   2.783639   5.511006   6.527771   4.395413
    11  H    4.306752   4.210672   5.324718   6.303447   4.273662
    12  H    3.225253   2.900116   5.085218   6.138024   3.909126
    13  H    2.908774   3.375785   6.574294   7.596862   5.444202
    14  H    3.035877   3.361235   5.372833   6.315631   4.380650
    15  H    1.125853   1.589173   5.569134   6.586240   4.452713
                    6          7          8          9         10
     6  C    0.000000
     7  O    1.202186   0.000000
     8  O    1.331120   2.249069   0.000000
     9  C    2.363475   2.693044   1.440264   0.000000
    10  C    3.144686   3.262345   2.441037   1.502833   0.000000
    11  H    3.184325   3.685322   2.004791   1.092866   2.141818
    12  H    2.524048   2.441360   2.075757   1.091750   2.164049
    13  H    4.143768   4.140133   3.387971   2.167015   1.088639
    14  H    3.387544   3.745991   2.621335   2.183353   1.088691
    15  H    3.174590   2.837883   3.051427   2.387647   1.392349
                   11         12         13         14         15
    11  H    0.000000
    12  H    1.778637   0.000000
    13  H    2.472304   2.588918   0.000000
    14  H    2.634950   3.077467   1.812284   0.000000
    15  H    3.314684   2.576823   1.919238   1.977428   0.000000
 Stoichiometry    C5H7O3(2)
 Framework group  C1[X(C5H7O3)]
 Deg. of freedom    39
 Full point group                 C1      NOp   1
 Largest Abelian subgroup         C1      NOp   1
 Largest concise Abelian subgroup C1      NOp   1
                         Standard orientation:                         
 ---------------------------------------------------------------------
 Center     Atomic      Atomic             Coordinates (Angstroms)
 Number     Number       Type             X           Y           Z
 ---------------------------------------------------------------------
      1          8           0        2.288846    1.678361   -0.320183
      2          1           0        1.484980    1.802760    0.206383
      3          6           0       -3.372947    0.218550   -0.505733
      4          1           0       -4.388865    0.293561   -0.816715
      5          6           0       -2.230866    0.133867   -0.155111
      6          6           0       -0.846777    0.085532    0.283458
      7          8           0       -0.283580    1.007598    0.810578
      8          8           0       -0.302037   -1.103208    0.034388
      9          6           0        1.063752   -1.295959    0.448908
     10          6           0        2.041055   -0.807982   -0.583208
     11          1           0        1.149580   -2.378947    0.567759
     12          1           0        1.218542   -0.818438    1.418409
     13          1           0        3.061146   -1.125496   -0.374082
     14          1           0        1.738775   -1.015057   -1.608388
     15          1           0        2.184710    0.575562   -0.521514
 ---------------------------------------------------------------------
 Rotational constants (GHZ):           3.3496974           1.1875146           0.9750193
 Standard basis: 6-311++G(d,p) (5D, 7F)
 There are   233 symmetry adapted cartesian basis functions of A   symmetry.
 There are   225 symmetry adapted basis functions of A   symmetry.
   225 basis functions,   351 primitive gaussians,   233 cartesian basis functions
    31 alpha electrons       30 beta electrons
       nuclear repulsion energy       353.6745201780 Hartrees.
 NAtoms=   15 NActive=   15 NUniq=   15 SFac= 1.00D+00 NAtFMM=   60 NAOKFM=F Big=F
 Integral buffers will be    131072 words long.
 Raffenetti 2 integral format.
 Two-electron integral symmetry is turned on.
 One-electron integrals computed using PRISM.
 NBasis=   225 RedAO= T EigKep=  7.26D-06  NBF=   225
 NBsUse=   224 1.00D-06 EigRej=  7.37D-07 NBFU=   224
 ExpMin= 3.60D-02 ExpMax= 8.59D+03 ExpMxC= 1.30D+03 IAcc=3 IRadAn=         5 AccDes= 0.00D+00
 Harris functional with IExCor= 1009 and IRadAn=       5 diagonalized for initial guess.
 HarFok:  IExCor= 1009 AccDes= 0.00D+00 IRadAn=         5 IDoV= 1 UseB2=F ITyADJ=14
 ICtDFT=  3500011 ScaDFX=  1.000000  1.000000  1.000000  1.000000
 FoFCou: FMM=F IPFlag=           0 FMFlag=      100000 FMFlg1=           0
         NFxFlg=           0 DoJE=T BraDBF=F KetDBF=T FulRan=T
         wScrn=  0.000000 ICntrl=       500 IOpCl=  0 I1Cent=   200000004 NGrid=           0
         NMat0=    1 NMatS0=      1 NMatT0=    0 NMatD0=    1 NMtDS0=    0 NMtDT0=    0
 Petite list used in FoFCou.
 Initial guess <Sx>= 0.0000 <Sy>= 0.0000 <Sz>= 0.5000 <S**2>= 0.7500 S= 0.5000
 Requested convergence on RMS density matrix=1.00D-08 within 128 cycles.
 Requested convergence on MAX density matrix=1.00D-06.
 Requested convergence on             energy=1.00D-06.
 No special actions if energy rises.
 SCF Done:  E(UM062X) =  -420.207740135     A.U. after   18 cycles
            NFock= 18  Conv=0.60D-08     -V/T= 2.0034
 <Sx>= 0.0000 <Sy>= 0.0000 <Sz>= 0.5000 <S**2>= 0.7592 S= 0.5046
 <L.S>=  0.00000000000    
 Annihilation of the first spin contaminant:
 S**2 before annihilation     0.7592,   after     0.7500
 DoSCS=F DFT=T ScalE2(SS,OS)=  1.000000  1.000000
 Range of M.O.s used for correlation:     1   224
 NBasis=   225 NAE=    31 NBE=    30 NFC=     0 NFV=     0
 NROrb=    224 NOA=    31 NOB=    30 NVA=   193 NVB=   194

 **** Warning!!: The largest alpha MO coefficient is  0.10640708D+03


 **** Warning!!: The largest beta MO coefficient is  0.10228505D+03

 Symmetrizing basis deriv contribution to polar:
 IMax=3 JMax=2 DiffMx= 0.00D+00
 G2DrvN: will do    16 centers at a time, making    1 passes.
 Calling FoFCou, ICntrl=  3107 FMM=F I1Cent=   0 AccDes= 0.00D+00.
 End of G2Drv F.D. properties file   721 does not exist.
 End of G2Drv F.D. properties file   722 does not exist.
 End of G2Drv F.D. properties file   788 does not exist.
          IDoAtm=111111111111111
          Differentiating once with respect to electric field.
                with respect to dipole field.
          Differentiating once with respect to nuclear coordinates.
 Keep R1 and R2 ints in memory in canonical form, NReq=671901989.
          There are    48 degrees of freedom in the 1st order CPHF.  IDoFFX=6 NUNeed=     3.
     45 vectors produced by pass  0 Test12= 2.46D-14 2.08D-09 XBig12= 9.65D+01 4.09D+00.
 AX will form    45 AO Fock derivatives at one time.
     45 vectors produced by pass  1 Test12= 2.46D-14 2.08D-09 XBig12= 2.10D+01 8.38D-01.
     45 vectors produced by pass  2 Test12= 2.46D-14 2.08D-09 XBig12= 8.09D-01 1.57D-01.
     45 vectors produced by pass  3 Test12= 2.46D-14 2.08D-09 XBig12= 1.11D-02 1.53D-02.
     45 vectors produced by pass  4 Test12= 2.46D-14 2.08D-09 XBig12= 9.16D-05 1.04D-03.
     45 vectors produced by pass  5 Test12= 2.46D-14 2.08D-09 XBig12= 5.66D-07 7.41D-05.
     45 vectors produced by pass  6 Test12= 2.46D-14 2.08D-09 XBig12= 4.98D-09 6.88D-06.
     19 vectors produced by pass  7 Test12= 2.46D-14 2.08D-09 XBig12= 3.00D-11 4.75D-07.
      3 vectors produced by pass  8 Test12= 2.46D-14 2.08D-09 XBig12= 1.74D-13 3.82D-08.
      2 vectors produced by pass  9 Test12= 2.46D-14 2.08D-09 XBig12= 1.33D-15 4.57D-09.
 InvSVY:  IOpt=1 It=  1 EMax= 8.88D-15
 Solved reduced A of dimension   339 with    48 vectors.
 Isotropic polarizability for W=    0.000000       73.50 Bohr**3.
 End of Minotr F.D. properties file   721 does not exist.
 End of Minotr F.D. properties file   722 does not exist.
 End of Minotr F.D. properties file   788 does not exist.

 **********************************************************************

            Population analysis using the SCF density.

 **********************************************************************

 Orbital symmetries:
 Alpha Orbitals:
       Occupied  (A) (A) (A) (A) (A) (A) (A) (A) (A) (A) (A) (A)
                 (A) (A) (A) (A) (A) (A) (A) (A) (A) (A) (A) (A)
                 (A) (A) (A) (A) (A) (A) (A)
       Virtual   (A) (A) (A) (A) (A) (A) (A) (A) (A) (A) (A) (A)
                 (A) (A) (A) (A) (A) (A) (A) (A) (A) (A) (A) (A)
                 (A) (A) (A) (A) (A) (A) (A) (A) (A) (A) (A) (A)
                 (A) (A) (A) (A) (A) (A) (A) (A) (A) (A) (A) (A)
                 (A) (A) (A) (A) (A) (A) (A) (A) (A) (A) (A) (A)
                 (A) (A) (A) (A) (A) (A) (A) (A) (A) (A) (A) (A)
                 (A) (A) (A) (A) (A) (A) (A) (A) (A) (A) (A) (A)
                 (A) (A) (A) (A) (A) (A) (A) (A) (A) (A) (A) (A)
                 (A) (A) (A) (A) (A) (A) (A) (A) (A) (A) (A) (A)
                 (A) (A) (A) (A) (A) (A) (A) (A) (A) (A) (A) (A)
                 (A) (A) (A) (A) (A) (A) (A) (A) (A) (A) (A) (A)
                 (A) (A) (A) (A) (A) (A) (A) (A) (A) (A) (A) (A)
                 (A) (A) (A) (A) (A) (A) (A) (A) (A) (A) (A) (A)
                 (A) (A) (A) (A) (A) (A) (A) (A) (A) (A) (A) (A)
                 (A) (A) (A) (A) (A) (A) (A) (A) (A) (A) (A) (A)
                 (A) (A) (A) (A) (A) (A) (A) (A) (A) (A) (A) (A)
                 (A)
 Beta  Orbitals:
       Occupied  (A) (A) (A) (A) (A) (A) (A) (A) (A) (A) (A) (A)
                 (A) (A) (A) (A) (A) (A) (A) (A) (A) (A) (A) (A)
                 (A) (A) (A) (A) (A) (A)
       Virtual   (A) (A) (A) (A) (A) (A) (A) (A) (A) (A) (A) (A)
                 (A) (A) (A) (A) (A) (A) (A) (A) (A) (A) (A) (A)
                 (A) (A) (A) (A) (A) (A) (A) (A) (A) (A) (A) (A)
                 (A) (A) (A) (A) (A) (A) (A) (A) (A) (A) (A) (A)
                 (A) (A) (A) (A) (A) (A) (A) (A) (A) (A) (A) (A)
                 (A) (A) (A) (A) (A) (A) (A) (A) (A) (A) (A) (A)
                 (A) (A) (A) (A) (A) (A) (A) (A) (A) (A) (A) (A)
                 (A) (A) (A) (A) (A) (A) (A) (A) (A) (A) (A) (A)
                 (A) (A) (A) (A) (A) (A) (A) (A) (A) (A) (A) (A)
                 (A) (A) (A) (A) (A) (A) (A) (A) (A) (A) (A) (A)
                 (A) (A) (A) (A) (A) (A) (A) (A) (A) (A) (A) (A)
                 (A) (A) (A) (A) (A) (A) (A) (A) (A) (A) (A) (A)
                 (A) (A) (A) (A) (A) (A) (A) (A) (A) (A) (A) (A)
                 (A) (A) (A) (A) (A) (A) (A) (A) (A) (A) (A) (A)
                 (A) (A) (A) (A) (A) (A) (A) (A) (A) (A) (A) (A)
                 (A) (A) (A) (A) (A) (A) (A) (A) (A) (A) (A) (A)
                 (A) (A)
 The electronic state is 2-A.
 Alpha  occ. eigenvalues --  -19.70302 -19.65030 -19.61176 -10.72546 -10.63099
 Alpha  occ. eigenvalues --  -10.58164 -10.58083 -10.57678  -1.27658  -1.18310
 Alpha  occ. eigenvalues --   -1.10189  -0.92324  -0.88638  -0.79914  -0.72256
 Alpha  occ. eigenvalues --   -0.66667  -0.62270  -0.60939  -0.59698  -0.57167
 Alpha  occ. eigenvalues --   -0.54282  -0.51435  -0.50006  -0.47848  -0.45952
 Alpha  occ. eigenvalues --   -0.41358  -0.40844  -0.38393  -0.37813  -0.37488
 Alpha  occ. eigenvalues --   -0.31745
 Alpha virt. eigenvalues --   -0.03041  -0.00733   0.00283   0.01383   0.02245
 Alpha virt. eigenvalues --    0.02745   0.03278   0.05100   0.05446   0.06406
 Alpha virt. eigenvalues --    0.06834   0.07262   0.07626   0.09227   0.09917
 Alpha virt. eigenvalues --    0.11122   0.11669   0.12287   0.12432   0.12801
 Alpha virt. eigenvalues --    0.13973   0.14413   0.14727   0.16056   0.16352
 Alpha virt. eigenvalues --    0.17304   0.17810   0.18952   0.19524   0.21396
 Alpha virt. eigenvalues --    0.22280   0.22976   0.23374   0.24675   0.26848
 Alpha virt. eigenvalues --    0.26861   0.28016   0.28210   0.29605   0.30792
 Alpha virt. eigenvalues --    0.31133   0.32038   0.32468   0.33071   0.33693
 Alpha virt. eigenvalues --    0.34336   0.36735   0.37809   0.39973   0.40819
 Alpha virt. eigenvalues --    0.42094   0.43471   0.47858   0.48294   0.50203
 Alpha virt. eigenvalues --    0.50870   0.54130   0.56287   0.56738   0.59279
 Alpha virt. eigenvalues --    0.61110   0.61410   0.64748   0.65788   0.67292
 Alpha virt. eigenvalues --    0.68607   0.70577   0.70931   0.72512   0.73876
 Alpha virt. eigenvalues --    0.74149   0.75146   0.76352   0.79204   0.83975
 Alpha virt. eigenvalues --    0.87309   0.91486   0.96738   1.03416   1.04018
 Alpha virt. eigenvalues --    1.06437   1.08648   1.10027   1.12763   1.14850
 Alpha virt. eigenvalues --    1.15400   1.16250   1.17441   1.19179   1.20887
 Alpha virt. eigenvalues --    1.21325   1.22968   1.27593   1.30440   1.32658
 Alpha virt. eigenvalues --    1.34726   1.35634   1.37076   1.40176   1.43044
 Alpha virt. eigenvalues --    1.45991   1.48361   1.52490   1.54169   1.58177
 Alpha virt. eigenvalues --    1.59815   1.60008   1.61521   1.62537   1.65087
 Alpha virt. eigenvalues --    1.66527   1.67397   1.69258   1.71926   1.73561
 Alpha virt. eigenvalues --    1.79574   1.80711   1.83268   1.83858   1.89304
 Alpha virt. eigenvalues --    1.95212   1.98933   2.00756   2.04015   2.06391
 Alpha virt. eigenvalues --    2.09175   2.13933   2.19277   2.23913   2.27386
 Alpha virt. eigenvalues --    2.38252   2.41594   2.47441   2.49893   2.53557
 Alpha virt. eigenvalues --    2.58552   2.59150   2.60696   2.61408   2.65062
 Alpha virt. eigenvalues --    2.66786   2.69804   2.71532   2.74767   2.79955
 Alpha virt. eigenvalues --    2.80858   2.84159   2.88432   2.92449   2.97424
 Alpha virt. eigenvalues --    3.00004   3.03298   3.05465   3.08805   3.10279
 Alpha virt. eigenvalues --    3.14354   3.19568   3.21880   3.23527   3.29232
 Alpha virt. eigenvalues --    3.31045   3.32402   3.35761   3.42370   3.45692
 Alpha virt. eigenvalues --    3.55471   3.63980   3.70414   3.78702   3.81504
 Alpha virt. eigenvalues --    3.90224   3.98520   4.06839   4.11784   4.16715
 Alpha virt. eigenvalues --    4.26363   5.10616   5.13207   5.17355   5.31507
 Alpha virt. eigenvalues --    5.44049   5.53941   5.70360   5.75685   5.95377
 Alpha virt. eigenvalues --   23.61379  23.91679  23.92091  23.95276  25.16923
 Alpha virt. eigenvalues --   49.97636  50.02726  50.09405
  Beta  occ. eigenvalues --  -19.70300 -19.65030 -19.60442 -10.72547 -10.63133
  Beta  occ. eigenvalues --  -10.58164 -10.57678 -10.57450  -1.27649  -1.18297
  Beta  occ. eigenvalues --   -1.07371  -0.91827  -0.88034  -0.78724  -0.71480
  Beta  occ. eigenvalues --   -0.66444  -0.62215  -0.60662  -0.59060  -0.54580
  Beta  occ. eigenvalues --   -0.53032  -0.50380  -0.49089  -0.46037  -0.43882
  Beta  occ. eigenvalues --   -0.41225  -0.40259  -0.38336  -0.37460  -0.36361
  Beta virt. eigenvalues --   -0.09075  -0.03017  -0.00633   0.00314   0.01568
  Beta virt. eigenvalues --    0.02409   0.02910   0.03288   0.05340   0.05558
  Beta virt. eigenvalues --    0.06452   0.07102   0.07353   0.07654   0.09389
  Beta virt. eigenvalues --    0.10011   0.11021   0.11766   0.12109   0.12434
  Beta virt. eigenvalues --    0.12952   0.14078   0.14470   0.14879   0.16144
  Beta virt. eigenvalues --    0.16578   0.17564   0.17825   0.19079   0.19704
  Beta virt. eigenvalues --    0.21536   0.22641   0.23200   0.23761   0.24836
  Beta virt. eigenvalues --    0.26800   0.26975   0.28191   0.28613   0.29840
  Beta virt. eigenvalues --    0.31001   0.31334   0.32149   0.32531   0.33183
  Beta virt. eigenvalues --    0.33868   0.34453   0.37034   0.38743   0.40452
  Beta virt. eigenvalues --    0.41889   0.42375   0.43778   0.48035   0.48318
  Beta virt. eigenvalues --    0.50943   0.51389   0.54150   0.56466   0.56860
  Beta virt. eigenvalues --    0.59342   0.61356   0.62436   0.65515   0.65993
  Beta virt. eigenvalues --    0.67529   0.69035   0.70880   0.71651   0.73017
  Beta virt. eigenvalues --    0.74134   0.74635   0.75335   0.76959   0.79287
  Beta virt. eigenvalues --    0.84005   0.87399   0.91488   0.97883   1.04159
  Beta virt. eigenvalues --    1.04768   1.07144   1.08919   1.10115   1.13384
  Beta virt. eigenvalues --    1.14983   1.15857   1.16622   1.18040   1.19548
  Beta virt. eigenvalues --    1.21276   1.21637   1.23249   1.27738   1.30683
  Beta virt. eigenvalues --    1.33122   1.34883   1.35894   1.37183   1.40461
  Beta virt. eigenvalues --    1.43115   1.46365   1.48989   1.53244   1.55910
  Beta virt. eigenvalues --    1.58792   1.59947   1.60769   1.62141   1.62888
  Beta virt. eigenvalues --    1.65278   1.66875   1.67815   1.69709   1.72223
  Beta virt. eigenvalues --    1.74206   1.79975   1.81015   1.83502   1.83971
  Beta virt. eigenvalues --    1.89487   1.95400   1.99264   2.01129   2.04675
  Beta virt. eigenvalues --    2.06799   2.11010   2.14607   2.21202   2.24701
  Beta virt. eigenvalues --    2.28027   2.41103   2.41756   2.47781   2.50451
  Beta virt. eigenvalues --    2.54628   2.58352   2.59698   2.61709   2.62050
  Beta virt. eigenvalues --    2.65146   2.66872   2.68167   2.72332   2.74561
  Beta virt. eigenvalues --    2.80164   2.80866   2.84340   2.87947   2.92574
  Beta virt. eigenvalues --    2.97500   3.00105   3.03324   3.05475   3.09218
  Beta virt. eigenvalues --    3.11631   3.15019   3.19596   3.22538   3.23836
  Beta virt. eigenvalues --    3.29691   3.32477   3.33234   3.35857   3.42476
  Beta virt. eigenvalues --    3.48375   3.55539   3.64029   3.70667   3.80012
  Beta virt. eigenvalues --    3.82924   3.90880   3.99320   4.07914   4.11908
  Beta virt. eigenvalues --    4.16725   4.27933   5.11117   5.14066   5.17383
  Beta virt. eigenvalues --    5.31512   5.44075   5.55995   5.71023   5.77244
  Beta virt. eigenvalues --    5.95445  23.61379  23.91719  23.92361  23.96155
  Beta virt. eigenvalues --   25.16923  49.97636  50.01958  50.09394
          Condensed to atoms (all electrons):
               1          2          3          4          5          6
     1  O    7.980841   0.312916   0.003767   0.000156  -0.014999   0.000279
     2  H    0.312916   0.432575  -0.005186  -0.000276   0.007107  -0.035100
     3  C    0.003767  -0.005186   6.350868   0.496891  -1.309635   1.278701
     4  H    0.000156  -0.000276   0.496891   0.441079  -0.157287   0.048617
     5  C   -0.014999   0.007107  -1.309635  -0.157287   9.375759  -2.669518
     6  C    0.000279  -0.035100   1.278701   0.048617  -2.669518   7.733647
     7  O   -0.002459   0.018392  -0.083242  -0.002040   0.058270   0.319780
     8  O   -0.001809   0.000148  -0.102792  -0.005715  -0.184505   0.145533
     9  C    0.004515   0.051229   0.005172  -0.003952  -0.307736  -0.211683
    10  C   -0.029728   0.009536   0.001201   0.000305  -0.031431   0.040879
    11  H    0.001982   0.003706  -0.005766  -0.000553   0.003790  -0.040577
    12  H   -0.006550  -0.009783   0.002383   0.000312   0.010233   0.033447
    13  H   -0.014648   0.003531   0.001974   0.000083  -0.011407   0.005577
    14  H    0.003345  -0.002219  -0.007760  -0.000428   0.032120  -0.017337
    15  H    0.217359  -0.052887   0.006497   0.000264  -0.016473   0.020385
               7          8          9         10         11         12
     1  O   -0.002459  -0.001809   0.004515  -0.029728   0.001982  -0.006550
     2  H    0.018392   0.000148   0.051229   0.009536   0.003706  -0.009783
     3  C   -0.083242  -0.102792   0.005172   0.001201  -0.005766   0.002383
     4  H   -0.002040  -0.005715  -0.003952   0.000305  -0.000553   0.000312
     5  C    0.058270  -0.184505  -0.307736  -0.031431   0.003790   0.010233
     6  C    0.319780   0.145533  -0.211683   0.040879  -0.040577   0.033447
     7  O    8.082350  -0.152638   0.119639  -0.081354   0.005943  -0.024222
     8  O   -0.152638   8.228707   0.204750  -0.063498  -0.092944  -0.002241
     9  C    0.119639   0.204750   6.039201  -0.207358   0.505028   0.304370
    10  C   -0.081354  -0.063498  -0.207358   6.061713  -0.090799  -0.006865
    11  H    0.005943  -0.092944   0.505028  -0.090799   0.568760  -0.059608
    12  H   -0.024222  -0.002241   0.304370  -0.006865  -0.059608   0.524224
    13  H    0.001546   0.011134   0.002688   0.360196   0.000774  -0.009506
    14  H   -0.003539  -0.000279  -0.061319   0.385798  -0.011314   0.011236
    15  H    0.012655  -0.012328  -0.014320   0.092376   0.004606  -0.008064
              13         14         15
     1  O   -0.014648   0.003345   0.217359
     2  H    0.003531  -0.002219  -0.052887
     3  C    0.001974  -0.007760   0.006497
     4  H    0.000083  -0.000428   0.000264
     5  C   -0.011407   0.032120  -0.016473
     6  C    0.005577  -0.017337   0.020385
     7  O    0.001546  -0.003539   0.012655
     8  O    0.011134  -0.000279  -0.012328
     9  C    0.002688  -0.061319  -0.014320
    10  C    0.360196   0.385798   0.092376
    11  H    0.000774  -0.011314   0.004606
    12  H   -0.009506   0.011236  -0.008064
    13  H    0.511194  -0.045834  -0.011478
    14  H   -0.045834   0.533384  -0.031158
    15  H   -0.011478  -0.031158   0.461754
          Atomic-Atomic Spin Densities.
               1          2          3          4          5          6
     1  O    0.426948  -0.012588  -0.000304  -0.000011   0.000645  -0.007165
     2  H   -0.012588  -0.001042   0.000643   0.000001  -0.003904   0.002623
     3  C   -0.000304   0.000643  -0.008497  -0.000919   0.013043  -0.003221
     4  H   -0.000011   0.000001  -0.000919  -0.000763   0.000810   0.000625
     5  C    0.000645  -0.003904   0.013043   0.000810  -0.051071   0.017441
     6  C   -0.007165   0.002623  -0.003221   0.000625   0.017441  -0.021150
     7  O    0.005086  -0.001712  -0.001022  -0.000051   0.003393   0.001315
     8  O    0.002439  -0.001951   0.000580   0.000033  -0.000778  -0.006582
     9  C    0.028093  -0.005154  -0.000786   0.000370   0.027915   0.008938
    10  C   -0.140138   0.026721  -0.000218  -0.000106  -0.012422  -0.006187
    11  H   -0.001306   0.001425   0.000113   0.000031   0.000521   0.007279
    12  H    0.002033  -0.002632   0.000326  -0.000010  -0.002751  -0.004799
    13  H    0.005422  -0.001317  -0.000125  -0.000001   0.000809  -0.000681
    14  H    0.003885  -0.002729   0.000305   0.000007  -0.000318  -0.000304
    15  H    0.032855   0.009015  -0.000327   0.000016   0.007887   0.018888
               7          8          9         10         11         12
     1  O    0.005086   0.002439   0.028093  -0.140138  -0.001306   0.002033
     2  H   -0.001712  -0.001951  -0.005154   0.026721   0.001425  -0.002632
     3  C   -0.001022   0.000580  -0.000786  -0.000218   0.000113   0.000326
     4  H   -0.000051   0.000033   0.000370  -0.000106   0.000031  -0.000010
     5  C    0.003393  -0.000778   0.027915  -0.012422   0.000521  -0.002751
     6  C    0.001315  -0.006582   0.008938  -0.006187   0.007279  -0.004799
     7  O    0.001079   0.000522  -0.002887  -0.004374  -0.000479   0.000756
     8  O    0.000522   0.004685   0.015104  -0.014989  -0.008582   0.005013
     9  C   -0.002887   0.015104  -0.074106  -0.051711  -0.001198   0.019239
    10  C   -0.004374  -0.014989  -0.051711   0.999089  -0.001049  -0.022999
    11  H   -0.000479  -0.008582  -0.001198  -0.001049   0.064018  -0.010081
    12  H    0.000756   0.005013   0.019239  -0.022999  -0.010081   0.019516
    13  H    0.000039   0.000254   0.009963  -0.023171  -0.002681   0.001912
    14  H    0.000706   0.002189   0.016147  -0.048075  -0.003922   0.000757
    15  H   -0.005660   0.002208  -0.039505   0.043514  -0.004999   0.007722
              13         14         15
     1  O    0.005422   0.003885   0.032855
     2  H   -0.001317  -0.002729   0.009015
     3  C   -0.000125   0.000305  -0.000327
     4  H   -0.000001   0.000007   0.000016
     5  C    0.000809  -0.000318   0.007887
     6  C   -0.000681  -0.000304   0.018888
     7  O    0.000039   0.000706  -0.005660
     8  O    0.000254   0.002189   0.002208
     9  C    0.009963   0.016147  -0.039505
    10  C   -0.023171  -0.048075   0.043514
    11  H   -0.002681  -0.003922  -0.004999
    12  H    0.001912   0.000757   0.007722
    13  H   -0.025299   0.008697   0.001084
    14  H    0.008697  -0.008527   0.015961
    15  H    0.001084   0.015961  -0.153752
 Mulliken charges and spin densities:
               1          2
     1  O   -0.454965   0.345892
     2  H    0.266312   0.007399
     3  C   -0.633072  -0.000409
     4  H    0.182543   0.000032
     5  C    1.215710   0.001221
     6  C   -0.652628   0.007020
     7  O   -0.269080  -0.003288
     8  O    0.028477   0.000146
     9  C   -0.430224  -0.049578
    10  C   -0.440972   0.743882
    11  H    0.206972   0.039090
    12  H    0.240635   0.014003
    13  H    0.194176  -0.025095
    14  H    0.215304  -0.015220
    15  H    0.330813  -0.065095
 Sum of Mulliken charges =  -0.00000   1.00000
 Mulliken charges and spin densities with hydrogens summed into heavy atoms:
               1          2
     1  O    0.142159   0.288196
     3  C   -0.450530  -0.000377
     5  C    1.215710   0.001221
     6  C   -0.652628   0.007020
     7  O   -0.269080  -0.003288
     8  O    0.028477   0.000146
     9  C    0.017383   0.003515
    10  C   -0.031492   0.703567
 APT charges:
               1
     1  O   -0.450367
     2  H    0.322073
     3  C   -0.167295
     4  H    0.238465
     5  C   -0.318000
     6  C    1.471739
     7  O   -0.801000
     8  O   -0.910593
     9  C    0.430072
    10  C    0.207899
    11  H    0.005581
    12  H    0.013960
    13  H    0.005467
    14  H    0.007399
    15  H   -0.055400
 Sum of APT charges =   0.00000
 APT charges with hydrogens summed into heavy atoms:
               1
     1  O   -0.183694
     3  C    0.071170
     5  C   -0.318000
     6  C    1.471739
     7  O   -0.801000
     8  O   -0.910593
     9  C    0.449613
    10  C    0.220765
 Electronic spatial extent (au):  <R**2>=           1188.7063
 Charge=              0.0000 electrons
 Dipole moment (field-independent basis, Debye):
    X=             -2.1478    Y=             -3.8934    Z=             -0.0645  Tot=              4.4470
 Quadrupole moment (field-independent basis, Debye-Ang):
   XX=            -40.7304   YY=            -52.2521   ZZ=            -47.6559
   XY=            -10.5506   XZ=              3.9715   YZ=             -0.4701
 Traceless Quadrupole moment (field-independent basis, Debye-Ang):
   XX=              6.1491   YY=             -5.3726   ZZ=             -0.7764
   XY=            -10.5506   XZ=              3.9715   YZ=             -0.4701
 Octapole moment (field-independent basis, Debye-Ang**2):
  XXX=            -63.4461  YYY=             -8.0338  ZZZ=              2.6461  XYY=              0.7664
  XXY=            -18.6467  XXZ=            -10.9330  XZZ=              3.7774  YZZ=             -3.0701
  YYZ=              5.4912  XYZ=              5.7724
 Hexadecapole moment (field-independent basis, Debye-Ang**3):
 XXXX=           -844.1271 YYYY=           -341.4415 ZZZZ=           -124.2274 XXXY=            -80.2900
 XXXZ=             69.3146 YYYX=            -15.5601 YYYZ=              4.1612 ZZZX=             -2.7483
 ZZZY=              2.0921 XXYY=           -281.3770 XXZZ=           -201.3528 YYZZ=            -82.7238
 XXYZ=              2.6424 YYXZ=              9.5297 ZZXY=             -1.3764
 N-N= 3.536745201780D+02 E-N=-1.691510892673D+03  KE= 4.188035142724D+02
  Exact polarizability:  93.375  -1.017  74.722   7.462   2.269  52.410
 Approx polarizability: 100.318   1.341  86.722  12.157   5.852  63.492
                          Isotropic Fermi Contact Couplings
        Atom                 a.u.       MegaHertz       Gauss      10(-4) cm-1
     1  O(17)              0.07832     -47.47552     -16.94044     -15.83613
     2  H(1)              -0.00528     -23.58284      -8.41494      -7.86639
     3  C(13)             -0.00004      -0.04171      -0.01488      -0.01391
     4  H(1)               0.00001       0.03728       0.01330       0.01243
     5  C(13)              0.00027       0.30224       0.10785       0.10082
     6  C(13)             -0.00008      -0.08865      -0.03163      -0.02957
     7  O(17)             -0.00233       1.41171       0.50373       0.47089
     8  O(17)              0.00422      -2.56010      -0.91351      -0.85396
     9  C(13)             -0.02287     -25.71412      -9.17544      -8.57731
    10  C(13)              0.23883     268.49350      95.80516      89.55979
    11  H(1)               0.01887      84.35904      30.10140      28.13915
    12  H(1)               0.00710      31.73992      11.32559      10.58730
    13  H(1)              -0.00787     -35.17810     -12.55242     -11.73415
    14  H(1)              -0.00470     -20.99440      -7.49132      -7.00298
    15  H(1)              -0.03259    -145.67466     -51.98034     -48.59184
 --------------------------------------------------------
       Center         ----  Spin Dipole Couplings  ----
                      3XX-RR        3YY-RR        3ZZ-RR
 --------------------------------------------------------
     1   Atom       -0.733256      1.492216     -0.758960
     2   Atom        0.030617     -0.012166     -0.018452
     3   Atom        0.001733     -0.000598     -0.001135
     4   Atom        0.000914     -0.000419     -0.000495
     5   Atom        0.002750     -0.001304     -0.001445
     6   Atom        0.006710     -0.002034     -0.004675
     7   Atom        0.000574     -0.003764      0.003189
     8   Atom        0.008233     -0.003594     -0.004639
     9   Atom       -0.000222      0.013668     -0.013446
    10   Atom       -0.404272      0.801716     -0.397444
    11   Atom       -0.003388      0.006407     -0.003019
    12   Atom       -0.005646     -0.005928      0.011573
    13   Atom        0.046736     -0.000716     -0.046019
    14   Atom       -0.042021     -0.006412      0.048434
    15   Atom       -0.124309      0.245633     -0.121324
 --------------------------------------------------------
                        XY            XZ            YZ
 --------------------------------------------------------
     1   Atom        0.377543      0.051644      0.244734
     2   Atom       -0.011015     -0.056509      0.015909
     3   Atom       -0.000144      0.000327      0.000186
     4   Atom       -0.000069      0.000073      0.000004
     5   Atom       -0.000170     -0.000370     -0.000017
     6   Atom       -0.001095     -0.002188      0.000790
     7   Atom       -0.001077     -0.008559     -0.000507
     8   Atom       -0.001665      0.001285     -0.001684
     9   Atom        0.022487     -0.010269     -0.009562
    10   Atom        0.021502      0.003898      0.109733
    11   Atom        0.002769     -0.005629     -0.006815
    12   Atom        0.001182     -0.008570     -0.002815
    13   Atom       -0.025228      0.021593     -0.001361
    14   Atom        0.003451      0.030292      0.015412
    15   Atom        0.037310      0.003894      0.046198
 --------------------------------------------------------


 ---------------------------------------------------------------------------------
              Anisotropic Spin Dipole Couplings in Principal Axis System
 ---------------------------------------------------------------------------------

       Atom             a.u.   MegaHertz   Gauss  10(-4) cm-1        Axes

              Baa    -0.8027    58.083    20.726    19.375  0.8377 -0.0802 -0.5403
     1 O(17)  Bbb    -0.7785    56.331    20.100    18.790  0.5215 -0.1767  0.8348
              Bcc     1.5812  -114.415   -40.826   -38.165  0.1624  0.9810  0.1062
 
              Baa    -0.0568   -30.294   -10.809   -10.105  0.5198 -0.1702  0.8371
     2 H(1)   Bbb    -0.0148    -7.882    -2.813    -2.629  0.2692  0.9627  0.0286
              Bcc     0.0716    38.176    13.622    12.734  0.8107 -0.2105 -0.5462
 
              Baa    -0.0012    -0.166    -0.059    -0.055 -0.1187 -0.3028  0.9456
     3 C(13)  Bbb    -0.0005    -0.072    -0.026    -0.024  0.0161  0.9516  0.3068
              Bcc     0.0018     0.238     0.085     0.079  0.9928 -0.0516  0.1081
 
              Baa    -0.0005    -0.267    -0.095    -0.089 -0.0559 -0.0962  0.9938
     4 H(1)   Bbb    -0.0004    -0.225    -0.080    -0.075  0.0461  0.9940  0.0988
              Bcc     0.0009     0.492     0.175     0.164  0.9974 -0.0514  0.0512
 
              Baa    -0.0015    -0.199    -0.071    -0.066  0.0927  0.1784  0.9796
     5 C(13)  Bbb    -0.0013    -0.175    -0.063    -0.058  0.0247  0.9831 -0.1813
              Bcc     0.0028     0.374     0.134     0.125  0.9954 -0.0410 -0.0867
 
              Baa    -0.0052    -0.697    -0.249    -0.232  0.1610 -0.1867  0.9691
     6 C(13)  Bbb    -0.0021    -0.280    -0.100    -0.093  0.1613  0.9737  0.1607
              Bcc     0.0073     0.976     0.348     0.326  0.9737 -0.1304 -0.1869
 
              Baa    -0.0072     0.518     0.185     0.173  0.7224  0.3203  0.6128
     7 O(17)  Bbb    -0.0034     0.245     0.087     0.082 -0.2290  0.9471 -0.2251
              Bcc     0.0105    -0.763    -0.272    -0.255 -0.6525  0.0223  0.7575
 
              Baa    -0.0059     0.425     0.152     0.142 -0.0037  0.5914  0.8064
     8 O(17)  Bbb    -0.0028     0.199     0.071     0.067  0.1880  0.7924 -0.5803
              Bcc     0.0086    -0.625    -0.223    -0.208  0.9822 -0.1494  0.1141
 
              Baa    -0.0196    -2.634    -0.940    -0.879  0.6516 -0.2327  0.7220
     9 C(13)  Bbb    -0.0146    -1.963    -0.700    -0.655 -0.4871  0.6013  0.6334
              Bcc     0.0343     4.597     1.640     1.533  0.5815  0.7644 -0.2784
 
              Baa    -0.4084   -54.804   -19.555   -18.281 -0.4596 -0.0721  0.8852
    10 C(13)  Bbb    -0.4037   -54.167   -19.328   -18.068  0.8879 -0.0574  0.4564
              Bcc     0.8121   108.971    38.884    36.349  0.0179  0.9957  0.0904
 
              Baa    -0.0095    -5.052    -1.803    -1.685  0.6060  0.2222  0.7638
    11 H(1)   Bbb    -0.0023    -1.224    -0.437    -0.408  0.7233 -0.5536 -0.4128
              Bcc     0.0118     6.276     2.239     2.093  0.3311  0.8026 -0.4962
 
              Baa    -0.0092    -4.900    -1.749    -1.635  0.9246 -0.0065  0.3809
    12 H(1)   Bbb    -0.0064    -3.394    -1.211    -1.132 -0.0477  0.9900  0.1326
              Bcc     0.0155     8.294     2.960     2.767 -0.3779 -0.1408  0.9151
 
              Baa    -0.0512   -27.309    -9.744    -9.109 -0.2371 -0.0924  0.9671
    13 H(1)   Bbb    -0.0103    -5.517    -1.969    -1.840  0.3430  0.9234  0.1723
              Bcc     0.0615    32.825    11.713    10.949  0.9089 -0.3725  0.1872
 
              Baa    -0.0513   -27.350    -9.759    -9.123  0.9552  0.0277 -0.2945
    14 H(1)   Bbb    -0.0100    -5.359    -1.912    -1.787 -0.0926  0.9736 -0.2086
              Bcc     0.0613    32.709    11.671    10.911  0.2810  0.2266  0.9326
 
              Baa    -0.1284   -68.509   -24.446   -22.852  0.8778 -0.1440  0.4568
    15 H(1)   Bbb    -0.1267   -67.582   -24.115   -22.543 -0.4687 -0.0624  0.8811
              Bcc     0.2551   136.092    48.561    45.395  0.0984  0.9876  0.1222
 

 ---------------------------------------------------------------------------------

 Calling FoFJK, ICntrl=    100127 FMM=F ISym2X=0 I1Cent= 0 IOpClX= 1 NMat=1 NMatS=1 NMatT=0.
 Full mass-weighted force constant matrix:
 Low frequencies ----1285.5458  -34.9603  -13.8339   -4.5712   -0.0010   -0.0009
 Low frequencies ---   -0.0007   26.7252   89.4997
 ******    1 imaginary frequencies (negative Signs) ****** 
 Diagonal vibrational polarizability:
      221.1691770      26.8833170      49.9430831
 Harmonic frequencies (cm**-1), IR intensities (KM/Mole), Raman scattering
 activities (A**4/AMU), depolarization ratios for plane and unpolarized
 incident light, reduced masses (AMU), force constants (mDyne/A),
 and normal coordinates:
                      1                      2                      3
                      A                      A                      A
 Frequencies --  -1285.5453                17.8463                89.3586
 Red. masses --      1.1326                 6.7499                 3.7501
 Frc consts  --      1.1028                 0.0013                 0.0176
 IR Inten    --    252.5127                 2.6579                 3.3107
  Atom  AN      X      Y      Z        X      Y      Z        X      Y      Z
     1   8    -0.00  -0.01   0.00    -0.30   0.01  -0.27    -0.01   0.04   0.01
     2   1     0.04   0.11  -0.00    -0.16  -0.04  -0.03    -0.01   0.06   0.01
     3   6     0.00  -0.00   0.00     0.12   0.17  -0.15     0.12   0.05  -0.21
     4   1    -0.00   0.00   0.00     0.16   0.25  -0.25     0.17   0.09  -0.38
     5   6     0.00  -0.00  -0.00     0.08   0.07  -0.04     0.05  -0.01  -0.01
     6   6    -0.00   0.00   0.00     0.03  -0.02   0.10     0.01  -0.04   0.10
     7   8    -0.00  -0.00   0.00    -0.02  -0.12   0.33     0.04  -0.02   0.03
     8   8     0.00  -0.00  -0.00     0.06   0.02  -0.07    -0.04  -0.10   0.24
     9   6    -0.00   0.01  -0.00     0.02  -0.05   0.02     0.04  -0.00   0.01
    10   6    -0.01  -0.11  -0.01     0.10  -0.06   0.09    -0.19   0.07  -0.18
    11   1    -0.00  -0.00   0.02    -0.02  -0.05  -0.00     0.14   0.00  -0.01
    12   1     0.01   0.01  -0.00    -0.03  -0.07   0.04     0.18   0.00  -0.01
    13   1     0.04   0.13   0.02     0.12   0.17   0.30    -0.15  -0.01  -0.48
    14   1    -0.02   0.10  -0.03     0.28  -0.29   0.08    -0.47   0.21  -0.12
    15   1     0.16   0.96   0.07    -0.25  -0.00  -0.21    -0.06   0.04  -0.01
                      4                      5                      6
                      A                      A                      A
 Frequencies --    117.3915               183.5099               193.7866
 Red. masses --      5.1568                 3.6852                 6.5974
 Frc consts  --      0.0419                 0.0731                 0.1460
 IR Inten    --      3.3043                 1.3723                 5.0344
  Atom  AN      X      Y      Z        X      Y      Z        X      Y      Z
     1   8     0.10  -0.17   0.01    -0.11  -0.11   0.11     0.38   0.09  -0.18
     2   1     0.11  -0.22   0.04    -0.18  -0.23   0.04     0.34   0.24  -0.27
     3   6     0.00  -0.25  -0.12    -0.02   0.21   0.06    -0.09   0.16  -0.04
     4   1     0.02  -0.46  -0.23    -0.03   0.45   0.14    -0.06   0.39  -0.09
     5   6    -0.02   0.02   0.02    -0.01  -0.11  -0.05    -0.13  -0.14   0.02
     6   6    -0.04   0.13   0.10    -0.02  -0.06  -0.04    -0.13  -0.15   0.05
     7   8    -0.12   0.11   0.23    -0.14   0.03  -0.06    -0.20  -0.15   0.13
     8   8     0.04   0.19  -0.04     0.12  -0.01   0.03     0.00  -0.07  -0.03
     9   6     0.02   0.12  -0.04     0.15   0.13   0.05     0.01   0.10   0.04
    10   6     0.00  -0.12  -0.16     0.07  -0.08  -0.12     0.03   0.10   0.05
    11   1    -0.07   0.13   0.13     0.18   0.17   0.34     0.13   0.12   0.11
    12   1     0.10   0.26  -0.12     0.16   0.40  -0.09    -0.08   0.18   0.01
    13   1    -0.02  -0.25  -0.25     0.09  -0.06  -0.19     0.01   0.03   0.05
    14   1    -0.13  -0.11  -0.13    -0.05  -0.17  -0.07     0.04   0.11   0.04
    15   1     0.13  -0.14  -0.10    -0.01  -0.07  -0.07     0.26   0.07  -0.07
                      7                      8                      9
                      A                      A                      A
 Frequencies --    273.1507               336.2579               393.0230
 Red. masses --      4.3647                 3.1650                 1.2046
 Frc consts  --      0.1919                 0.2109                 0.1096
 IR Inten    --      2.2551                12.1224                36.4602
  Atom  AN      X      Y      Z        X      Y      Z        X      Y      Z
     1   8    -0.03  -0.01   0.02    -0.03  -0.01   0.03     0.01  -0.01  -0.01
     2   1    -0.09  -0.04  -0.07    -0.03  -0.06   0.03     0.42  -0.16   0.66
     3   6     0.04   0.06  -0.17     0.02  -0.03  -0.04    -0.03  -0.01  -0.01
     4   1     0.18   0.19  -0.60     0.05  -0.09  -0.16    -0.03  -0.04   0.00
     5   6    -0.14  -0.12   0.39    -0.03   0.06   0.13    -0.02   0.03  -0.02
     6   6    -0.05  -0.01   0.12     0.01  -0.05  -0.02    -0.02  -0.00   0.00
     7   8     0.02   0.09  -0.13     0.18  -0.15  -0.02     0.01  -0.01  -0.01
     8   8    -0.01   0.03  -0.02    -0.03  -0.03  -0.14    -0.04  -0.03   0.06
     9   6     0.01  -0.04  -0.10    -0.06   0.22   0.09     0.01   0.04  -0.04
    10   6     0.12  -0.02   0.01    -0.07   0.01  -0.00     0.03   0.02  -0.03
    11   1    -0.05  -0.06  -0.21     0.06   0.27   0.50     0.05   0.04  -0.03
    12   1     0.04  -0.15  -0.05    -0.21   0.60  -0.08     0.04   0.04  -0.05
    13   1     0.10   0.04   0.22    -0.07   0.00  -0.02     0.05   0.26   0.22
    14   1     0.33  -0.09  -0.04    -0.14  -0.11   0.04     0.25  -0.27  -0.04
    15   1     0.02   0.00  -0.00    -0.03   0.00  -0.07    -0.15   0.06  -0.23
                     10                     11                     12
                      A                      A                      A
 Frequencies --    417.8939               486.9622               571.2660
 Red. masses --      1.6586                 1.7724                 3.1945
 Frc consts  --      0.1707                 0.2476                 0.6142
 IR Inten    --     43.9649                11.1992                 0.8770
  Atom  AN      X      Y      Z        X      Y      Z        X      Y      Z
     1   8    -0.02   0.02  -0.05     0.04  -0.05   0.03     0.01  -0.11  -0.00
     2   1     0.42  -0.12   0.65    -0.08   0.23  -0.22     0.01   0.15  -0.08
     3   6     0.04   0.02   0.00     0.08   0.00   0.03    -0.15  -0.00  -0.05
     4   1     0.06   0.11  -0.03     0.09   0.09   0.04    -0.14  -0.20  -0.14
     5   6     0.02  -0.10   0.05     0.07  -0.11   0.01    -0.14   0.20   0.05
     6   6     0.03   0.01  -0.02     0.04   0.01  -0.00    -0.01  -0.02  -0.04
     7   8    -0.03   0.04  -0.02    -0.03   0.05   0.01    -0.00  -0.04  -0.02
     8   8     0.06   0.04  -0.09     0.01   0.02  -0.05     0.14   0.02  -0.03
     9   6    -0.02  -0.04   0.07    -0.05  -0.01   0.01     0.17  -0.09   0.11
    10   6    -0.08   0.00   0.05    -0.15   0.04  -0.02    -0.05   0.09   0.03
    11   1    -0.05  -0.05   0.03    -0.02  -0.01  -0.00     0.12  -0.12  -0.12
    12   1    -0.09  -0.09   0.11    -0.06   0.00   0.00     0.15  -0.26   0.20
    13   1    -0.07  -0.17  -0.25    -0.03   0.62   0.22     0.13   0.54  -0.22
    14   1    -0.36   0.23   0.09     0.06  -0.45   0.02    -0.27   0.00   0.11
    15   1    -0.03   0.00   0.02    -0.36   0.05  -0.19    -0.28   0.07  -0.08
                     13                     14                     15
                      A                      A                      A
 Frequencies --    594.1038               612.7826               723.6788
 Red. masses --      3.0308                 6.5913                 1.0826
 Frc consts  --      0.6303                 1.4583                 0.3340
 IR Inten    --      2.9505                 8.4657                79.4690
  Atom  AN      X      Y      Z        X      Y      Z        X      Y      Z
     1   8     0.04   0.25   0.04     0.00   0.08   0.03    -0.01  -0.03  -0.01
     2   1     0.05   0.29   0.07    -0.02   0.12  -0.02     0.17   0.62   0.09
     3   6    -0.01  -0.01  -0.01    -0.24   0.03  -0.07    -0.01   0.00  -0.00
     4   1     0.00  -0.12  -0.06    -0.26   0.41   0.04    -0.01   0.01  -0.00
     5   6    -0.01   0.10   0.05    -0.20  -0.33  -0.17    -0.01  -0.01  -0.01
     6   6     0.01  -0.02  -0.02    -0.01   0.13   0.03     0.00   0.01   0.02
     7   8    -0.06   0.01  -0.01     0.32  -0.08   0.07     0.01   0.01   0.01
     8   8     0.04  -0.03  -0.03     0.05   0.21   0.07    -0.01  -0.01  -0.00
     9   6     0.03  -0.11   0.06     0.02  -0.01   0.04     0.00  -0.02  -0.03
    10   6    -0.02  -0.21  -0.09    -0.02  -0.09  -0.04     0.04  -0.02  -0.01
    11   1    -0.05  -0.09   0.25    -0.19  -0.05  -0.14    -0.02   0.01   0.24
    12   1     0.05   0.08  -0.03     0.16  -0.17   0.09     0.02   0.20  -0.14
    13   1     0.00  -0.17  -0.09    -0.00  -0.03  -0.04     0.06   0.05  -0.02
    14   1    -0.06  -0.74   0.02    -0.06  -0.39   0.03     0.10   0.31  -0.09
    15   1    -0.19  -0.15  -0.05    -0.12  -0.05  -0.05    -0.41  -0.12   0.39
                     16                     17                     18
                      A                      A                      A
 Frequencies --    748.0578               780.4012               788.0837
 Red. masses --      1.3139                 1.5301                 4.6956
 Frc consts  --      0.4332                 0.5490                 1.7182
 IR Inten    --     39.9518                14.6394                49.1805
  Atom  AN      X      Y      Z        X      Y      Z        X      Y      Z
     1   8     0.00  -0.00  -0.00    -0.00  -0.00  -0.00     0.00   0.00   0.00
     2   1    -0.00   0.00  -0.00     0.00   0.01   0.00     0.00  -0.03   0.02
     3   6     0.00  -0.14  -0.04     0.05   0.05  -0.14     0.03   0.02  -0.07
     4   1    -0.02   0.94   0.29    -0.29  -0.28   0.89    -0.24  -0.22   0.73
     5   6    -0.00   0.07   0.02    -0.03  -0.03   0.09     0.05   0.05  -0.13
     6   6     0.00  -0.00  -0.00     0.03   0.03  -0.09    -0.15  -0.17   0.45
     7   8    -0.01   0.00  -0.00    -0.01  -0.01   0.03     0.05   0.05  -0.13
     8   8    -0.00  -0.00  -0.00    -0.01  -0.01   0.02     0.04   0.05  -0.11
     9   6     0.01  -0.00   0.00    -0.00   0.00  -0.00     0.00  -0.00   0.01
    10   6     0.00   0.00  -0.00     0.00  -0.00  -0.00    -0.00  -0.00   0.01
    11   1     0.00  -0.00   0.01     0.00   0.00   0.00    -0.01  -0.01  -0.00
    12   1     0.00   0.00   0.00     0.01   0.00  -0.00    -0.06  -0.01   0.02
    13   1     0.01   0.01  -0.01    -0.00  -0.00   0.01     0.02   0.01  -0.06
    14   1    -0.00   0.00   0.00     0.02   0.01  -0.01    -0.10  -0.05   0.05
    15   1    -0.00   0.00  -0.00     0.00  -0.01   0.02    -0.04   0.02  -0.09
                     19                     20                     21
                      A                      A                      A
 Frequencies --    854.7695               896.8176               948.2526
 Red. masses --      1.9892                 1.9029                 2.4770
 Frc consts  --      0.8563                 0.9017                 1.3122
 IR Inten    --      9.1093                 9.1908                 7.2147
  Atom  AN      X      Y      Z        X      Y      Z        X      Y      Z
     1   8     0.01   0.02  -0.00     0.00  -0.02   0.02     0.01   0.03  -0.01
     2   1    -0.09  -0.42  -0.04     0.00   0.18  -0.04    -0.04  -0.25  -0.00
     3   6    -0.06   0.01  -0.02     0.04  -0.00   0.01     0.09  -0.01   0.03
     4   1    -0.07   0.02  -0.01     0.04   0.01   0.01     0.10  -0.02   0.03
     5   6    -0.04  -0.04  -0.03     0.03  -0.04  -0.00     0.05   0.00   0.02
     6   6     0.06   0.06   0.04    -0.03   0.04  -0.01    -0.12  -0.03  -0.05
     7   8     0.04   0.11   0.05     0.01   0.02   0.01    -0.03  -0.13  -0.06
     8   8    -0.06  -0.10  -0.06    -0.15  -0.04  -0.03    -0.03   0.18   0.06
     9   6     0.03  -0.15   0.03     0.03   0.04   0.08    -0.04  -0.10   0.07
    10   6     0.02   0.04  -0.02     0.17   0.01  -0.01     0.06  -0.01  -0.06
    11   1     0.07  -0.08   0.56    -0.00   0.01  -0.19    -0.46  -0.10   0.33
    12   1    -0.09   0.32  -0.18    -0.22  -0.18   0.21     0.11   0.10  -0.05
    13   1     0.13   0.35  -0.09     0.28   0.04  -0.52     0.23   0.50  -0.17
    14   1     0.06   0.20  -0.06    -0.35  -0.16   0.16     0.11   0.30  -0.14
    15   1     0.22  -0.00  -0.15    -0.30   0.11  -0.31     0.07  -0.09  -0.01
                     22                     23                     24
                      A                      A                      A
 Frequencies --   1006.6427              1091.7203              1137.4914
 Red. masses --      1.1566                 3.8023                 1.8612
 Frc consts  --      0.6905                 2.6701                 1.4188
 IR Inten    --     64.7226                17.4227                 4.0004
  Atom  AN      X      Y      Z        X      Y      Z        X      Y      Z
     1   8    -0.02  -0.01  -0.02     0.00   0.00  -0.00    -0.00  -0.01   0.00
     2   1     0.06  -0.00   0.09     0.01  -0.00   0.02     0.01   0.10  -0.00
     3   6     0.01   0.00   0.00     0.07  -0.00   0.02     0.00   0.00   0.00
     4   1     0.01   0.01   0.01     0.08   0.01   0.03     0.00   0.00   0.00
     5   6     0.01  -0.01  -0.00     0.04  -0.03   0.00     0.00  -0.01   0.00
     6   6    -0.01   0.01   0.01    -0.14   0.07  -0.03    -0.00   0.00   0.00
     7   8     0.00   0.01   0.00     0.00  -0.04  -0.01     0.00   0.01   0.00
     8   8    -0.04  -0.02  -0.03    -0.19   0.06  -0.06    -0.04  -0.01  -0.06
     9   6     0.04   0.03   0.05     0.34  -0.05  -0.06     0.03  -0.02   0.21
    10   6    -0.01  -0.00  -0.05    -0.13  -0.01   0.14    -0.01   0.05  -0.15
    11   1     0.04   0.01  -0.14     0.29  -0.03   0.10     0.03  -0.05  -0.10
    12   1    -0.03  -0.11   0.12     0.59   0.19  -0.22     0.11  -0.19   0.29
    13   1     0.09   0.31  -0.02    -0.23  -0.25   0.27    -0.22  -0.36   0.32
    14   1    -0.00  -0.27   0.01    -0.09  -0.06   0.14     0.53   0.24  -0.35
    15   1     0.44  -0.15   0.73    -0.02   0.03  -0.05    -0.08   0.09  -0.13
                     25                     26                     27
                      A                      A                      A
 Frequencies --   1193.2601              1280.9273              1340.5786
 Red. masses --      1.7044                 2.3073                 1.6463
 Frc consts  --      1.4298                 2.2305                 1.7432
 IR Inten    --      4.8087               395.2550               258.6361
  Atom  AN      X      Y      Z        X      Y      Z        X      Y      Z
     1   8    -0.02  -0.06  -0.00     0.00   0.01   0.00    -0.01  -0.01   0.00
     2   1     0.06   0.24   0.04    -0.02  -0.06  -0.02     0.01   0.06   0.00
     3   6     0.01  -0.00   0.00     0.06  -0.00   0.02     0.02  -0.00   0.01
     4   1     0.01  -0.00   0.00     0.07   0.01   0.03     0.03   0.01   0.01
     5   6     0.00   0.00   0.00     0.02  -0.01   0.00     0.00  -0.00  -0.00
     6   6    -0.02   0.00  -0.01    -0.23   0.18  -0.02    -0.11   0.09  -0.00
     7   8    -0.00  -0.02  -0.01     0.03  -0.03  -0.00     0.02   0.01   0.01
     8   8     0.01   0.05   0.03     0.10  -0.05   0.01     0.07  -0.12  -0.03
     9   6    -0.03  -0.12  -0.01    -0.07  -0.04   0.00    -0.06   0.02   0.01
    10   6     0.05   0.18  -0.03    -0.00  -0.04  -0.01     0.02   0.06   0.01
    11   1     0.10  -0.08   0.29     0.87   0.02  -0.04    -0.57  -0.01   0.09
    12   1    -0.24   0.18  -0.12    -0.27  -0.04   0.04     0.75  -0.07  -0.06
    13   1    -0.12  -0.44  -0.08     0.03   0.07  -0.01     0.01  -0.07  -0.08
    14   1     0.00  -0.55   0.11     0.07   0.11  -0.06    -0.04  -0.15   0.07
    15   1     0.22   0.29   0.11    -0.06  -0.08  -0.01     0.07   0.06  -0.01
                     28                     29                     30
                      A                      A                      A
 Frequencies --   1410.9644              1445.2158              1482.8021
 Red. masses --      1.3474                 1.1830                 1.1033
 Frc consts  --      1.5805                 1.4559                 1.4293
 IR Inten    --     35.9548                 5.5506                26.5716
  Atom  AN      X      Y      Z        X      Y      Z        X      Y      Z
     1   8    -0.00  -0.00  -0.00     0.00  -0.00  -0.00     0.00   0.00  -0.00
     2   1     0.01   0.02   0.01    -0.00  -0.02  -0.00    -0.01  -0.02  -0.01
     3   6    -0.02   0.00  -0.01     0.00  -0.00   0.00    -0.01   0.00  -0.00
     4   1    -0.02  -0.00  -0.01     0.00   0.00   0.00    -0.01  -0.00  -0.00
     5   6    -0.00   0.00   0.00     0.00  -0.00  -0.00    -0.00   0.00   0.00
     6   6     0.07  -0.04   0.01    -0.02   0.01  -0.00     0.04  -0.01   0.01
     7   8    -0.01  -0.01  -0.01     0.00   0.00   0.00    -0.01  -0.01  -0.01
     8   8    -0.04   0.04  -0.02     0.01  -0.01   0.01    -0.02   0.02  -0.01
     9   6    -0.11  -0.02   0.06     0.04   0.03  -0.02    -0.03   0.03  -0.06
    10   6     0.01  -0.00   0.04    -0.08  -0.01   0.07     0.01   0.00  -0.00
    11   1     0.53   0.00  -0.27    -0.15   0.02   0.03     0.26   0.12   0.64
    12   1     0.62   0.22  -0.19    -0.19  -0.06   0.06     0.22  -0.63   0.24
    13   1     0.10   0.03  -0.32     0.06  -0.07  -0.65     0.01   0.00  -0.03
    14   1     0.16  -0.07   0.00     0.67  -0.10  -0.14     0.00  -0.02   0.00
    15   1     0.03   0.00   0.00    -0.02   0.03   0.00    -0.03   0.00   0.02
                     31                     32                     33
                      A                      A                      A
 Frequencies --   1577.1986              1829.3945              2272.1517
 Red. masses --      1.0553                11.6407                 5.7376
 Frc consts  --      1.5466                22.9533                17.4523
 IR Inten    --    134.4689               307.8115                89.0479
  Atom  AN      X      Y      Z        X      Y      Z        X      Y      Z
     1   8    -0.04  -0.01   0.02     0.01   0.00  -0.00    -0.00  -0.00  -0.00
     2   1     0.11   0.55   0.07    -0.02  -0.14  -0.05    -0.00   0.01   0.00
     3   6     0.00   0.00   0.00    -0.07   0.01  -0.02    -0.36   0.03  -0.11
     4   1     0.00   0.00   0.00    -0.10   0.03  -0.02    -0.72   0.05  -0.22
     5   6     0.00   0.00   0.00     0.04  -0.02   0.01     0.51  -0.04   0.16
     6   6     0.01   0.01   0.01     0.38   0.58   0.34    -0.09  -0.00  -0.03
     7   8    -0.00  -0.01  -0.01    -0.25  -0.38  -0.22     0.00   0.00   0.00
     8   8    -0.00   0.00   0.00    -0.01  -0.06  -0.02    -0.00   0.00   0.00
     9   6     0.00   0.00  -0.00     0.04   0.01   0.01     0.00  -0.00  -0.00
    10   6    -0.02  -0.03   0.01    -0.01   0.01  -0.00    -0.00  -0.00  -0.00
    11   1     0.01   0.01   0.02    -0.18  -0.03  -0.11     0.00  -0.00   0.00
    12   1    -0.03  -0.03   0.02    -0.11   0.13  -0.00    -0.00  -0.00   0.00
    13   1     0.04   0.13   0.00    -0.03  -0.05   0.03     0.00   0.00   0.00
    14   1     0.01   0.10  -0.02     0.02  -0.01  -0.01     0.00   0.00  -0.00
    15   1     0.62  -0.21  -0.47    -0.11   0.02   0.07     0.00  -0.00  -0.00
                     34                     35                     36
                      A                      A                      A
 Frequencies --   3079.3766              3117.9560              3133.1874
 Red. masses --      1.0587                 1.0572                 1.1023
 Frc consts  --      5.9150                 6.0555                 6.3754
 IR Inten    --     10.7013                 1.8727                 1.9251
  Atom  AN      X      Y      Z        X      Y      Z        X      Y      Z
     1   8     0.00  -0.00  -0.00    -0.00   0.00   0.00     0.00   0.00  -0.00
     2   1    -0.00  -0.00   0.00    -0.00   0.00   0.00    -0.00   0.00   0.00
     3   6    -0.00   0.00  -0.00    -0.00  -0.00  -0.00    -0.00  -0.00   0.00
     4   1     0.00   0.00  -0.00     0.00   0.00   0.00     0.00  -0.00   0.00
     5   6     0.00  -0.00   0.00     0.00  -0.00   0.00     0.00   0.00  -0.00
     6   6    -0.00   0.00   0.00     0.00   0.00   0.00    -0.00  -0.00  -0.00
     7   8    -0.00  -0.00  -0.00    -0.00  -0.00  -0.00     0.00   0.00   0.00
     8   8     0.00  -0.00   0.00     0.00  -0.00  -0.00    -0.00   0.00   0.00
     9   6     0.01  -0.05   0.05     0.00   0.02   0.02    -0.01  -0.07  -0.05
    10   6    -0.00   0.00  -0.00     0.04  -0.02  -0.05     0.01  -0.01  -0.01
    11   1    -0.06   0.82  -0.08     0.01  -0.12   0.01    -0.04   0.53  -0.07
    12   1    -0.08  -0.26  -0.49    -0.03  -0.10  -0.20     0.11   0.34   0.70
    13   1     0.04  -0.01   0.01    -0.63   0.18  -0.14    -0.21   0.06  -0.05
    14   1     0.00   0.00   0.00     0.20   0.12   0.66     0.04   0.02   0.15
    15   1    -0.00   0.01   0.00     0.00  -0.01  -0.01     0.00  -0.00  -0.00
                     37                     38                     39
                      A                      A                      A
 Frequencies --   3205.8469              3490.0431              3818.7039
 Red. masses --      1.1114                 1.1716                 1.0653
 Frc consts  --      6.7296                 8.4081                 9.1525
 IR Inten    --      1.6787                63.4266               130.3086
  Atom  AN      X      Y      Z        X      Y      Z        X      Y      Z
     1   8     0.00   0.00   0.00    -0.00   0.00   0.00    -0.05   0.01   0.03
     2   1    -0.00  -0.00  -0.00     0.00  -0.00  -0.00     0.82  -0.15  -0.54
     3   6     0.00   0.00   0.00    -0.11   0.01  -0.03     0.00   0.00   0.00
     4   1    -0.00   0.00  -0.00     0.95  -0.07   0.29    -0.00  -0.00  -0.00
     5   6    -0.00   0.00  -0.00     0.03  -0.00   0.01     0.00   0.00   0.00
     6   6     0.00  -0.00  -0.00    -0.00   0.00  -0.00    -0.00  -0.00  -0.00
     7   8     0.00   0.00   0.00     0.00  -0.00  -0.00    -0.00   0.00   0.00
     8   8     0.00   0.00   0.00     0.00   0.00   0.00    -0.00   0.00   0.00
     9   6    -0.00  -0.00  -0.01    -0.00   0.00  -0.00     0.00  -0.00  -0.00
    10   6    -0.07   0.01  -0.07     0.00  -0.00   0.00     0.00   0.00  -0.00
    11   1    -0.00   0.00  -0.00     0.00  -0.00   0.00    -0.00   0.00   0.00
    12   1     0.01   0.03   0.06     0.00   0.00  -0.00    -0.00   0.00   0.00
    13   1     0.67  -0.20   0.13     0.00  -0.00  -0.00    -0.00  -0.00  -0.00
    14   1     0.19   0.13   0.66    -0.00   0.00  -0.00     0.00  -0.00   0.00
    15   1    -0.01   0.00  -0.01    -0.00   0.00   0.00    -0.01  -0.02   0.00

 -------------------
 - Thermochemistry -
 -------------------
 Temperature   298.150 Kelvin.  Pressure   1.00000 Atm.
 Atom     1 has atomic number  8 and mass  15.99491
 Atom     2 has atomic number  1 and mass   1.00783
 Atom     3 has atomic number  6 and mass  12.00000
 Atom     4 has atomic number  1 and mass   1.00783
 Atom     5 has atomic number  6 and mass  12.00000
 Atom     6 has atomic number  6 and mass  12.00000
 Atom     7 has atomic number  8 and mass  15.99491
 Atom     8 has atomic number  8 and mass  15.99491
 Atom     9 has atomic number  6 and mass  12.00000
 Atom    10 has atomic number  6 and mass  12.00000
 Atom    11 has atomic number  1 and mass   1.00783
 Atom    12 has atomic number  1 and mass   1.00783
 Atom    13 has atomic number  1 and mass   1.00783
 Atom    14 has atomic number  1 and mass   1.00783
 Atom    15 has atomic number  1 and mass   1.00783
 Molecular mass:   115.03952 amu.
 Principal axes and moments of inertia in atomic units:
                           1         2         3
     Eigenvalues --   538.777381519.763441850.97994
           X            0.99973  -0.02318   0.00315
           Y            0.02320   0.99971  -0.00661
           Z           -0.00299   0.00668   0.99997
 This molecule is an asymmetric top.
 Rotational symmetry number  1.
 Warning -- assumption of classical behavior for rotation
           may cause significant error
 Rotational temperatures (Kelvin)      0.16076     0.05699     0.04679
 Rotational constants (GHZ):           3.34970     1.18751     0.97502
    1 imaginary frequencies ignored.
 Zero-point vibrational energy     280768.7 (Joules/Mol)
                                   67.10532 (Kcal/Mol)
 Warning -- explicit consideration of  13 degrees of freedom as
           vibrations may cause significant error
 Vibrational temperatures:     25.68   128.57   168.90   264.03   278.82
          (Kelvin)            393.00   483.80   565.47   601.26   700.63
                              821.92   854.78   881.66  1041.21  1076.29
                             1122.82  1133.88  1229.82  1290.32  1364.32
                             1448.33  1570.74  1636.60  1716.84  1842.97
                             1928.79  2030.06  2079.34  2133.42  2269.24
                             2632.09  3269.12  4430.54  4486.04  4507.96
                             4612.50  5021.39  5494.26
 
 Zero-point correction=                           0.106939 (Hartree/Particle)
 Thermal correction to Energy=                    0.116131
 Thermal correction to Enthalpy=                  0.117075
 Thermal correction to Gibbs Free Energy=         0.070980
 Sum of electronic and zero-point Energies=           -420.100801
 Sum of electronic and thermal Energies=              -420.091609
 Sum of electronic and thermal Enthalpies=            -420.090665
 Sum of electronic and thermal Free Energies=         -420.136760
 
                     E (Thermal)             CV                S
                      KCal/Mol        Cal/Mol-Kelvin    Cal/Mol-Kelvin
 Total                   72.873             32.359             97.015
 Electronic               0.000              0.000              1.377
 Translational            0.889              2.981             40.136
 Rotational               0.889              2.981             28.807
 Vibrational             71.096             26.397             26.695
 Vibration     1          0.593              1.986              6.860
 Vibration     2          0.602              1.957              3.674
 Vibration     3          0.608              1.935              3.143
 Vibration     4          0.631              1.862              2.292
 Vibration     5          0.635              1.849              2.191
 Vibration     6          0.676              1.723              1.576
 Vibration     7          0.717              1.603              1.230
 Vibration     8          0.760              1.485              0.989
 Vibration     9          0.781              1.431              0.899
 Vibration    10          0.843              1.279              0.692
 Vibration    11          0.927              1.093              0.502
 Vibration    12          0.952              1.044              0.460
 Vibration    13          0.972              1.005              0.428
                       Q            Log10(Q)             Ln(Q)
 Total Bot       0.224614D-32        -32.648563        -75.176094
 Total V=0       0.346723D+17         16.539983         38.084717
 Vib (Bot)       0.525465D-46        -46.279456       -106.562386
 Vib (Bot)    1  0.116081D+02          1.064760          2.451701
 Vib (Bot)    2  0.230115D+01          0.361945          0.833410
 Vib (Bot)    3  0.174186D+01          0.241013          0.554953
 Vib (Bot)    4  0.109316D+01          0.038682          0.089070
 Vib (Bot)    5  0.103135D+01          0.013407          0.030870
 Vib (Bot)    6  0.706384D+00         -0.150959         -0.347596
 Vib (Bot)    7  0.553510D+00         -0.256874         -0.591475
 Vib (Bot)    8  0.455804D+00         -0.341222         -0.785692
 Vib (Bot)    9  0.420852D+00         -0.375871         -0.865475
 Vib (Bot)   10  0.341391D+00         -0.466748         -1.074726
 Vib (Bot)   11  0.269074D+00         -0.570129         -1.312770
 Vib (Bot)   12  0.252859D+00         -0.597122         -1.374925
 Vib (Bot)   13  0.240466D+00         -0.618947         -1.425178
 Vib (V=0)       0.811127D+03          2.909089          6.698425
 Vib (V=0)    1  0.121188D+02          1.083461          2.494761
 Vib (V=0)    2  0.285485D+01          0.455583          1.049018
 Vib (V=0)    3  0.231220D+01          0.364026          0.838200
 Vib (V=0)    4  0.170208D+01          0.230980          0.531850
 Vib (V=0)    5  0.164616D+01          0.216472          0.498446
 Vib (V=0)    6  0.136544D+01          0.135271          0.311474
 Vib (V=0)    7  0.124590D+01          0.095485          0.219862
 Vib (V=0)    8  0.117658D+01          0.070621          0.162610
 Vib (V=0)    9  0.115354D+01          0.062033          0.142836
 Vib (V=0)   10  0.110543D+01          0.043532          0.100236
 Vib (V=0)   11  0.106780D+01          0.028491          0.065604
 Vib (V=0)   12  0.106030D+01          0.025429          0.058553
 Vib (V=0)   13  0.105482D+01          0.023178          0.053369
 Electronic      0.200000D+01          0.301030          0.693147
 Translational   0.484981D+08          7.685724         17.697035
 Rotational      0.440696D+06          5.644139         12.996111
 ***** Axes restored to original set *****
 -------------------------------------------------------------------
 Center     Atomic                   Forces (Hartrees/Bohr)
 Number     Number              X              Y              Z
 -------------------------------------------------------------------
      1        8          -0.003802956   -0.024646098   -0.003596745
      2        1           0.001312637    0.002133869   -0.000340477
      3        6           0.000033576   -0.000034376   -0.000000737
      4        1          -0.000002483    0.000019549    0.000007243
      5        6           0.000029599   -0.000173037   -0.000106721
      6        6          -0.000631641    0.001475609    0.000423859
      7        8          -0.000519898   -0.000938007    0.000193578
      8        8           0.001194670   -0.001378943   -0.000178176
      9        6          -0.000649805    0.004085440   -0.001048349
     10        6          -0.003534898   -0.022807118    0.000760819
     11        1           0.000462152    0.000029313   -0.000000089
     12        1           0.000204171    0.000026649    0.000159588
     13        1           0.001222485    0.004295499    0.000554730
     14        1          -0.000399318    0.004406051   -0.000875035
     15        1           0.005081711    0.033505600    0.004046513
 -------------------------------------------------------------------
 Cartesian Forces:  Max     0.033505600 RMS     0.007311664

 GradGradGradGradGradGradGradGradGradGradGradGradGradGradGradGradGradGrad
 Berny optimization.
 Search for a local minimum.
 Step number   1 out of a maximum of    2
 All quantities printed in internal units (Hartrees-Bohrs-Radians)
 Second derivative matrix not updated -- analytic derivatives used.
 ITU=  0
     Eigenvalues ---   -0.09890   0.00008   0.00121   0.00310   0.00472
     Eigenvalues ---    0.00691   0.01051   0.01443   0.01651   0.02214
     Eigenvalues ---    0.02488   0.03161   0.03561   0.04819   0.05315
     Eigenvalues ---    0.06517   0.07036   0.08634   0.09333   0.09525
     Eigenvalues ---    0.10857   0.13020   0.15444   0.16841   0.19078
     Eigenvalues ---    0.25430   0.29736   0.34833   0.44984   0.52385
     Eigenvalues ---    0.64459   0.72151   0.79675   0.83924   0.89403
     Eigenvalues ---    0.91051   0.98173   1.70437   2.74377
 Eigenvalue     1 is  -9.89D-02 should be greater than     0.000000 Eigenvector:
                          Y15       Y10       Y1        X15       Z15
   1                    0.87931  -0.38390  -0.11687   0.11331   0.09201
                          Y2        Z14       X13       Y13       X1
   1                    0.08145  -0.07828   0.07801   0.06734  -0.06294
 Quadratic step=5.586D-01 exceeds max=3.000D-01 adjusted using Lamda=-5.808D-02.
 Angle between NR and scaled steps=  25.35 degrees.
 Angle between quadratic step and forces=  19.74 degrees.
 Linear search not attempted -- first point.
 B after Tr=    -0.002339   -0.013631   -0.001327
         Rot=    0.999998    0.001530   -0.000232    0.001506 Ang=   0.25 deg.
 Variable       Old X    -DE/DX   Delta X   Delta X   Delta X     New X
                                 (Linear)    (Quad)   (Total)
    X1        4.32529  -0.00380   0.00000  -0.03033  -0.02375   4.30155
    Y1        3.17164  -0.02465   0.00000  -0.10581  -0.13427   3.03737
    Z1       -0.60506  -0.00360   0.00000  -0.00522  -0.01790  -0.62296
    X2        2.80621   0.00131   0.00000   0.00339   0.01149   2.81769
    Y2        3.40672   0.00213   0.00000   0.00469  -0.01624   3.39048
    Z2        0.39001  -0.00034   0.00000   0.00059  -0.01247   0.37753
    X3       -6.37395   0.00003   0.00000   0.00058  -0.00096  -6.37490
    Y3        0.41300  -0.00003   0.00000  -0.00742  -0.00479   0.40821
    Z3       -0.95570  -0.00000   0.00000  -0.00087  -0.00051  -0.95620
    X4       -8.29375  -0.00000   0.00000   0.00034  -0.00103  -8.29479
    Y4        0.55475   0.00002   0.00000  -0.00607   0.00055   0.55530
    Z4       -1.54337   0.00001   0.00000  -0.00041   0.00041  -1.54296
    X5       -4.21573   0.00003   0.00000   0.00084  -0.00086  -4.21658
    Y5        0.25297  -0.00017   0.00000  -0.00083  -0.00267   0.25030
    Z5       -0.29312  -0.00011   0.00000  -0.00075  -0.00091  -0.29403
    X6       -1.60018  -0.00063   0.00000  -0.00140  -0.00294  -1.60312
    Y6        0.16163   0.00148   0.00000   0.01709   0.00993   0.17156
    Z6        0.53566   0.00042   0.00000   0.00290   0.00176   0.53742
    X7       -0.53589  -0.00052   0.00000  -0.01598  -0.01182  -0.54771
    Y7        1.90408  -0.00094   0.00000   0.01370   0.00645   1.91054
    Z7        1.53177   0.00019   0.00000   0.01695   0.01000   1.54177
    X8       -0.57077   0.00119   0.00000   0.01809   0.00957  -0.56120
    Y8       -2.08476  -0.00138   0.00000   0.02230   0.01051  -2.07425
    Z8        0.06498  -0.00018   0.00000  -0.01277  -0.00753   0.05745
    X9        2.01020  -0.00065   0.00000   0.00477  -0.00448   2.00572
    Y9       -2.44901   0.00409   0.00000   0.02543   0.00834  -2.44067
    Z9        0.84831  -0.00105   0.00000  -0.00251   0.00265   0.85097
   X10        3.85703  -0.00353   0.00000  -0.00439  -0.01220   3.84484
   Y10       -1.52686  -0.02281   0.00000  -0.11066  -0.13926  -1.66612
   Z10       -1.10210   0.00076   0.00000  -0.00361  -0.00169  -1.10379
   X11        2.17239   0.00046   0.00000   0.01876   0.00344   2.17583
   Y11       -4.49556   0.00003   0.00000   0.02289   0.00595  -4.48961
   Z11        1.07291  -0.00000   0.00000  -0.01185  -0.00050   1.07241
   X12        2.30271   0.00020   0.00000   0.00693   0.00122   2.30393
   Y12       -1.54662   0.00003   0.00000   0.01506   0.00270  -1.54393
   Z12        2.68040   0.00016   0.00000   0.00347   0.00575   2.68616
   X13        5.78473   0.00122   0.00000   0.02697   0.01805   5.80277
   Y13       -2.12688   0.00430   0.00000   0.05734   0.02408  -2.10280
   Z13       -0.70691   0.00055   0.00000   0.00762   0.00995  -0.69696
   X14        3.28581  -0.00040   0.00000  -0.00137  -0.01074   3.27507
   Y14       -1.91818   0.00441   0.00000   0.06429   0.03143  -1.88675
   Z14       -3.03941  -0.00088   0.00000  -0.01840  -0.01555  -3.05496
   X15        4.12850   0.00508   0.00000   0.02386   0.02501   4.15351
   Y15        1.08765   0.03351   0.00000   0.22635   0.19729   1.28494
   Z15       -0.98552   0.00405   0.00000   0.03379   0.02653  -0.95899
         Item               Value     Threshold  Converged?
 Maximum Force            0.033506     0.000450     NO 
 RMS     Force            0.007312     0.000300     NO 
 Maximum Displacement     0.197287     0.001800     NO 
 RMS     Displacement     0.042812     0.001200     NO 
 Predicted change in Energy=-1.700598D-02
 GradGradGradGradGradGradGradGradGradGradGradGradGradGradGradGradGradGrad


 ----------------------------------------------------------------------

 Electric dipole moment (input orientation):
 (Debye = 10**-18 statcoulomb cm , SI units = C m)
                  (au)            (Debye)         (10**-30 SI)
   Tot        0.174957D+01      0.444696D+01      0.148335D+02
   x         -0.845000D+00     -0.214777D+01     -0.716421D+01
   y         -0.153177D+01     -0.389338D+01     -0.129869D+02
   z         -0.253651D-01     -0.644716D-01     -0.215054D+00

 Dipole polarizability, Alpha (input orientation).
 (esu units = cm**3 , SI units = C**2 m**2 J**-1)
 Alpha(0;0):
               (au)            (10**-24 esu)      (10**-40 SI)
   iso        0.735024D+02      0.108919D+02      0.121189D+02
   aniso      0.380460D+02      0.563783D+01      0.627294D+01
   xx         0.933749D+02      0.138367D+02      0.153954D+02
   yx        -0.101729D+01     -0.150747D+00     -0.167729D+00
   yy         0.747220D+02      0.110727D+02      0.123200D+02
   zx         0.746165D+01      0.110570D+01      0.123026D+01
   zy         0.226876D+01      0.336196D+00      0.374068D+00
   zz         0.524103D+02      0.776641D+01      0.864129D+01

 ----------------------------------------------------------------------

 Dipole orientation:
     8          1.64841505         -1.68086407         -4.85705546
     1          0.86861791         -0.10563768         -4.34361577
     6         -5.50403662          1.98992729          2.73072955
     1         -7.31408254          2.33064646          3.54236520
     6         -3.46798754          1.60843384          1.81886209
     6         -1.03206155          1.19148219          0.62356936
     8         -0.48622759          1.99410710         -1.43043827
     8          0.49023094         -0.16143743          2.09996144
     6          2.99490782         -0.66397917          1.16096340
     6          3.06693247         -2.95912234         -0.51008481
     1          4.10530191         -0.99167624          2.87115601
     1          3.71584953          1.01504271          0.20307686
     1          4.98666311         -3.57356990         -0.92152191
     1          1.86314290         -4.49711574          0.13649225
     1          2.20863460         -2.39258639         -2.93193531

 Electric dipole moment (dipole orientation):
 (Debye = 10**-18 statcoulomb cm , SI units = C m)
                  (au)            (Debye)         (10**-30 SI)
   Tot        0.174957D+01      0.444696D+01      0.148335D+02
   x          0.000000D+00      0.000000D+00      0.000000D+00
   y          0.000000D+00      0.000000D+00      0.000000D+00
   z          0.174957D+01      0.444696D+01      0.148335D+02

 Dipole polarizability, Alpha (dipole orientation).
 (esu units = cm**3 , SI units = C**2 m**2 J**-1)
 Alpha(0;0):
               (au)            (10**-24 esu)      (10**-40 SI)
   iso        0.735024D+02      0.108919D+02      0.121189D+02
   aniso      0.380460D+02      0.563783D+01      0.627294D+01
   xx         0.856128D+02      0.126865D+02      0.141157D+02
   yx        -0.130720D+02     -0.193708D+01     -0.215529D+01
   yy         0.565242D+02      0.837603D+01      0.931959D+01
   zx        -0.901965D+01     -0.133657D+01     -0.148714D+01
   zy        -0.979416D+00     -0.145134D+00     -0.161484D+00
   zz         0.783701D+02      0.116133D+02      0.129215D+02

 ----------------------------------------------------------------------
 1\1\GINC-AJ\Freq\UM062X\6-311++G(d,p)\C5H7O3(2)\AAYUSH\23-Jun-2025\0\\
 # freq 6-311++g(d,p) m062x\\Title Card Required\\0,2\O,2.288846,1.6783
 61,-0.320183\H,1.48498,1.80276,0.206383\C,-3.372947,0.21855,-0.505733\
 H,-4.388865,0.293561,-0.816715\C,-2.230866,0.133867,-0.155111\C,-0.846
 777,0.085532,0.283458\O,-0.28358,1.007598,0.810578\O,-0.302037,-1.1032
 08,0.034388\C,1.063752,-1.295959,0.448908\C,2.041055,-0.807982,-0.5832
 08\H,1.14958,-2.378947,0.567759\H,1.218542,-0.818438,1.418409\H,3.0611
 46,-1.125496,-0.374082\H,1.738775,-1.015057,-1.608388\H,2.18471,0.5755
 62,-0.521514\\Version=ES64L-G16RevA.03\State=2-A\HF=-420.2077401\S2=0.
 759231\S2-1=0.\S2A=0.750044\RMSD=6.041e-09\RMSF=7.312e-03\ZeroPoint=0.
 1069391\Thermal=0.1161308\Dipole=-0.8449996,-1.5317724,-0.0253651\Dipo
 leDeriv=-0.533579,0.0939888,-0.0570837,0.0413336,-0.2961549,0.026875,-
 0.0214126,0.0179495,-0.5213662,0.3684669,-0.0535119,0.0291522,0.048684
 4,0.3194115,0.0172487,-0.0005038,0.0557162,0.2783417,-0.2200836,0.0009
 373,-0.0136993,0.0101326,-0.1462284,-0.0026124,-0.0200803,-0.0061472,-
 0.1355737,0.2783024,-0.0061486,0.0189165,-0.0059522,0.2235923,0.004841
 7,0.021855,0.0045005,0.2134996,-0.691306,0.0440372,-0.154185,0.0688761
 ,-0.1195893,0.0035301,-0.1875055,0.0067888,-0.1431041,2.0906039,-0.180
 779,0.3897508,-0.5968893,1.657784,0.3780687,0.3099763,0.4095191,0.6668
 278,-0.9810271,-0.2342143,-0.2177992,-0.0993801,-0.8879208,-0.2449438,
 -0.1492661,-0.2871395,-0.534052,-1.3703482,0.448269,-0.0183499,0.71717
 38,-1.0012628,-0.1162708,-0.0537218,-0.0868151,-0.360167,0.9378743,-0.
 1250539,-0.0033178,-0.2388276,0.1079866,0.0242852,0.1095052,-0.069119,
 0.2443538,-0.0250274,0.1345605,0.0056408,0.1636774,0.6434257,0.0427341
 ,0.0166819,0.0153393,0.0052994,-0.0259117,-0.0654641,0.0263835,0.04309
 09,-0.0416133,0.033209,0.0144016,0.047911,0.0842672,-0.0181104,0.02159
 9,0.0305156,-0.0117477,0.0737414,-0.0753746,-0.0260624,-0.009324,-0.01
 37501,-0.0416545,-0.0014333,-0.0076918,0.0462225,-0.0049779,0.0076162,
 -0.0071902,-0.0042256,0.063033,0.0574971,-0.0103501,-0.0397467,-0.0502
 567,-0.0207886,-0.0495547,0.0067689,0.0253439,-0.0145103,0.1743034,-0.
 0664365,0.011514,-0.1361377,-0.5074055,-0.0496525,-0.0134462,-0.120298
 ,0.1669011\Polar=93.3749464,-1.0172913,74.7219546,7.4616522,2.2687612,
 52.4103156\Quadrupole=4.5716843,-3.9944259,-0.5772584,-7.8440822,2.952
 7448,-0.3495344\PG=C01 [X(C5H7O3)]\NImag=1\\0.39656768,-0.03397372,0.1
 5297988,-0.24019783,0.05135681,0.18109788,-0.35627505,0.06490198,0.232
 23485,0.36027252,0.03017788,-0.03898324,-0.02623033,-0.05668650,0.0526
 2052,0.22362357,-0.04794037,-0.15604191,-0.23167977,0.04647706,0.16061
 066,-0.00023671,-0.00014670,0.00018861,0.00029295,0.00038880,-0.000126
 94,1.43621645,-0.00003293,0.00007448,-0.00009597,0.00006268,-0.0000949
 0,0.00011516,-0.10061454,0.06503193,-0.00006838,-0.00006599,0.00015087
 ,0.00006380,0.00006339,-0.00018251,0.42173365,-0.03245723,0.19071183,0
 .00011909,0.00002051,-0.00000879,-0.00012898,-0.00006501,-0.00000586,-
 0.38832020,0.02623517,-0.10965488,0.37860701,0.00004235,-0.00002410,-0
 .00000180,-0.00005503,0.00001812,0.00001410,0.02630291,-0.02956990,0.0
 0894230,-0.02652171,0.01891697,0.00005666,0.00002950,-0.00006339,-0.00
 006436,-0.00004889,0.00005576,-0.10956935,0.00894124,-0.06364654,0.110
 40110,-0.00847917,0.05190774,-0.00055174,-0.00020263,0.00050363,0.0008
 9295,0.00052877,-0.00050787,-1.04721077,0.07485112,-0.31052541,0.00981
 256,0.00016852,0.00055771,1.36878973,-0.00036550,-0.00010749,0.0004141
 1,0.00044327,0.00023775,-0.00066019,0.07314587,-0.04008110,0.02281820,
 -0.00005735,0.00519192,-0.00107888,-0.09399445,0.11262223,-0.00067905,
 -0.00023002,0.00034770,0.00085006,0.00086971,-0.00013723,-0.31105845,0
 .02335483,-0.13006301,0.00054499,-0.00097662,0.00781373,0.40055764,-0.
 01346453,0.19077067,0.00164864,0.00064976,-0.00055325,-0.00302406,-0.0
 0305944,-0.00042158,0.00551335,-0.00146331,0.00033966,-0.00107198,0.00
 011395,-0.00223749,-0.25676962,0.01095263,-0.05584589,0.70559174,0.008
 96563,0.00002440,-0.00277083,-0.01198899,-0.00362452,0.00300196,-0.001
 68581,0.00332957,-0.00040694,0.00092309,0.00548491,0.00018167,0.020904
 98,-0.06204531,0.01167454,0.11235241,0.77807560,0.00366625,0.00048336,
 -0.00217818,-0.00516045,-0.00177335,0.00209722,0.00003799,-0.00041287,
 0.00251034,-0.00195288,-0.00002015,0.00517739,-0.05224004,0.00775731,-
 0.08845422,0.20636088,0.24387257,0.36914745,-0.00783302,-0.00358431,0.
 00349402,-0.00139278,0.00255622,0.00152594,-0.00265650,0.00108612,-0.0
 0060218,0.00054350,0.00129159,0.00099954,-0.03676496,-0.03729871,-0.03
 320515,-0.26258465,-0.23575144,-0.14635975,0.27432545,-0.00760587,-0.0
 0035607,0.00261413,0.00570529,0.00139768,-0.00142622,0.00238500,0.0008
 0580,0.00095060,-0.00009045,-0.00010297,0.00032546,-0.03106274,-0.0016
 9604,-0.01910374,-0.23075864,-0.46411239,-0.21682206,0.27177610,0.5630
 0546,0.00152116,0.00093949,0.00182605,0.00334750,-0.00000359,-0.003963
 93,0.00003760,0.00049558,0.00057748,0.00046211,0.00072722,-0.00060275,
 -0.03057171,-0.02029945,0.00396136,-0.14578360,-0.22239658,-0.21017607
 ,0.17305199,0.28181687,0.19869626,0.00290218,-0.00127231,-0.00026591,-
 0.00411527,-0.00005783,0.00099478,-0.00443353,-0.00009972,-0.00157848,
 0.00072495,-0.00131321,-0.00010554,-0.04060237,0.04548519,-0.00098360,
 -0.15367655,0.08471872,0.00260200,0.03644822,0.00153669,-0.00001770,0.
 42635636,-0.00387974,0.00027911,0.00122372,0.00624226,0.00091938,-0.00
 204474,-0.00009576,0.00025389,-0.00012734,-0.00052247,-0.00005441,-0.0
 0006865,0.02681593,-0.01084527,0.00101580,0.06530859,-0.24942096,-0.04
 801537,-0.00170170,-0.09855765,-0.04545306,-0.13299955,0.43719734,-0.0
 0075161,0.00004061,0.00081450,0.00112133,0.00001305,-0.00070086,-0.001
 62294,-0.00009626,-0.00014324,0.00017652,-0.00032661,-0.00043379,-0.00
 731848,0.00720965,0.01124245,-0.00599820,-0.03898703,-0.08235072,-0.00
 020004,-0.04599873,0.01409408,0.07045380,0.08762612,0.14053218,-0.0020
 1027,0.00290298,0.00011480,0.00395779,-0.00022655,-0.00090534,0.001494
 29,0.00001951,0.00045834,-0.00038369,0.00008248,-0.00003026,0.00426900
 ,-0.00080205,-0.00008090,-0.03149262,0.04375937,0.00332581,-0.00542325
 ,-0.01931239,-0.00702358,-0.17321436,0.01171294,-0.03952398,0.43291481
 ,0.00141187,0.00333503,0.00055975,-0.00244214,-0.00037330,0.00133299,0
 .00019398,0.00026289,0.00027826,0.00011314,0.00009516,0.00018215,0.001
 93100,-0.00276362,-0.00285316,0.04381219,-0.01624972,0.01147837,0.0025
 9577,0.00363465,0.00342896,-0.00810597,-0.08137082,-0.01135396,-0.0027
 9831,0.58790453,-0.00096183,-0.00309055,-0.00099083,0.00054538,0.00016
 488,0.00080210,0.00066617,0.00014891,0.00008376,-0.00000156,0.00015001
 ,-0.00024139,-0.00006886,-0.00336902,0.00519292,0.00437508,0.01545087,
 0.00649049,-0.00242610,-0.00360858,-0.00686331,-0.04780802,-0.00482362
 ,-0.08772066,0.00158838,0.04109569,0.56011167,-0.00039204,-0.01633732,
 -0.00143755,0.00102706,0.00204910,-0.00175555,-0.00017623,-0.00004448,
 -0.00003607,0.00002929,-0.00003952,0.00007124,-0.00029161,0.00106930,-
 0.00123275,-0.00030845,-0.00690364,-0.00083962,0.00086416,0.00140403,0
 .00214946,-0.04537416,-0.00613032,0.02174707,-0.12653345,-0.03319822,0
 .05131507,0.54471359,-0.01871949,-0.12338360,-0.01780343,0.00893993,0.
 00214671,-0.00496559,0.00032360,-0.00009486,0.00004684,-0.00007850,0.0
 0009755,-0.00000552,0.00035445,-0.00090275,0.00020527,-0.00025983,0.01
 205619,0.00291902,-0.00376240,-0.00567703,-0.00083754,0.01124202,-0.00
 238029,-0.00744327,-0.03323979,-0.07477677,0.03020376,-0.02778651,0.18
 346540,-0.00047327,-0.00533609,0.00160705,-0.00095125,-0.00093137,-0.0
 0032184,-0.00027899,-0.00003961,0.00000152,0.00003067,-0.00001041,0.00
 004682,0.00012728,0.00056917,-0.00096426,0.00011080,-0.00365593,0.0001
 2044,0.00002972,0.00128164,0.00075735,-0.01035579,-0.00255774,0.012139
 96,0.06473736,0.04385989,-0.15711702,0.04855124,-0.01143857,0.54305066
 ,0.00046370,-0.00009168,-0.00013130,-0.00081075,0.00003436,0.00038069,
 -0.00042904,-0.00006066,-0.00014073,0.00005679,-0.00004704,-0.00004251
 ,-0.00108736,0.00114144,0.00068934,-0.00388897,-0.00388568,-0.00532177
 ,0.00195703,0.00147098,0.00105977,-0.02167178,0.04264698,-0.00564461,-
 0.04067322,0.00357820,-0.00050392,0.00068955,-0.01859736,0.00432625,0.
 06377389,0.00002083,-0.00065727,-0.00027068,0.00013610,0.00017452,-0.0
 0015051,0.00009508,-0.00000348,-0.00000666,-0.00002552,0.00000901,-0.0
 0000732,0.00021514,-0.00020145,0.00014471,-0.00103936,0.00128984,0.000
 78382,0.00066899,-0.00004199,0.00037792,0.00515403,-0.00387372,-0.0002
 0367,0.02217749,-0.31115743,0.02217857,-0.00457201,-0.01085346,0.00420
 699,-0.02226950,0.33458173,-0.00006434,0.00058217,0.00038984,0.0002882
 6,0.00011610,-0.00038457,-0.00005961,-0.00001263,-0.00005250,0.0000020
 4,-0.00000370,-0.00001854,-0.00035860,0.00022527,0.00037033,-0.0017767
 5,-0.00262325,-0.00197230,0.00200921,-0.00027837,0.00105504,-0.0069640
 0,0.01309465,-0.00068863,-0.00255841,0.02518065,-0.04975671,0.00325972
 ,0.02374668,-0.00577379,0.00364723,-0.03014138,0.05152479,0.00004847,0
 .00025395,-0.00063980,-0.00011082,-0.00017606,0.00021914,-0.00007841,0
 .00004024,0.00001676,0.00005059,-0.00000943,-0.00003136,-0.00047062,-0
 .00002531,0.00050924,0.00144927,-0.00740717,-0.00368035,0.00108128,0.0
 0285463,0.00170688,-0.02252178,-0.00897718,-0.03464543,-0.05396726,-0.
 01012836,-0.02188267,0.00700334,0.00924046,0.01923590,0.00183318,0.000
 22319,0.00224886,0.06812973,0.00015389,0.00076659,-0.00074016,0.000297
 43,-0.00056169,0.00045554,-0.00007939,0.00001516,0.00002445,-0.0000038
 2,0.00000659,0.00003206,-0.00008101,0.00001349,-0.00074303,0.00206593,
 0.00243726,0.00213920,0.00030104,-0.00242849,0.00008371,0.00128454,0.0
 0225380,0.00766060,-0.01714582,-0.10298466,-0.11141584,0.00197063,0.00
 578565,0.01319849,-0.00353345,-0.01224135,-0.02766594,0.01639702,0.107
 61450,0.00002991,0.00055138,0.00076907,-0.00017297,0.00057470,-0.00028
 480,0.00003832,0.00000392,0.00007930,0.00000333,-0.00001688,-0.0000042
 5,-0.00004230,0.00027268,-0.00019441,0.00008739,-0.00488171,-0.0006963
 5,0.00260943,0.00054489,0.00112629,-0.00979565,-0.00007652,-0.00673328
 ,-0.03184951,-0.10570574,-0.25869803,-0.00029755,-0.00680172,-0.020079
 59,0.00118152,0.00156329,0.00523755,0.03491903,0.11473975,0.28146860,0
 .00157353,0.00120653,0.00030083,-0.00058285,-0.00060667,0.00029947,-0.
 00009141,0.00000762,0.00000367,0.00002809,-0.00001169,0.00000909,-0.00
 017134,0.00025425,-0.00027048,0.00060653,-0.00322248,-0.00065149,0.000
 64738,0.00101889,0.00049054,-0.00387368,0.00056117,0.00376096,-0.01401
 708,0.00759889,-0.00777358,-0.29773106,0.07659047,-0.05032684,0.000396
 76,-0.00024550,-0.00032036,0.00013262,0.00002979,0.00064043,0.31827111
 ,0.00091436,0.00688007,0.00015828,-0.00100773,-0.00076676,0.00113302,-
 0.00003370,0.00000981,-0.00004516,0.00000193,-0.00001743,0.00000970,-0
 .00008491,0.00026518,-0.00000538,-0.00064881,-0.00258640,-0.00046320,0
 .00093090,0.00098539,0.00015422,-0.00378904,0.00192438,0.00234188,-0.0
 0995868,0.00426297,-0.00218905,0.09355324,-0.05006382,0.02289899,0.000
 65884,0.00078467,-0.00116326,0.00008574,-0.00000940,0.00040297,-0.0837
 1858,0.05100137,0.00069729,0.00128989,-0.00011993,-0.00007145,-0.00028
 349,0.00003394,0.00012471,0.00001234,0.00001676,-0.00001017,0.00001376
 ,-0.00001599,0.00007514,-0.00035555,0.00032546,0.00007149,0.00196643,0
 .00013841,-0.00019833,-0.00053463,-0.00044013,0.00591113,0.00041568,-0
 .00254198,0.01757774,-0.00688552,0.00796586,-0.05098760,0.01863142,-0.
 06314274,-0.00020650,0.00039318,0.00067096,-0.00108069,-0.00072709,-0.
 00001909,0.05458081,-0.02073171,0.05852040,-0.00038423,-0.00113513,0.0
 0042663,0.00022308,0.00020572,0.00007660,0.00001203,-0.00000374,-0.000
 03726,-0.00002148,0.00000791,0.00000136,0.00003190,-0.00006180,0.00008
 486,-0.00033374,0.00145040,0.00059683,-0.00032060,-0.00042363,-0.00036
 048,0.00343250,-0.00001867,-0.00138207,0.00590415,0.00364779,0.0218232
 7,-0.07349715,-0.01557505,-0.07715760,-0.00004395,-0.00014299,-0.00012
 547,-0.00272135,-0.00164064,0.00303845,-0.00373145,-0.00578027,-0.0261
 9691,0.07152877,0.00152158,0.00436247,0.00131856,-0.00161838,-0.000315
 19,0.00031159,-0.00001908,0.00000818,0.00000759,0.00002121,-0.00000560
 ,-0.00000916,-0.00004131,0.00005032,0.00008631,0.00034555,-0.00099024,
 -0.00062901,0.00036604,0.00073407,0.00005931,0.00006086,0.00006048,-0.
 00056269,0.00293691,0.00682709,0.01359921,-0.02005859,-0.03747345,-0.0
 6384520,0.00105153,0.00010206,-0.00131430,-0.00207511,-0.00073871,0.00
 049613,0.00319120,0.00473444,0.00921071,0.01777936,0.03536054,0.000120
 37,-0.00103766,0.00086796,0.00029817,0.00021013,-0.00027540,0.00002082
 ,-0.00001214,0.00000817,0.00000309,0.00000273,0.00000688,0.00003336,-0
 .00000288,-0.00008096,0.00029670,-0.00017345,-0.00034781,0.00003240,-0
 .00003768,0.00026423,-0.00097610,-0.00049401,0.00265410,-0.00737982,-0
 .00591571,-0.01902643,-0.07512282,-0.04702825,-0.30001065,0.00006236,0
 .00014696,0.00012771,0.00274042,0.00233534,-0.00135909,0.00046604,-0.0
 0219544,-0.00135789,0.08019867,0.05236400,0.32015576,-0.03564024,-0.01
 319192,0.00597106,-0.00022579,0.02493722,0.00828270,0.00010373,0.00001
 690,0.00002750,-0.00004555,-0.00001208,-0.00001582,0.00012423,0.000113
 23,0.00012014,-0.00165890,-0.00222936,-0.00038340,0.00110873,0.0011021
 0,-0.00006994,-0.00038075,0.00103752,-0.00017231,-0.00082484,-0.008209
 84,0.00111319,-0.01002285,0.01132798,0.00239453,-0.00056582,-0.0003959
 9,0.00077220,0.00014176,-0.00001615,-0.00038984,-0.00145715,0.00887672
 ,-0.00028666,-0.00007850,-0.00346179,-0.00079366,0.04942193,0.02136885
 ,-0.00519026,-0.00973215,-0.01293019,-0.01279509,0.00434620,-0.0001602
 7,0.00005253,-0.00002230,0.00004978,-0.00004583,-0.00000420,-0.0003028
 5,0.00026213,0.00002530,0.00162838,-0.00366821,-0.00129763,0.00052578,
 0.00240957,0.00090696,-0.00184443,0.00361477,0.00008032,-0.00010809,-0
 .01664600,0.00550476,0.01502433,0.10205452,0.00179974,-0.00209700,0.00
 208832,0.00025731,-0.00029662,0.00007124,-0.00166713,-0.00265388,-0.01
 740447,-0.00241541,0.00169076,-0.01271647,0.00183804,-0.01989455,-0.04
 208674,0.01348110,0.00242745,-0.02847668,-0.00064910,-0.01921799,-0.00
 130663,-0.00013159,0.00005474,-0.00005224,0.00001030,-0.00001476,0.000
 01834,-0.00022149,-0.00003588,-0.00013052,0.00097475,-0.00025231,0.000
 49391,-0.00076072,0.00027643,-0.00031193,-0.00111093,0.00028508,-0.000
 16410,0.00154938,0.00531738,-0.00023240,0.00461572,0.02057089,-0.01031
 392,0.00064418,0.00098477,-0.00072918,0.00036405,0.00062292,-0.0006119
 2,-0.00120909,-0.00030586,-0.00003406,-0.00098689,-0.01109305,-0.00162
 657,-0.01656969,0.00038019,0.04347791\\0.00380296,0.02464610,0.0035967
 5,-0.00131264,-0.00213387,0.00034048,-0.00003358,0.00003438,0.00000074
 ,0.00000248,-0.00001955,-0.00000724,-0.00002960,0.00017304,0.00010672,
 0.00063164,-0.00147561,-0.00042386,0.00051990,0.00093801,-0.00019358,-
 0.00119467,0.00137894,0.00017818,0.00064981,-0.00408544,0.00104835,0.0
 0353490,0.02280712,-0.00076082,-0.00046215,-0.00002931,0.00000009,-0.0
 0020417,-0.00002665,-0.00015959,-0.00122249,-0.00429550,-0.00055473,0.
 00039932,-0.00440605,0.00087503,-0.00508171,-0.03350560,-0.00404651\\\
 @


 IF YOU BELIEVE CERTAIN WORDS, YOU BELIEVE THEIR HIDDEN ARGUMENTS.
 WHEN YOU BELIEVE SOMETHING IS RIGHT OR WRONG, TRUE OR FALSE, 
 YOU BELIEVE THE ASSUMPTIONS IN THE WORDS WHICH EXPRESS THE ARGUMENTS.
 SUCH ASSUMPTIONS ARE OFTEN FULL OF HOLES, BUT REMAIN MOST PRECIOUS 
 TO THE CONVINCED.

                 -- THE OPEN-ENDED PROOF FROM THE PANOPLIA PROPHETICA
                    CHILDREN OF DUNE BY FRANK HERBERT
 Job cpu time:       0 days  0 hours 58 minutes  6.3 seconds.
 Elapsed time:       0 days  0 hours  2 minutes 25.3 seconds.
 File lengths (MBytes):  RWF=    153 Int=      0 D2E=      0 Chk=      8 Scr=      1
 Normal termination of Gaussian 16 at Mon Jun 23 02:21:17 2025.
