 Entering Gaussian System, Link 0=g16
 Initial command:
 /opt/g16/l1.exe "/home/aayush/scratches/g16/Gau-31640.inp" -scrdir="/home/aayush/scratches/g16/"
 Entering Link 1 = /opt/g16/l1.exe PID=     31643.
  
 Copyright (c) 1988,1990,1992,1993,1995,1998,2003,2009,2016,
            Gaussian, Inc.  All Rights Reserved.
  
 This is part of the Gaussian(R) 16 program.  It is based on
 the Gaussian(R) 09 system (copyright 2009, Gaussian, Inc.),
 the Gaussian(R) 03 system (copyright 2003, Gaussian, Inc.),
 the Gaussian(R) 98 system (copyright 1998, Gaussian, Inc.),
 the Gaussian(R) 94 system (copyright 1995, Gaussian, Inc.),
 the Gaussian 92(TM) system (copyright 1992, Gaussian, Inc.),
 the Gaussian 90(TM) system (copyright 1990, Gaussian, Inc.),
 the Gaussian 88(TM) system (copyright 1988, Gaussian, Inc.),
 the Gaussian 86(TM) system (copyright 1986, Carnegie Mellon
 University), and the Gaussian 82(TM) system (copyright 1983,
 Carnegie Mellon University). Gaussian is a federally registered
 trademark of Gaussian, Inc.
  
 This software contains proprietary and confidential information,
 including trade secrets, belonging to Gaussian, Inc.
  
 This software is provided under written license and may be
 used, copied, transmitted, or stored only in accord with that
 written license.
  
 The following legend is applicable only to US Government
 contracts under FAR:
  
                    RESTRICTED RIGHTS LEGEND
  
 Use, reproduction and disclosure by the US Government is
 subject to restrictions as set forth in subparagraphs (a)
 and (c) of the Commercial Computer Software - Restricted
 Rights clause in FAR 52.227-19.
  
 Gaussian, Inc.
 340 Quinnipiac St., Bldg. 40, Wallingford CT 06492
  
  
 ---------------------------------------------------------------
 Warning -- This program may not be used in any manner that
 competes with the business of Gaussian, Inc. or will provide
 assistance to any competitor of Gaussian, Inc.  The licensee
 of this program is prohibited from giving any competitor of
 Gaussian, Inc. access to this program.  By using this program,
 the user acknowledges that Gaussian, Inc. is engaged in the
 business of creating and licensing software in the field of
 computational chemistry and represents and warrants to the
 licensee that it is not a competitor of Gaussian, Inc. and that
 it will not use this program in any manner prohibited above.
 ---------------------------------------------------------------
  

 Cite this work as:
 Gaussian 16, Revision A.03,
 M. J. Frisch, G. W. Trucks, H. B. Schlegel, G. E. Scuseria, 
 M. A. Robb, J. R. Cheeseman, G. Scalmani, V. Barone, 
 G. A. Petersson, H. Nakatsuji, X. Li, M. Caricato, A. V. Marenich, 
 J. Bloino, B. G. Janesko, R. Gomperts, B. Mennucci, H. P. Hratchian, 
 J. V. Ortiz, A. F. Izmaylov, J. L. Sonnenberg, D. Williams-Young, 
 F. Ding, F. Lipparini, F. Egidi, J. Goings, B. Peng, A. Petrone, 
 T. Henderson, D. Ranasinghe, V. G. Zakrzewski, J. Gao, N. Rega, 
 G. Zheng, W. Liang, M. Hada, M. Ehara, K. Toyota, R. Fukuda, 
 J. Hasegawa, M. Ishida, T. Nakajima, Y. Honda, O. Kitao, H. Nakai, 
 T. Vreven, K. Throssell, J. A. Montgomery, Jr., J. E. Peralta, 
 F. Ogliaro, M. J. Bearpark, J. J. Heyd, E. N. Brothers, K. N. Kudin, 
 V. N. Staroverov, T. A. Keith, R. Kobayashi, J. Normand, 
 K. Raghavachari, A. P. Rendell, J. C. Burant, S. S. Iyengar, 
 J. Tomasi, M. Cossi, J. M. Millam, M. Klene, C. Adamo, R. Cammi, 
 J. W. Ochterski, R. L. Martin, K. Morokuma, O. Farkas, 
 J. B. Foresman, and D. J. Fox, Gaussian, Inc., Wallingford CT, 2016.
 
 ******************************************
 Gaussian 16:  ES64L-G16RevA.03 25-Dec-2016
                20-Jun-2025 
 ******************************************
 %nprocshared=24
 Will use up to   24 processors via shared memory.
 %mem=12GB
 %chk=ethyl_propiolate_ts1.chk
 -------------------
 # freq 6-31+g m062x
 -------------------
 1/10=4,30=1,38=1/1,3;
 2/12=2,17=6,18=5,40=1/2;
 3/5=1,6=6,7=10,11=2,25=1,30=1,71=2,74=-55,140=1/1,2,3;
 4//1;
 5/5=2,38=5,98=1/2;
 8/6=4,10=90,11=11/1;
 11/6=1,8=1,9=11,15=111,16=1/1,2,10;
 10/6=1/2;
 6/7=2,8=2,9=2,10=2,28=1/1;
 7/8=1,10=1,25=1/1,2,3,16;
 1/10=4,30=1/3;
 99//99;
 -------------------
 Title Card Required
 -------------------
 Symbolic Z-matrix:
 Charge =  0 Multiplicity = 2
 O                     2.34193   1.65849  -0.3331 
 H                     1.5378    1.78271   0.1931 
 C                    -3.3175    0.18923  -0.51626 
 H                    -4.33349   0.26195  -0.82752 
 C                    -2.17532   0.10711  -0.16532 
 C                    -0.79122   0.06192   0.27352 
 O                    -0.22956   0.986     0.79876 
 O                    -0.24454  -1.12647   0.02703 
 C                     1.1215   -1.31616   0.44213 
 C                     2.09815  -0.8288   -0.5909 
 H                     1.20905  -2.39875   0.56328 
 H                     1.27541  -0.83634   1.41063 
 H                     3.11872  -1.14424  -0.38098 
 H                     1.79633  -1.03852  -1.61568 
 H                     2.23958   0.5551   -0.53211 
 

 GradGradGradGradGradGradGradGradGradGradGradGradGradGradGradGradGradGrad
 Berny optimization.
 Initialization pass.
 Trust Radius=3.00D-01 FncErr=1.00D-07 GrdErr=1.00D-07 EigMax=2.50D+02 EigMin=1.00D-04
 Number of steps in this run=      2 maximum allowed number of steps=      2.
 GradGradGradGradGradGradGradGradGradGradGradGradGradGradGradGradGradGrad

                          Input orientation:                          
 ---------------------------------------------------------------------
 Center     Atomic      Atomic             Coordinates (Angstroms)
 Number     Number       Type             X           Y           Z
 ---------------------------------------------------------------------
      1          8           0        2.341930    1.658488   -0.333101
      2          1           0        1.537799    1.782713    0.193102
      3          6           0       -3.317496    0.189227   -0.516258
      4          1           0       -4.333494    0.261954   -0.827522
      5          6           0       -2.175325    0.107113   -0.165318
      6          6           0       -0.791216    0.061921    0.273522
      7          8           0       -0.229562    0.986000    0.798760
      8          8           0       -0.244543   -1.126469    0.027032
      9          6           0        1.121501   -1.316157    0.442125
     10          6           0        2.098152   -0.828798   -0.590900
     11          1           0        1.209047   -2.398752    0.563276
     12          1           0        1.275405   -0.836341    1.410634
     13          1           0        3.118723   -1.144236   -0.380979
     14          1           0        1.796332   -1.038523   -1.615677
     15          1           0        2.239584    0.555101   -0.532113
 ---------------------------------------------------------------------
                    Distance matrix (angstroms):
                    1          2          3          4          5
     1  O    0.000000
     2  H    0.968993   0.000000
     3  C    5.849904   5.159097   0.000000
     4  H    6.837839   6.150322   1.065095   0.000000
     5  C    4.779174   4.089424   1.197688   2.262782   0.000000
     6  C    3.568420   2.896878   2.649915   3.714841   1.452715
     7  O    2.888931   2.031044   3.449559   4.473398   2.342623
     8  O    3.817790   3.415796   3.386630   4.401988   2.299270
     9  C    3.307406   3.136608   4.784284   5.818884   3.641943
    10  C    2.512465   2.783639   5.511006   6.527771   4.395413
    11  H    4.306752   4.210672   5.324718   6.303446   4.273661
    12  H    3.225253   2.900117   5.085218   6.138024   3.909126
    13  H    2.908773   3.375784   6.574294   7.596862   5.444201
    14  H    3.035877   3.361234   5.372832   6.315631   4.380649
    15  H    1.125852   1.589173   5.569134   6.586240   4.452713
                    6          7          8          9         10
     6  C    0.000000
     7  O    1.202186   0.000000
     8  O    1.331120   2.249070   0.000000
     9  C    2.363475   2.693044   1.440264   0.000000
    10  C    3.144686   3.262346   2.441038   1.502833   0.000000
    11  H    3.184324   3.685322   2.004791   1.092865   2.141818
    12  H    2.524048   2.441361   2.075758   1.091751   2.164049
    13  H    4.143768   4.140133   3.387971   2.167015   1.088638
    14  H    3.387544   3.745991   2.621335   2.183352   1.088691
    15  H    3.174590   2.837883   3.051427   2.387646   1.392349
                   11         12         13         14         15
    11  H    0.000000
    12  H    1.778636   0.000000
    13  H    2.472305   2.588918   0.000000
    14  H    2.634950   3.077467   1.812284   0.000000
    15  H    3.314684   2.576823   1.919238   1.977428   0.000000
 Stoichiometry    C5H7O3(2)
 Framework group  C1[X(C5H7O3)]
 Deg. of freedom    39
 Full point group                 C1      NOp   1
 Largest Abelian subgroup         C1      NOp   1
 Largest concise Abelian subgroup C1      NOp   1
                         Standard orientation:                         
 ---------------------------------------------------------------------
 Center     Atomic      Atomic             Coordinates (Angstroms)
 Number     Number       Type             X           Y           Z
 ---------------------------------------------------------------------
      1          8           0        2.288846    1.678361   -0.320183
      2          1           0        1.484980    1.802760    0.206383
      3          6           0       -3.372947    0.218550   -0.505733
      4          1           0       -4.388865    0.293561   -0.816715
      5          6           0       -2.230866    0.133867   -0.155111
      6          6           0       -0.846777    0.085532    0.283458
      7          8           0       -0.283580    1.007598    0.810578
      8          8           0       -0.302037   -1.103208    0.034388
      9          6           0        1.063752   -1.295959    0.448908
     10          6           0        2.041055   -0.807982   -0.583208
     11          1           0        1.149580   -2.378947    0.567759
     12          1           0        1.218542   -0.818438    1.418409
     13          1           0        3.061146   -1.125496   -0.374082
     14          1           0        1.738775   -1.015057   -1.608388
     15          1           0        2.184710    0.575562   -0.521514
 ---------------------------------------------------------------------
 Rotational constants (GHZ):           3.3496981           1.1875145           0.9750193
 Standard basis: 6-31+G (6D, 7F)
 There are   118 symmetry adapted cartesian basis functions of A   symmetry.
 There are   118 symmetry adapted basis functions of A   symmetry.
   118 basis functions,   236 primitive gaussians,   118 cartesian basis functions
    31 alpha electrons       30 beta electrons
       nuclear repulsion energy       353.6745252725 Hartrees.
 NAtoms=   15 NActive=   15 NUniq=   15 SFac= 1.00D+00 NAtFMM=   60 NAOKFM=F Big=F
 Integral buffers will be    131072 words long.
 Raffenetti 2 integral format.
 Two-electron integral symmetry is turned on.
 One-electron integrals computed using PRISM.
 NBasis=   118 RedAO= T EigKep=  1.40D-06  NBF=   118
 NBsUse=   118 1.00D-06 EigRej= -1.00D+00 NBFU=   118
 ExpMin= 4.38D-02 ExpMax= 5.48D+03 ExpMxC= 8.25D+02 IAcc=3 IRadAn=         5 AccDes= 0.00D+00
 Harris functional with IExCor= 1009 and IRadAn=       5 diagonalized for initial guess.
 HarFok:  IExCor= 1009 AccDes= 0.00D+00 IRadAn=         5 IDoV= 1 UseB2=F ITyADJ=14
 ICtDFT=  3500011 ScaDFX=  1.000000  1.000000  1.000000  1.000000
 FoFCou: FMM=F IPFlag=           0 FMFlag=      100000 FMFlg1=           0
         NFxFlg=           0 DoJE=T BraDBF=F KetDBF=T FulRan=T
         wScrn=  0.000000 ICntrl=       500 IOpCl=  0 I1Cent=   200000004 NGrid=           0
         NMat0=    1 NMatS0=      1 NMatT0=    0 NMatD0=    1 NMtDS0=    0 NMtDT0=    0
 Petite list used in FoFCou.
 Initial guess <Sx>= 0.0000 <Sy>= 0.0000 <Sz>= 0.5000 <S**2>= 0.7500 S= 0.5000
 Requested convergence on RMS density matrix=1.00D-08 within 128 cycles.
 Requested convergence on MAX density matrix=1.00D-06.
 Requested convergence on             energy=1.00D-06.
 No special actions if energy rises.
 Restarting incremental Fock formation.
 SCF Done:  E(UM062X) =  -419.954554964     A.U. after   21 cycles
            NFock= 21  Conv=0.64D-08     -V/T= 2.0050
 <Sx>= 0.0000 <Sy>= 0.0000 <Sz>= 0.5000 <S**2>= 0.7597 S= 0.5048
 <L.S>=  0.00000000000    
 Annihilation of the first spin contaminant:
 S**2 before annihilation     0.7597,   after     0.7500
 DoSCS=F DFT=T ScalE2(SS,OS)=  1.000000  1.000000
 Range of M.O.s used for correlation:     1   118
 NBasis=   118 NAE=    31 NBE=    30 NFC=     0 NFV=     0
 NROrb=    118 NOA=    31 NOB=    30 NVA=    87 NVB=    88

 **** Warning!!: The largest alpha MO coefficient is  0.21011092D+03


 **** Warning!!: The largest beta MO coefficient is  0.21241233D+03

 Symmetrizing basis deriv contribution to polar:
 IMax=3 JMax=2 DiffMx= 0.00D+00
 G2DrvN: will do    16 centers at a time, making    1 passes.
 Calling FoFCou, ICntrl=  3107 FMM=F I1Cent=   0 AccDes= 0.00D+00.
 End of G2Drv F.D. properties file   721 does not exist.
 End of G2Drv F.D. properties file   722 does not exist.
 End of G2Drv F.D. properties file   788 does not exist.
          IDoAtm=111111111111111
          Differentiating once with respect to electric field.
                with respect to dipole field.
          Differentiating once with respect to nuclear coordinates.
 Keep R1 and R2 ints in memory in canonical form, NReq=71861349.
          There are    48 degrees of freedom in the 1st order CPHF.  IDoFFX=6 NUNeed=     3.
     45 vectors produced by pass  0 Test12= 1.11D-14 2.08D-09 XBig12= 9.33D+01 4.07D+00.
 AX will form    45 AO Fock derivatives at one time.
     45 vectors produced by pass  1 Test12= 1.11D-14 2.08D-09 XBig12= 2.04D+01 7.38D-01.
     45 vectors produced by pass  2 Test12= 1.11D-14 2.08D-09 XBig12= 7.02D-01 1.27D-01.
     45 vectors produced by pass  3 Test12= 1.11D-14 2.08D-09 XBig12= 3.63D-03 7.76D-03.
     45 vectors produced by pass  4 Test12= 1.11D-14 2.08D-09 XBig12= 2.03D-05 4.22D-04.
     45 vectors produced by pass  5 Test12= 1.11D-14 2.08D-09 XBig12= 1.32D-07 3.37D-05.
     40 vectors produced by pass  6 Test12= 1.11D-14 2.08D-09 XBig12= 8.06D-10 2.44D-06.
     10 vectors produced by pass  7 Test12= 1.11D-14 2.08D-09 XBig12= 4.72D-12 1.88D-07.
      3 vectors produced by pass  8 Test12= 1.11D-14 2.08D-09 XBig12= 3.68D-14 2.27D-08.
      1 vectors produced by pass  9 Test12= 1.11D-14 2.08D-09 XBig12= 1.03D-14 1.46D-08.
 InvSVY:  IOpt=1 It=  1 EMax= 3.55D-15
 Solved reduced A of dimension   324 with    48 vectors.
 Isotropic polarizability for W=    0.000000       70.08 Bohr**3.
 End of Minotr F.D. properties file   721 does not exist.
 End of Minotr F.D. properties file   722 does not exist.
 End of Minotr F.D. properties file   788 does not exist.

 **********************************************************************

            Population analysis using the SCF density.

 **********************************************************************

 Orbital symmetries:
 Alpha Orbitals:
       Occupied  (A) (A) (A) (A) (A) (A) (A) (A) (A) (A) (A) (A)
                 (A) (A) (A) (A) (A) (A) (A) (A) (A) (A) (A) (A)
                 (A) (A) (A) (A) (A) (A) (A)
       Virtual   (A) (A) (A) (A) (A) (A) (A) (A) (A) (A) (A) (A)
                 (A) (A) (A) (A) (A) (A) (A) (A) (A) (A) (A) (A)
                 (A) (A) (A) (A) (A) (A) (A) (A) (A) (A) (A) (A)
                 (A) (A) (A) (A) (A) (A) (A) (A) (A) (A) (A) (A)
                 (A) (A) (A) (A) (A) (A) (A) (A) (A) (A) (A) (A)
                 (A) (A) (A) (A) (A) (A) (A) (A) (A) (A) (A) (A)
                 (A) (A) (A) (A) (A) (A) (A) (A) (A) (A) (A) (A)
                 (A) (A) (A)
 Beta  Orbitals:
       Occupied  (A) (A) (A) (A) (A) (A) (A) (A) (A) (A) (A) (A)
                 (A) (A) (A) (A) (A) (A) (A) (A) (A) (A) (A) (A)
                 (A) (A) (A) (A) (A) (A)
       Virtual   (A) (A) (A) (A) (A) (A) (A) (A) (A) (A) (A) (A)
                 (A) (A) (A) (A) (A) (A) (A) (A) (A) (A) (A) (A)
                 (A) (A) (A) (A) (A) (A) (A) (A) (A) (A) (A) (A)
                 (A) (A) (A) (A) (A) (A) (A) (A) (A) (A) (A) (A)
                 (A) (A) (A) (A) (A) (A) (A) (A) (A) (A) (A) (A)
                 (A) (A) (A) (A) (A) (A) (A) (A) (A) (A) (A) (A)
                 (A) (A) (A) (A) (A) (A) (A) (A) (A) (A) (A) (A)
                 (A) (A) (A) (A)
 The electronic state is 2-A.
 Alpha  occ. eigenvalues --  -19.72864 -19.68445 -19.63848 -10.75097 -10.64228
 Alpha  occ. eigenvalues --  -10.59850 -10.59488 -10.59019  -1.30198  -1.20763
 Alpha  occ. eigenvalues --   -1.11867  -0.93161  -0.89507  -0.80614  -0.72985
 Alpha  occ. eigenvalues --   -0.67102  -0.62641  -0.61100  -0.60462  -0.57793
 Alpha  occ. eigenvalues --   -0.54817  -0.51878  -0.50466  -0.47358  -0.45870
 Alpha  occ. eigenvalues --   -0.41481  -0.40865  -0.38763  -0.38006  -0.37847
 Alpha  occ. eigenvalues --   -0.31839
 Alpha virt. eigenvalues --   -0.03410   0.01246   0.01896   0.03118   0.03354
 Alpha virt. eigenvalues --    0.03964   0.04569   0.05994   0.07134   0.07492
 Alpha virt. eigenvalues --    0.08085   0.08741   0.09408   0.11001   0.11885
 Alpha virt. eigenvalues --    0.12257   0.14701   0.14770   0.16103   0.16847
 Alpha virt. eigenvalues --    0.17826   0.18778   0.19875   0.20227   0.21813
 Alpha virt. eigenvalues --    0.22962   0.23333   0.23883   0.25678   0.27428
 Alpha virt. eigenvalues --    0.27872   0.28157   0.29487   0.30142   0.30277
 Alpha virt. eigenvalues --    0.32236   0.33363   0.34255   0.34781   0.35733
 Alpha virt. eigenvalues --    0.36850   0.39367   0.40994   0.41582   0.44505
 Alpha virt. eigenvalues --    0.46260   0.56347   0.59755   0.67298   0.68621
 Alpha virt. eigenvalues --    0.69761   0.72075   0.72843   0.73922   0.76516
 Alpha virt. eigenvalues --    0.79083   0.79701   0.84625   0.85849   0.91072
 Alpha virt. eigenvalues --    0.93215   0.96531   1.00489   1.07910   1.09570
 Alpha virt. eigenvalues --    1.12159   1.13957   1.15876   1.20507   1.22455
 Alpha virt. eigenvalues --    1.24509   1.25455   1.27984   1.30464   1.31034
 Alpha virt. eigenvalues --    1.36630   1.37333   1.39882   1.42197   1.45010
 Alpha virt. eigenvalues --    1.47874   1.62252   1.68307   1.77949   1.96090
 Alpha virt. eigenvalues --    1.99005   2.02463
  Beta  occ. eigenvalues --  -19.72862 -19.68446 -19.63035 -10.75097 -10.64264
  Beta  occ. eigenvalues --  -10.59850 -10.59488 -10.58387  -1.30191  -1.20750
  Beta  occ. eigenvalues --   -1.09076  -0.92703  -0.88959  -0.79443  -0.72271
  Beta  occ. eigenvalues --   -0.66864  -0.62597  -0.60749  -0.59835  -0.55345
  Beta  occ. eigenvalues --   -0.53608  -0.50825  -0.49485  -0.45762  -0.43565
  Beta  occ. eigenvalues --   -0.41315  -0.40125  -0.38708  -0.37912  -0.36290
  Beta virt. eigenvalues --   -0.09457  -0.03383   0.01127   0.01886   0.03040
  Beta virt. eigenvalues --    0.03310   0.04003   0.04573   0.06016   0.07013
  Beta virt. eigenvalues --    0.07552   0.08187   0.08873   0.09488   0.11096
  Beta virt. eigenvalues --    0.11947   0.12312   0.14552   0.14765   0.16171
  Beta virt. eigenvalues --    0.16951   0.17874   0.18811   0.19918   0.20350
  Beta virt. eigenvalues --    0.21533   0.23405   0.23520   0.24070   0.26020
  Beta virt. eigenvalues --    0.27655   0.28036   0.28432   0.29554   0.30425
  Beta virt. eigenvalues --    0.30670   0.32590   0.33518   0.34343   0.35151
  Beta virt. eigenvalues --    0.35813   0.37181   0.39972   0.41547   0.42996
  Beta virt. eigenvalues --    0.44700   0.46770   0.56393   0.59799   0.68357
  Beta virt. eigenvalues --    0.69455   0.70987   0.72176   0.73777   0.74974
  Beta virt. eigenvalues --    0.77575   0.79388   0.80697   0.84828   0.86042
  Beta virt. eigenvalues --    0.91075   0.93191   0.96488   1.00509   1.07894
  Beta virt. eigenvalues --    1.10244   1.12628   1.14266   1.16128   1.20051
  Beta virt. eigenvalues --    1.22967   1.25205   1.25679   1.28552   1.30647
  Beta virt. eigenvalues --    1.32031   1.36971   1.38491   1.40583   1.42564
  Beta virt. eigenvalues --    1.44918   1.48428   1.62511   1.68867   1.78102
  Beta virt. eigenvalues --    1.96635   1.99345   2.02508
          Condensed to atoms (all electrons):
               1          2          3          4          5          6
     1  O    8.500528   0.177283  -0.053933  -0.000000  -0.076462   0.121566
     2  H    0.177283   0.355221   0.010031   0.000000   0.024264  -0.042323
     3  C   -0.053933   0.010031  92.857959   0.623237 -26.981736 -60.089374
     4  H   -0.000000   0.000000   0.623237   0.332341  -0.232849  -0.071999
     5  C   -0.076462   0.024264 -26.981736  -0.232849  44.147134  -9.954114
     6  C    0.121566  -0.042323 -60.089374  -0.071999  -9.954114  75.949961
     7  O    0.010888   0.017068  -0.246546  -0.000274   0.115349   0.131058
     8  O    0.006625   0.000981  -0.673678  -0.000856  -1.175506   1.237586
     9  C    0.002548   0.004391   0.259656  -0.000545  -0.365045  -0.277247
    10  C   -0.085467   0.007809  -0.031395  -0.000143  -0.007233  -0.162357
    11  H   -0.001053   0.000065   0.005819   0.000000   0.013016  -0.001091
    12  H    0.002939  -0.000715   0.006394  -0.000000   0.025332  -0.031344
    13  H   -0.000900   0.000390  -0.002918   0.000000  -0.016706   0.032769
    14  H    0.003264  -0.000072   0.023597  -0.000000   0.062436  -0.088431
    15  H    0.056900  -0.027435  -0.011311   0.000000  -0.057797   0.038383
               7          8          9         10         11         12
     1  O    0.010888   0.006625   0.002548  -0.085467  -0.001053   0.002939
     2  H    0.017068   0.000981   0.004391   0.007809   0.000065  -0.000715
     3  C   -0.246546  -0.673678   0.259656  -0.031395   0.005819   0.006394
     4  H   -0.000274  -0.000856  -0.000545  -0.000143   0.000000  -0.000000
     5  C    0.115349  -1.175506  -0.365045  -0.007233   0.013016   0.025332
     6  C    0.131058   1.237586  -0.277247  -0.162357  -0.001091  -0.031344
     7  O    8.623604  -0.242216   0.020167  -0.000341  -0.000881  -0.001031
     8  O   -0.242216   9.043407   0.090955   0.032148  -0.072527  -0.028981
     9  C    0.020167   0.090955   6.007201  -0.174907   0.421525   0.419421
    10  C   -0.000341   0.032148  -0.174907   6.129784  -0.063013  -0.085781
    11  H   -0.000881  -0.072527   0.421525  -0.063013   0.486752  -0.030781
    12  H   -0.001031  -0.028981   0.419421  -0.085781  -0.030781   0.473211
    13  H   -0.000790   0.003307  -0.063439   0.377729  -0.000783   0.000517
    14  H   -0.001487   0.002736  -0.047039   0.376160  -0.001846   0.003319
    15  H    0.020113  -0.008285  -0.000521   0.177110   0.002023  -0.005604
              13         14         15
     1  O   -0.000900   0.003264   0.056900
     2  H    0.000390  -0.000072  -0.027435
     3  C   -0.002918   0.023597  -0.011311
     4  H    0.000000  -0.000000   0.000000
     5  C   -0.016706   0.062436  -0.057797
     6  C    0.032769  -0.088431   0.038383
     7  O   -0.000790  -0.001487   0.020113
     8  O    0.003307   0.002736  -0.008285
     9  C   -0.063439  -0.047039  -0.000521
    10  C    0.377729   0.376160   0.177110
    11  H   -0.000783  -0.001846   0.002023
    12  H    0.000517   0.003319  -0.005604
    13  H    0.469813  -0.025237  -0.012795
    14  H   -0.025237   0.462720  -0.014669
    15  H   -0.012795  -0.014669   0.526225
          Atomic-Atomic Spin Densities.
               1          2          3          4          5          6
     1  O    0.503634  -0.008834  -0.000475   0.000000  -0.017118  -0.005592
     2  H   -0.008834  -0.007761   0.001275  -0.000000   0.005135  -0.001587
     3  C   -0.000475   0.001275  -3.006956   0.004498   1.328249   1.749207
     4  H    0.000000  -0.000000   0.004498   0.000011  -0.004083  -0.000433
     5  C   -0.017118   0.005135   1.328249  -0.004083  -1.152733  -0.082222
     6  C   -0.005592  -0.001587   1.749207  -0.000433  -0.082222  -1.825960
     7  O    0.011373  -0.003022  -0.001709  -0.000003  -0.016834   0.013408
     8  O    0.001345  -0.000358  -0.017684  -0.000003  -0.032694   0.041937
     9  C    0.032386  -0.004259  -0.061264   0.000042  -0.053831   0.103789
    10  C   -0.140892   0.009769   0.012843  -0.000004   0.044136  -0.016986
    11  H   -0.000622   0.000041   0.002734  -0.000000   0.011775  -0.005483
    12  H    0.001708  -0.000324  -0.001990   0.000000  -0.009170   0.004532
    13  H    0.002464  -0.000130   0.000051  -0.000000  -0.000426  -0.002465
    14  H    0.002878  -0.000161  -0.002587   0.000000  -0.008702   0.007021
    15  H    0.005016   0.004473   0.000915   0.000000   0.010393   0.007560
               7          8          9         10         11         12
     1  O    0.011373   0.001345   0.032386  -0.140892  -0.000622   0.001708
     2  H   -0.003022  -0.000358  -0.004259   0.009769   0.000041  -0.000324
     3  C   -0.001709  -0.017684  -0.061264   0.012843   0.002734  -0.001990
     4  H   -0.000003  -0.000003   0.000042  -0.000004  -0.000000   0.000000
     5  C   -0.016834  -0.032694  -0.053831   0.044136   0.011775  -0.009170
     6  C    0.013408   0.041937   0.103789  -0.016986  -0.005483   0.004532
     7  O    0.004176   0.002847   0.007502  -0.018006  -0.001254   0.002713
     8  O    0.002847   0.002295   0.013842  -0.009182  -0.006266   0.002500
     9  C    0.007502   0.013842  -0.030067  -0.096989   0.004280   0.013625
    10  C   -0.018006  -0.009182  -0.096989   0.989288  -0.013788  -0.012734
    11  H   -0.001254  -0.006266   0.004280  -0.013788   0.053541  -0.006291
    12  H    0.002713   0.002500   0.013625  -0.012734  -0.006291   0.018390
    13  H    0.000396   0.000068   0.010404  -0.018972  -0.001141   0.000441
    14  H    0.000965   0.000707   0.011176  -0.021873  -0.001307   0.000187
    15  H   -0.008811   0.000628  -0.017580   0.056814  -0.000088   0.000472
              13         14         15
     1  O    0.002464   0.002878   0.005016
     2  H   -0.000130  -0.000161   0.004473
     3  C    0.000051  -0.002587   0.000915
     4  H   -0.000000   0.000000   0.000000
     5  C   -0.000426  -0.008702   0.010393
     6  C   -0.002465   0.007021   0.007560
     7  O    0.000396   0.000965  -0.008811
     8  O    0.000068   0.000707   0.000628
     9  C    0.010404   0.011176  -0.017580
    10  C   -0.018972  -0.021873   0.056814
    11  H   -0.001141  -0.001307  -0.000088
    12  H    0.000441   0.000187   0.000472
    13  H   -0.027710   0.004026   0.003282
    14  H    0.004026  -0.019185   0.002754
    15  H    0.003282   0.002754  -0.149679
 Mulliken charges and spin densities:
               1          2
     1  O   -0.664726   0.387271
     2  H    0.473041  -0.005744
     3  C    0.304197   0.007108
     4  H    0.351088   0.000025
     5  C    0.479917   0.021876
     6  C   -0.793045  -0.013271
     7  O   -0.444683  -0.006258
     8  O   -0.215696  -0.000018
     9  C   -0.297123  -0.066942
    10  C   -0.490104   0.763424
    11  H    0.242774   0.036131
    12  H    0.253104   0.014060
    13  H    0.239043  -0.029709
    14  H    0.244549  -0.024101
    15  H    0.317662  -0.083851
 Sum of Mulliken charges =  -0.00000   1.00000
 Mulliken charges and spin densities with hydrogens summed into heavy atoms:
               1          2
     1  O    0.125977   0.297677
     3  C    0.655285   0.007132
     5  C    0.479917   0.021876
     6  C   -0.793045  -0.013271
     7  O   -0.444683  -0.006258
     8  O   -0.215696  -0.000018
     9  C    0.198756  -0.016751
    10  C   -0.006512   0.709613
 APT charges:
               1
     1  O   -0.429824
     2  H    0.336031
     3  C   -0.202863
     4  H    0.263406
     5  C   -0.307343
     6  C    1.443716
     7  O   -0.779457
     8  O   -0.895148
     9  C    0.380575
    10  C    0.217803
    11  H    0.018839
    12  H    0.022416
    13  H    0.010625
    14  H    0.014139
    15  H   -0.092914
 Sum of APT charges =  -0.00000
 APT charges with hydrogens summed into heavy atoms:
               1
     1  O   -0.186707
     3  C    0.060543
     5  C   -0.307343
     6  C    1.443716
     7  O   -0.779457
     8  O   -0.895148
     9  C    0.421829
    10  C    0.242567
 Electronic spatial extent (au):  <R**2>=           1190.9009
 Charge=             -0.0000 electrons
 Dipole moment (field-independent basis, Debye):
    X=             -2.4287    Y=             -3.9995    Z=              0.1011  Tot=              4.6802
 Quadrupole moment (field-independent basis, Debye-Ang):
   XX=            -41.9136   YY=            -53.5180   ZZ=            -48.1587
   XY=            -11.7058   XZ=              4.2806   YZ=             -0.5596
 Traceless Quadrupole moment (field-independent basis, Debye-Ang):
   XX=              5.9499   YY=             -5.6546   ZZ=             -0.2953
   XY=            -11.7058   XZ=              4.2806   YZ=             -0.5596
 Octapole moment (field-independent basis, Debye-Ang**2):
  XXX=            -68.2692  YYY=             -9.0559  ZZZ=              2.5286  XYY=             -0.5621
  XXY=            -21.7369  XXZ=             -9.8158  XZZ=              3.2863  YZZ=             -3.6726
  YYZ=              5.9483  XYZ=              6.5226
 Hexadecapole moment (field-independent basis, Debye-Ang**3):
 XXXX=           -864.0184 YYYY=           -346.5653 ZZZZ=           -125.5706 XXXY=            -89.7242
 XXXZ=             70.8207 YYYX=            -20.8571 YYYZ=              4.9015 ZZZX=             -2.1678
 ZZZY=              1.8641 XXYY=           -287.6688 XXZZ=           -202.2795 YYZZ=            -83.8505
 XXYZ=              4.8766 YYXZ=             11.4902 ZZXY=             -2.2901
 N-N= 3.536745252725D+02 E-N=-1.689411423186D+03  KE= 4.178540959174D+02
  Exact polarizability:  88.978  -0.676  72.553   7.868   2.775  48.713
 Approx polarizability:  94.366   2.087  81.337  13.252   7.296  54.781
                          Isotropic Fermi Contact Couplings
        Atom                 a.u.       MegaHertz       Gauss      10(-4) cm-1
     1  O(17)              0.05147     -31.20124     -11.13338     -10.40761
     2  H(1)              -0.00569     -25.42841      -9.07349      -8.48201
     3  C(13)             -0.00002      -0.02517      -0.00898      -0.00840
     4  H(1)               0.00001       0.04013       0.01432       0.01339
     5  C(13)              0.00025       0.28619       0.10212       0.09546
     6  C(13)              0.00023       0.26321       0.09392       0.08780
     7  O(17)             -0.00229       1.38805       0.49529       0.46300
     8  O(17)              0.00407      -2.46709      -0.88032      -0.82293
     9  C(13)             -0.02172     -24.41475      -8.71179      -8.14388
    10  C(13)              0.20225     227.36803      81.13057      75.84181
    11  H(1)               0.01965      87.84660      31.34585      29.30247
    12  H(1)               0.00768      34.34608      12.25554      11.45662
    13  H(1)              -0.00860     -38.45790     -13.72274     -12.82817
    14  H(1)              -0.00537     -24.02148      -8.57146      -8.01270
    15  H(1)              -0.03561    -159.17538     -56.79773     -53.09519
 --------------------------------------------------------
       Center         ----  Spin Dipole Couplings  ----
                      3XX-RR        3YY-RR        3ZZ-RR
 --------------------------------------------------------
     1   Atom       -0.708598      1.459139     -0.750541
     2   Atom        0.034558     -0.016742     -0.017816
     3   Atom        0.001704     -0.000581     -0.001123
     4   Atom        0.000904     -0.000413     -0.000491
     5   Atom        0.002710     -0.001279     -0.001431
     6   Atom        0.006568     -0.001840     -0.004728
     7   Atom        0.000918     -0.003645      0.002727
     8   Atom        0.009028     -0.004056     -0.004971
     9   Atom        0.000307      0.012311     -0.012618
    10   Atom       -0.364901      0.722301     -0.357400
    11   Atom       -0.003027      0.004545     -0.001517
    12   Atom       -0.005639     -0.005696      0.011335
    13   Atom        0.047388     -0.002641     -0.044747
    14   Atom       -0.040785     -0.008028      0.048813
    15   Atom       -0.116160      0.229656     -0.113496
 --------------------------------------------------------
                        XY            XZ            YZ
 --------------------------------------------------------
     1   Atom        0.406141      0.051289      0.218789
     2   Atom       -0.010115     -0.059123      0.014519
     3   Atom       -0.000122      0.000327      0.000184
     4   Atom       -0.000058      0.000071      0.000005
     5   Atom       -0.000150     -0.000367     -0.000015
     6   Atom       -0.001008     -0.002044      0.000685
     7   Atom       -0.001052     -0.008525      0.000085
     8   Atom       -0.001229      0.000906     -0.001560
     9   Atom        0.019988     -0.009554     -0.007903
    10   Atom        0.020573      0.004934      0.101937
    11   Atom        0.004567     -0.005415     -0.007647
    12   Atom        0.000894     -0.009143     -0.003567
    13   Atom       -0.024324      0.021289     -0.001148
    14   Atom        0.003126      0.029787      0.014644
    15   Atom        0.036173      0.004001      0.042164
 --------------------------------------------------------


 ---------------------------------------------------------------------------------
              Anisotropic Spin Dipole Couplings in Principal Axis System
 ---------------------------------------------------------------------------------

       Atom             a.u.   MegaHertz   Gauss  10(-4) cm-1        Axes

              Baa    -0.7897    57.142    20.390    19.061  0.8312 -0.0968 -0.5475
     1 O(17)  Bbb    -0.7649    55.346    19.749    18.462  0.5268 -0.1780  0.8312
              Bcc     1.5546  -112.489   -40.139   -37.522  0.1779  0.9793  0.0969
 
              Baa    -0.0574   -30.646   -10.935   -10.222  0.5195 -0.1696  0.8374
     2 H(1)   Bbb    -0.0185    -9.875    -3.524    -3.294  0.2387  0.9699  0.0483
              Bcc     0.0759    40.521    14.459    13.516  0.8204 -0.1748 -0.5444
 
              Baa    -0.0012    -0.164    -0.058    -0.055 -0.1182 -0.2943  0.9484
     3 C(13)  Bbb    -0.0005    -0.070    -0.025    -0.023  0.0087  0.9547  0.2974
              Bcc     0.0017     0.234     0.084     0.078  0.9930 -0.0434  0.1103
 
              Baa    -0.0005    -0.265    -0.094    -0.088 -0.0543 -0.0957  0.9939
     4 H(1)   Bbb    -0.0004    -0.221    -0.079    -0.074  0.0383  0.9945  0.0979
              Bcc     0.0009     0.486     0.173     0.162  0.9978 -0.0434  0.0503
 
              Baa    -0.0015    -0.197    -0.070    -0.066  0.0920  0.1511  0.9842
     5 C(13)  Bbb    -0.0013    -0.172    -0.061    -0.057  0.0230  0.9878 -0.1538
              Bcc     0.0027     0.369     0.132     0.123  0.9955 -0.0368 -0.0874
 
              Baa    -0.0052    -0.693    -0.247    -0.231  0.1568 -0.1536  0.9756
     6 C(13)  Bbb    -0.0019    -0.255    -0.091    -0.085  0.1482  0.9803  0.1305
              Bcc     0.0071     0.948     0.338     0.316  0.9765 -0.1241 -0.1765
 
              Baa    -0.0069     0.500     0.178     0.167  0.7319  0.2187  0.6453
     7 O(17)  Bbb    -0.0035     0.255     0.091     0.085 -0.1268  0.9743 -0.1863
              Bcc     0.0104    -0.755    -0.269    -0.252 -0.6695  0.0545  0.7408
 
              Baa    -0.0061     0.444     0.159     0.148  0.0008  0.5998  0.8002
     8 O(17)  Bbb    -0.0031     0.223     0.080     0.074  0.1251  0.7938 -0.5951
              Bcc     0.0092    -0.667    -0.238    -0.223  0.9921 -0.1006  0.0744
 
              Baa    -0.0182    -2.443    -0.872    -0.815  0.6151 -0.2058  0.7611
     9 C(13)  Bbb    -0.0124    -1.657    -0.591    -0.553 -0.5244  0.6140  0.5898
              Bcc     0.0306     4.100     1.463     1.368  0.5888  0.7620 -0.2698
 
              Baa    -0.3692   -49.547   -17.679   -16.527 -0.6065 -0.0626  0.7926
    10 C(13)  Bbb    -0.3630   -48.713   -17.382   -16.249  0.7948 -0.0717  0.6026
              Bcc     0.7322    98.260    35.062    32.776  0.0191  0.9955  0.0932
 
              Baa    -0.0082    -4.353    -1.553    -1.452  0.5877  0.2516  0.7690
    11 H(1)   Bbb    -0.0046    -2.438    -0.870    -0.813  0.7027 -0.6298 -0.3310
              Bcc     0.0127     6.791     2.423     2.265  0.4010  0.7349 -0.5469
 
              Baa    -0.0097    -5.192    -1.853    -1.732  0.8931  0.1703  0.4164
    12 H(1)   Bbb    -0.0062    -3.308    -1.180    -1.103 -0.2231  0.9714  0.0813
              Bcc     0.0159     8.500     3.033     2.835 -0.3907 -0.1655  0.9055
 
              Baa    -0.0498   -26.589    -9.488    -8.869 -0.2363 -0.0983  0.9667
    13 H(1)   Bbb    -0.0113    -6.025    -2.150    -2.010  0.3228  0.9305  0.1735
              Bcc     0.0611    32.614    11.637    10.879  0.9165 -0.3530  0.1881
 
              Baa    -0.0498   -26.583    -9.486    -8.867  0.9555  0.0313 -0.2932
    14 H(1)   Bbb    -0.0112    -5.983    -2.135    -1.996 -0.0912  0.9769 -0.1931
              Bcc     0.0610    32.566    11.620    10.863  0.2804  0.2112  0.9364
 
              Baa    -0.1200   -64.024   -22.845   -21.356  0.9608 -0.1290  0.2454
    15 H(1)   Bbb    -0.1185   -63.226   -22.561   -21.090 -0.2578 -0.0897  0.9620
              Bcc     0.2385   127.250    45.406    42.446  0.1021  0.9876  0.1195
 

 ---------------------------------------------------------------------------------

 Calling FoFJK, ICntrl=    100127 FMM=F ISym2X=0 I1Cent= 0 IOpClX= 1 NMat=1 NMatS=1 NMatT=0.
 Full mass-weighted force constant matrix:
 Low frequencies ----1204.9226 -335.5555 -127.7027  -77.7830  -59.2989   -0.0012
 Low frequencies ---   -0.0011   -0.0008   23.6012
 ******    3 imaginary frequencies (negative Signs) ****** 
 Diagonal vibrational polarizability:
       31.1910078      63.9810034     133.9595638
 Harmonic frequencies (cm**-1), IR intensities (KM/Mole), Raman scattering
 activities (A**4/AMU), depolarization ratios for plane and unpolarized
 incident light, reduced masses (AMU), force constants (mDyne/A),
 and normal coordinates:
                      1                      2                      3
                      A                      A                      A
 Frequencies --  -1204.9219              -331.9858               -89.6539
 Red. masses --      1.1556                 1.0773                 5.5869
 Frc consts  --      0.9885                 0.0700                 0.0265
 IR Inten    --    386.3627                97.6722                 0.1083
  Atom  AN      X      Y      Z        X      Y      Z        X      Y      Z
     1   8    -0.01  -0.01   0.00    -0.04  -0.00  -0.04    -0.12  -0.04  -0.21
     2   1     0.07   0.20   0.01     0.48  -0.20   0.79    -0.23   0.01  -0.38
     3   6     0.00  -0.00   0.00     0.01  -0.00  -0.02     0.00   0.02   0.01
     4   1    -0.00   0.00   0.00     0.01  -0.01  -0.03    -0.01  -0.03   0.05
     5   6     0.00  -0.00  -0.00     0.01   0.01  -0.01     0.02   0.07  -0.04
     6   6    -0.00   0.00   0.00     0.00   0.01   0.00     0.00   0.04   0.01
     7   8    -0.00  -0.00   0.00    -0.00  -0.00   0.02    -0.09  -0.08   0.33
     8   8     0.00  -0.00  -0.00     0.00   0.00   0.00     0.07   0.12  -0.23
     9   6    -0.00   0.01  -0.00    -0.00   0.01   0.01    -0.02   0.00   0.01
    10   6    -0.01  -0.11  -0.01    -0.00  -0.00  -0.00     0.17  -0.11   0.15
    11   1    -0.00  -0.00   0.03     0.01   0.01   0.01    -0.13  -0.00   0.05
    12   1     0.01   0.01  -0.00    -0.00   0.00   0.01    -0.14   0.02   0.02
    13   1     0.05   0.14   0.02     0.01   0.08   0.04     0.15  -0.01   0.41
    14   1    -0.02   0.12  -0.04     0.02  -0.11   0.01     0.39  -0.27   0.12
    15   1     0.19   0.93   0.03    -0.17   0.04  -0.24     0.03  -0.09  -0.03
                      4                      5                      6
                      A                      A                      A
 Frequencies --     39.9985                82.4802               130.5513
 Red. masses --      4.6217                 4.2346                 3.3979
 Frc consts  --      0.0044                 0.0170                 0.0341
 IR Inten    --      6.5202                 7.9268                 1.3179
  Atom  AN      X      Y      Z        X      Y      Z        X      Y      Z
     1   8     0.14  -0.06   0.12    -0.14   0.12  -0.04     0.02   0.10  -0.07
     2   1     0.21  -0.12   0.24    -0.07   0.10   0.07     0.09   0.29  -0.02
     3   6    -0.15  -0.17   0.25    -0.02   0.26   0.14     0.04  -0.18  -0.04
     4   1    -0.23  -0.30   0.47    -0.05   0.50   0.29     0.04  -0.44  -0.10
     5   6    -0.07  -0.01   0.01     0.01  -0.03  -0.03     0.04   0.12   0.03
     6   6    -0.02   0.08  -0.13     0.03  -0.11  -0.10     0.04   0.07   0.02
     7   8    -0.02   0.09  -0.16     0.07  -0.10  -0.17     0.19  -0.02   0.01
     8   8     0.01   0.10  -0.18     0.01  -0.13  -0.03    -0.12  -0.00  -0.01
     9   6    -0.05   0.03  -0.02    -0.00  -0.08   0.04    -0.13  -0.15  -0.04
    10   6     0.11  -0.05   0.10     0.07   0.06   0.18    -0.07   0.07   0.12
    11   1    -0.13   0.03   0.02     0.05  -0.09  -0.06    -0.18  -0.19  -0.33
    12   1    -0.15   0.04  -0.01    -0.11  -0.17   0.10    -0.14  -0.42   0.09
    13   1     0.07  -0.07   0.28     0.09   0.24   0.36    -0.07   0.11   0.19
    14   1     0.27  -0.10   0.06     0.27  -0.03   0.14     0.06   0.16   0.06
    15   1     0.12  -0.04   0.03    -0.13   0.10   0.05    -0.12   0.07   0.15
                      7                      8                      9
                      A                      A                      A
 Frequencies --    177.7393               254.5375               313.9425
 Red. masses --      6.0394                 3.6426                 3.1859
 Frc consts  --      0.1124                 0.1390                 0.1850
 IR Inten    --     10.4261                 2.3482                16.4170
  Atom  AN      X      Y      Z        X      Y      Z        X      Y      Z
     1   8     0.42   0.11  -0.17     0.00  -0.01  -0.01    -0.02  -0.01   0.03
     2   1     0.56   0.42  -0.03     0.01  -0.08   0.02    -0.08  -0.13  -0.03
     3   6    -0.09   0.07  -0.01     0.02   0.04  -0.13     0.00  -0.02  -0.05
     4   1    -0.07   0.21  -0.03     0.15   0.18  -0.55     0.05  -0.09  -0.22
     5   6    -0.10  -0.11   0.00    -0.13  -0.10   0.30    -0.05   0.06   0.13
     6   6    -0.10  -0.11   0.03    -0.07  -0.02   0.16    -0.03  -0.05   0.01
     7   8    -0.14  -0.13   0.09    -0.02   0.09  -0.10     0.19  -0.16  -0.03
     8   8    -0.04  -0.08  -0.02    -0.01   0.05  -0.03    -0.05  -0.04  -0.12
     9   6    -0.04   0.05   0.03     0.01  -0.05  -0.12    -0.05   0.22   0.07
    10   6    -0.03   0.14   0.07     0.15  -0.03   0.03    -0.03   0.01  -0.01
    11   1     0.07   0.06   0.02    -0.06  -0.07  -0.25     0.07   0.28   0.47
    12   1    -0.12   0.05   0.04     0.03  -0.19  -0.05    -0.20   0.60  -0.09
    13   1    -0.04   0.11   0.06     0.12   0.06   0.29    -0.05  -0.01   0.03
    14   1    -0.02   0.18   0.06     0.41  -0.12  -0.03    -0.05  -0.14   0.03
    15   1     0.08   0.10   0.01     0.06   0.01  -0.05     0.04   0.01  -0.12
                     10                     11                     12
                      A                      A                      A
 Frequencies --    396.5725               440.0952               566.3113
 Red. masses --      1.6971                 1.7631                 3.3608
 Frc consts  --      0.1573                 0.2012                 0.6350
 IR Inten    --     17.4302                31.1890                 4.8479
  Atom  AN      X      Y      Z        X      Y      Z        X      Y      Z
     1   8     0.03  -0.03   0.03    -0.01   0.07  -0.03     0.02   0.12   0.01
     2   1    -0.08   0.06  -0.16    -0.01  -0.43   0.11    -0.10  -0.37  -0.03
     3   6    -0.04  -0.01   0.00    -0.07  -0.00  -0.01     0.20  -0.01   0.06
     4   1    -0.07  -0.10   0.08    -0.09  -0.09   0.03     0.19   0.21   0.17
     5   6    -0.01   0.08  -0.07    -0.05   0.08  -0.04     0.18  -0.18  -0.02
     6   6    -0.02   0.01   0.00    -0.04   0.00  -0.00     0.04   0.01   0.02
     7   8     0.01  -0.03   0.02     0.02  -0.05   0.01    -0.05   0.07   0.02
     8   8    -0.07  -0.05   0.11    -0.05  -0.03   0.09    -0.13  -0.03  -0.01
     9   6     0.02   0.04  -0.08     0.02   0.02  -0.04    -0.18   0.06  -0.08
    10   6     0.06   0.02  -0.07     0.15  -0.03   0.01    -0.04  -0.06  -0.02
    11   1     0.07   0.05  -0.07     0.02   0.02  -0.07    -0.11   0.09   0.09
    12   1     0.10   0.07  -0.11     0.05  -0.03  -0.02    -0.19   0.19  -0.14
    13   1     0.10   0.43   0.38     0.01  -0.54  -0.08    -0.15  -0.26   0.29
    14   1     0.46  -0.44  -0.09     0.06   0.32  -0.04     0.22  -0.25  -0.06
    15   1    -0.18   0.05  -0.24     0.55  -0.00   0.09     0.32   0.01  -0.18
                     13                     14                     15
                      A                      A                      A
 Frequencies --    602.0804               627.7859               649.9127
 Red. masses --      3.2326                 4.5518                 1.2482
 Frc consts  --      0.6904                 1.0570                 0.3106
 IR Inten    --      1.4202                10.5717               104.3513
  Atom  AN      X      Y      Z        X      Y      Z        X      Y      Z
     1   8     0.04   0.27   0.05    -0.01  -0.04  -0.02    -0.03   0.01   0.00
     2   1    -0.04   0.10  -0.01     0.09   0.20   0.08     0.17   0.59   0.15
     3   6    -0.05   0.00  -0.01     0.16  -0.00   0.05    -0.01  -0.00  -0.00
     4   1    -0.03  -0.14  -0.09     0.18  -0.56  -0.13    -0.01   0.09   0.04
     5   6    -0.05   0.10   0.04     0.12   0.31   0.14    -0.00  -0.05  -0.03
     6   6     0.00  -0.02  -0.01     0.01  -0.11  -0.02    -0.00   0.02   0.02
     7   8    -0.03   0.00  -0.01    -0.24   0.06  -0.06     0.03   0.00   0.01
     8   8     0.05  -0.01  -0.03    -0.04  -0.19  -0.06    -0.03   0.00   0.02
     9   6     0.04  -0.12   0.08     0.02  -0.01  -0.03    -0.02   0.02  -0.05
    10   6    -0.02  -0.21  -0.09     0.05   0.03   0.01     0.07  -0.07  -0.03
    11   1    -0.06  -0.11   0.21     0.17   0.04   0.23    -0.04   0.05   0.21
    12   1     0.07   0.02   0.00    -0.11   0.22  -0.11     0.02   0.23  -0.16
    13   1     0.01  -0.16  -0.11     0.04  -0.02  -0.02     0.02  -0.21  -0.01
    14   1    -0.10  -0.77   0.03     0.06   0.30  -0.04     0.13   0.18  -0.10
    15   1    -0.17  -0.14  -0.15    -0.08  -0.04   0.21    -0.33  -0.19   0.45
                     16                     17                     18
                      A                      A                      A
 Frequencies --    781.9821               818.6136               862.3168
 Red. masses --      3.3099                 1.4258                 2.4701
 Frc consts  --      1.1925                 0.5629                 1.0822
 IR Inten    --     68.2707                59.0472                14.3686
  Atom  AN      X      Y      Z        X      Y      Z        X      Y      Z
     1   8     0.00   0.00  -0.00     0.00  -0.00  -0.00     0.01   0.01  -0.00
     2   1     0.01  -0.01   0.01    -0.01  -0.03  -0.01    -0.06  -0.28  -0.03
     3   6     0.02   0.02  -0.07     0.00  -0.15  -0.05    -0.10   0.04  -0.01
     4   1    -0.27  -0.26   0.80    -0.02   0.93   0.29    -0.08  -0.11  -0.14
     5   6     0.05   0.05  -0.14    -0.00   0.09   0.03    -0.06  -0.06  -0.05
     6   6    -0.12  -0.13   0.36     0.00   0.00   0.00     0.08   0.07   0.06
     7   8     0.03   0.03  -0.08    -0.01   0.02   0.00     0.05   0.14   0.07
     8   8     0.03   0.03  -0.08    -0.02  -0.03  -0.02    -0.06  -0.12  -0.07
     9   6     0.00  -0.01   0.00     0.02  -0.02   0.01     0.04  -0.15   0.02
    10   6     0.00  -0.00   0.01     0.01   0.01  -0.00     0.02   0.04  -0.01
    11   1    -0.00  -0.01   0.02     0.04  -0.01   0.06     0.13  -0.08   0.57
    12   1    -0.04   0.01   0.00    -0.02   0.03  -0.01    -0.11   0.34  -0.19
    13   1     0.01   0.01  -0.04     0.04   0.05  -0.05     0.14   0.36  -0.09
    14   1    -0.06  -0.01   0.03    -0.02   0.02   0.01     0.06   0.26  -0.06
    15   1    -0.04   0.01  -0.06     0.00   0.01  -0.02     0.11   0.01  -0.08
                     19                     20                     21
                      A                      A                      A
 Frequencies --    875.1611               912.7231               963.3096
 Red. masses --      1.8541                 1.8873                 2.1892
 Frc consts  --      0.8367                 0.9264                 1.1969
 IR Inten    --     19.8413                10.7588                 7.7923
  Atom  AN      X      Y      Z        X      Y      Z        X      Y      Z
     1   8     0.00  -0.00   0.00    -0.00  -0.02   0.01     0.02   0.02  -0.00
     2   1    -0.00  -0.01  -0.00    -0.01   0.20  -0.06    -0.05  -0.22  -0.02
     3   6     0.05   0.05  -0.16     0.03   0.01   0.01     0.09  -0.00   0.03
     4   1    -0.29  -0.28   0.87     0.03  -0.05   0.01     0.09  -0.02   0.03
     5   6    -0.05  -0.05   0.14     0.02  -0.05  -0.00     0.05  -0.00   0.02
     6   6     0.05   0.05  -0.12    -0.03   0.05  -0.00    -0.11  -0.00  -0.04
     7   8    -0.01  -0.00   0.03     0.01   0.02   0.01    -0.02  -0.11  -0.04
     8   8    -0.01  -0.02   0.02    -0.14  -0.05  -0.04    -0.05   0.14   0.04
     9   6     0.00  -0.01   0.00     0.03   0.05   0.07    -0.03  -0.11   0.07
    10   6    -0.00   0.00  -0.00     0.17   0.01  -0.01     0.08   0.00  -0.05
    11   1     0.01  -0.00   0.03     0.01   0.01  -0.28    -0.39  -0.10   0.38
    12   1     0.01   0.02  -0.01    -0.21  -0.23   0.24     0.06   0.15  -0.07
    13   1    -0.00   0.02   0.02     0.25  -0.05  -0.49     0.26   0.50  -0.23
    14   1     0.02   0.01  -0.01    -0.36  -0.21   0.17     0.06   0.34  -0.11
    15   1     0.02  -0.01   0.02    -0.24   0.10  -0.28    -0.05  -0.05  -0.05
                     22                     23                     24
                      A                      A                      A
 Frequencies --   1037.9735              1132.9621              1157.7124
 Red. masses --      1.1605                 4.0728                 1.8339
 Frc consts  --      0.7367                 3.0801                 1.4482
 IR Inten    --     94.3475                 3.2214                 2.5746
  Atom  AN      X      Y      Z        X      Y      Z        X      Y      Z
     1   8    -0.01  -0.00  -0.02     0.01   0.01  -0.00    -0.00  -0.01   0.00
     2   1     0.08  -0.05   0.13    -0.01  -0.06   0.01     0.01   0.11  -0.01
     3   6     0.01   0.00   0.00     0.07   0.00   0.03     0.02   0.00   0.00
     4   1     0.01  -0.00   0.00     0.08  -0.00   0.02     0.02   0.00   0.01
     5   6     0.01  -0.01  -0.00     0.04  -0.03  -0.00     0.01  -0.01   0.00
     6   6    -0.02   0.01   0.01    -0.15   0.09  -0.03    -0.03   0.02  -0.00
     7   8     0.00   0.00  -0.00     0.00  -0.04  -0.01     0.00   0.00  -0.00
     8   8    -0.04  -0.01  -0.03    -0.17   0.04  -0.05    -0.06   0.00  -0.06
     9   6     0.03   0.03   0.05     0.35  -0.03  -0.12     0.06  -0.03   0.20
    10   6    -0.02  -0.00  -0.06    -0.13  -0.05   0.19    -0.02   0.05  -0.13
    11   1     0.02   0.01  -0.12     0.27  -0.01   0.09     0.06  -0.06  -0.06
    12   1    -0.01  -0.11   0.12     0.61   0.19  -0.27     0.22  -0.15   0.23
    13   1     0.09   0.37  -0.01    -0.15  -0.10   0.16    -0.25  -0.41   0.36
    14   1     0.02  -0.30  -0.00    -0.21  -0.06   0.23     0.50   0.22  -0.32
    15   1     0.44  -0.14   0.69    -0.03  -0.03  -0.02    -0.04   0.09  -0.14
                     25                     26                     27
                      A                      A                      A
 Frequencies --   1208.5339              1306.8297              1373.9230
 Red. masses --      1.6196                 1.4836                 2.4659
 Frc consts  --      1.3938                 1.4928                 2.7425
 IR Inten    --      6.8742               188.6038               395.2775
  Atom  AN      X      Y      Z        X      Y      Z        X      Y      Z
     1   8    -0.02  -0.05  -0.00     0.01   0.01   0.00    -0.00  -0.01   0.00
     2   1     0.08   0.27   0.04    -0.03  -0.09  -0.02     0.01   0.05  -0.00
     3   6     0.01  -0.00   0.00     0.04  -0.00   0.01     0.04  -0.00   0.01
     4   1     0.01  -0.00   0.00     0.04   0.00   0.01     0.05   0.00   0.02
     5   6     0.00   0.00   0.00     0.01  -0.01   0.00     0.01  -0.01   0.00
     6   6    -0.03   0.01  -0.01    -0.14   0.10  -0.01    -0.19   0.15  -0.01
     7   8    -0.00  -0.02  -0.01     0.01  -0.01  -0.00     0.03   0.02   0.02
     8   8     0.01   0.05   0.02     0.06  -0.01   0.01     0.12  -0.15  -0.03
     9   6    -0.02  -0.13  -0.02    -0.04  -0.03   0.00    -0.13   0.01   0.01
    10   6     0.04   0.16  -0.02    -0.01  -0.05  -0.02     0.03   0.05   0.01
    11   1     0.17  -0.07   0.28     0.85   0.03  -0.07    -0.31   0.00   0.06
    12   1    -0.20   0.19  -0.14    -0.41  -0.03   0.06     0.85  -0.06  -0.10
    13   1    -0.10  -0.38  -0.07     0.02   0.08   0.02     0.04  -0.02  -0.11
    14   1    -0.05  -0.56   0.13     0.05   0.14  -0.07    -0.07  -0.13   0.07
    15   1     0.32   0.25   0.03    -0.11  -0.07   0.02     0.07   0.03  -0.01
                     28                     29                     30
                      A                      A                      A
 Frequencies --   1437.6542              1471.3252              1516.5383
 Red. masses --      1.4605                 1.1315                 1.0974
 Frc consts  --      1.7785                 1.4432                 1.4870
 IR Inten    --     72.6050                10.2521                30.6077
  Atom  AN      X      Y      Z        X      Y      Z        X      Y      Z
     1   8    -0.00   0.00  -0.00    -0.00   0.00   0.00     0.00   0.00  -0.00
     2   1     0.00   0.00   0.01     0.00   0.01   0.00    -0.01  -0.01  -0.01
     3   6    -0.02   0.00  -0.01    -0.00  -0.00  -0.00    -0.01   0.00  -0.00
     4   1    -0.02  -0.00  -0.01    -0.00  -0.00  -0.00    -0.01   0.00  -0.00
     5   6    -0.00   0.00   0.00    -0.00  -0.00   0.00    -0.00   0.00   0.00
     6   6     0.09  -0.06   0.01     0.00  -0.00  -0.00     0.03  -0.01   0.01
     7   8    -0.02  -0.01  -0.01    -0.00  -0.00  -0.00    -0.01  -0.01  -0.01
     8   8    -0.05   0.06  -0.02    -0.00   0.00  -0.00    -0.02   0.02  -0.01
     9   6    -0.12  -0.02   0.05    -0.01  -0.02   0.01    -0.02   0.04  -0.06
    10   6     0.03  -0.01   0.02     0.07   0.00  -0.07     0.01   0.01  -0.01
    11   1     0.60   0.02  -0.24     0.02  -0.02  -0.02     0.22   0.12   0.66
    12   1     0.65   0.19  -0.18     0.04   0.05  -0.03     0.19  -0.63   0.26
    13   1     0.09   0.07  -0.16    -0.08   0.06   0.69    -0.00   0.00   0.02
    14   1    -0.01  -0.02   0.03    -0.68   0.12   0.14    -0.03  -0.02   0.01
    15   1     0.02  -0.01   0.01    -0.00  -0.04   0.01    -0.02   0.00   0.01
                     31                     32                     33
                      A                      A                      A
 Frequencies --   1658.1625              1897.8435              2335.5423
 Red. masses --      1.0579                11.9726                 5.5405
 Frc consts  --      1.7137                25.4073                17.8063
 IR Inten    --    252.7314               276.5507                91.7851
  Atom  AN      X      Y      Z        X      Y      Z        X      Y      Z
     1   8    -0.03  -0.00   0.02     0.00   0.00  -0.00    -0.00  -0.00   0.00
     2   1     0.11   0.51   0.05    -0.02  -0.12  -0.04     0.00   0.01   0.00
     3   6     0.00   0.00   0.00    -0.07   0.01  -0.02    -0.35   0.03  -0.11
     4   1     0.00   0.00   0.00    -0.11   0.02  -0.03    -0.73   0.06  -0.22
     5   6     0.00   0.00   0.00     0.04  -0.02   0.01     0.50  -0.03   0.15
     6   6     0.00   0.01   0.01     0.37   0.61   0.34    -0.09  -0.01  -0.03
     7   8    -0.00  -0.01  -0.01    -0.25  -0.39  -0.23     0.00   0.01   0.00
     8   8     0.00  -0.00   0.00     0.01  -0.07  -0.02    -0.00   0.00   0.00
     9   6     0.00   0.00  -0.00     0.02   0.00   0.01     0.00  -0.00  -0.00
    10   6    -0.02  -0.04   0.01    -0.01   0.01  -0.00    -0.00  -0.00   0.00
    11   1     0.02   0.01   0.00    -0.15  -0.02  -0.10     0.00  -0.00   0.00
    12   1    -0.03  -0.03   0.02    -0.09   0.11  -0.01    -0.00  -0.00   0.00
    13   1     0.05   0.18   0.01    -0.03  -0.05   0.02     0.00   0.00   0.00
    14   1     0.01   0.14  -0.03     0.02  -0.02  -0.01     0.00   0.00  -0.00
    15   1     0.58  -0.34  -0.47    -0.10   0.03   0.06     0.00  -0.00  -0.00
                     34                     35                     36
                      A                      A                      A
 Frequencies --   3108.3279              3156.0263              3166.0483
 Red. masses --      1.0584                 1.0626                 1.0944
 Frc consts  --      6.0248                 6.2356                 6.4635
 IR Inten    --     11.3027                 2.0122                 3.3724
  Atom  AN      X      Y      Z        X      Y      Z        X      Y      Z
     1   8     0.00  -0.00  -0.00    -0.00   0.00   0.00     0.00   0.00   0.00
     2   1    -0.00  -0.00   0.00     0.00   0.00   0.00    -0.00   0.00   0.00
     3   6    -0.00   0.00  -0.00    -0.00  -0.00  -0.00    -0.00  -0.00   0.00
     4   1    -0.00   0.00  -0.00     0.00   0.00   0.00     0.00  -0.00   0.00
     5   6     0.00  -0.00   0.00     0.00  -0.00   0.00     0.00   0.00  -0.00
     6   6    -0.00   0.00   0.00     0.00   0.00   0.00    -0.00  -0.00  -0.00
     7   8    -0.00  -0.00  -0.00    -0.00  -0.00  -0.00     0.00   0.00   0.00
     8   8     0.00  -0.00  -0.00     0.00  -0.00   0.00    -0.00  -0.00  -0.00
     9   6     0.01  -0.05   0.05     0.00   0.03   0.03    -0.00  -0.07  -0.05
    10   6    -0.00   0.00  -0.00     0.03  -0.02  -0.04     0.02  -0.01  -0.02
    11   1    -0.06   0.81  -0.07     0.02  -0.22   0.03    -0.04   0.51  -0.07
    12   1    -0.08  -0.27  -0.50    -0.05  -0.16  -0.33     0.10   0.31   0.65
    13   1     0.04  -0.01   0.01    -0.58   0.16  -0.13    -0.33   0.10  -0.07
    14   1     0.00   0.00  -0.00     0.19   0.11   0.62     0.08   0.04   0.27
    15   1     0.00   0.01   0.00     0.00  -0.01  -0.01     0.00  -0.00  -0.00
                     37                     38                     39
                      A                      A                      A
 Frequencies --   3249.6042              3532.6090              3840.7078
 Red. masses --      1.1097                 1.1799                 1.0639
 Frc consts  --      6.9040                 8.6753                 9.2465
 IR Inten    --      2.8590                55.3086                74.9511
  Atom  AN      X      Y      Z        X      Y      Z        X      Y      Z
     1   8     0.00  -0.00   0.00    -0.00   0.00   0.00    -0.05   0.01   0.03
     2   1    -0.00  -0.00  -0.00     0.00  -0.00  -0.00     0.82  -0.17  -0.55
     3   6     0.00   0.00   0.00    -0.11   0.01  -0.03     0.00   0.00   0.00
     4   1     0.00   0.00  -0.00     0.95  -0.07   0.29    -0.00  -0.00  -0.00
     5   6    -0.00   0.00  -0.00     0.04  -0.00   0.01     0.00   0.00   0.00
     6   6     0.00  -0.00  -0.00    -0.00   0.00  -0.00    -0.00  -0.00  -0.00
     7   8     0.00   0.00   0.00    -0.00  -0.00  -0.00    -0.00   0.00   0.00
     8   8     0.00   0.00   0.00    -0.00   0.00   0.00    -0.00   0.00   0.00
     9   6    -0.00  -0.00  -0.01    -0.00   0.00  -0.00     0.00  -0.00   0.00
    10   6    -0.07   0.01  -0.07     0.00  -0.00   0.00     0.00   0.00  -0.00
    11   1    -0.00   0.00  -0.00     0.00  -0.00   0.00    -0.00   0.00   0.00
    12   1     0.01   0.03   0.06     0.00  -0.00  -0.00    -0.00   0.00  -0.00
    13   1     0.66  -0.20   0.13     0.00  -0.00  -0.00    -0.00  -0.00   0.00
    14   1     0.19   0.13   0.66    -0.00   0.00  -0.00     0.00  -0.00   0.00
    15   1    -0.01   0.00  -0.01    -0.00   0.00   0.00    -0.02  -0.02   0.01

 -------------------
 - Thermochemistry -
 -------------------
 Temperature   298.150 Kelvin.  Pressure   1.00000 Atm.
 Atom     1 has atomic number  8 and mass  15.99491
 Atom     2 has atomic number  1 and mass   1.00783
 Atom     3 has atomic number  6 and mass  12.00000
 Atom     4 has atomic number  1 and mass   1.00783
 Atom     5 has atomic number  6 and mass  12.00000
 Atom     6 has atomic number  6 and mass  12.00000
 Atom     7 has atomic number  8 and mass  15.99491
 Atom     8 has atomic number  8 and mass  15.99491
 Atom     9 has atomic number  6 and mass  12.00000
 Atom    10 has atomic number  6 and mass  12.00000
 Atom    11 has atomic number  1 and mass   1.00783
 Atom    12 has atomic number  1 and mass   1.00783
 Atom    13 has atomic number  1 and mass   1.00783
 Atom    14 has atomic number  1 and mass   1.00783
 Atom    15 has atomic number  1 and mass   1.00783
 Molecular mass:   115.03952 amu.
 Principal axes and moments of inertia in atomic units:
                           1         2         3
     Eigenvalues --   538.777281519.763481850.97996
           X            0.99973  -0.02318   0.00315
           Y            0.02320   0.99971  -0.00661
           Z           -0.00299   0.00668   0.99997
 This molecule is an asymmetric top.
 Rotational symmetry number  1.
 Warning -- assumption of classical behavior for rotation
           may cause significant error
 Rotational temperatures (Kelvin)      0.16076     0.05699     0.04679
 Rotational constants (GHZ):           3.34970     1.18751     0.97502
    3 imaginary frequencies ignored.
 Zero-point vibrational energy     281627.5 (Joules/Mol)
                                   67.31058 (Kcal/Mol)
 Warning -- explicit consideration of  10 degrees of freedom as
           vibrations may cause significant error
 Vibrational temperatures:     57.55   118.67   187.83   255.73   366.22
          (Kelvin)            451.69   570.58   633.20   814.80   866.26
                              903.24   935.08  1125.10  1177.80  1240.68
                             1259.16  1313.21  1385.99  1493.41  1630.08
                             1665.69  1738.81  1880.24  1976.77  2068.46
                             2116.91  2181.96  2385.73  2730.57  3360.32
                             4472.19  4540.82  4555.24  4675.46  5082.64
                             5525.92
 
 Zero-point correction=                           0.107266 (Hartree/Particle)
 Thermal correction to Energy=                    0.115585
 Thermal correction to Enthalpy=                  0.116530
 Thermal correction to Gibbs Free Energy=         0.072548
 Sum of electronic and zero-point Energies=           -419.847289
 Sum of electronic and thermal Energies=              -419.838970
 Sum of electronic and thermal Enthalpies=            -419.838025
 Sum of electronic and thermal Free Energies=         -419.882007
 
                     E (Thermal)             CV                S
                      KCal/Mol        Cal/Mol-Kelvin    Cal/Mol-Kelvin
 Total                   72.531             28.878             92.566
 Electronic               0.000              0.000              1.377
 Translational            0.889              2.981             40.136
 Rotational               0.889              2.981             28.807
 Vibrational             70.753             22.917             22.246
 Vibration     1          0.594              1.981              5.259
 Vibration     2          0.600              1.961              3.831
 Vibration     3          0.612              1.923              2.938
 Vibration     4          0.628              1.870              2.352
 Vibration     5          0.665              1.755              1.699
 Vibration     6          0.702              1.647              1.341
 Vibration     7          0.763              1.477              0.975
 Vibration     8          0.800              1.383              0.826
 Vibration     9          0.922              1.104              0.511
 Vibration    10          0.960              1.027              0.446
                       Q            Log10(Q)             Ln(Q)
 Total Bot       0.426649D-33        -33.369930        -76.837103
 Total V=0       0.931264D+16         15.969073         36.770149
 Vib (Bot)       0.998106D-47        -47.000823       -108.223395
 Vib (Bot)    1  0.517277D+01          0.713723          1.643408
 Vib (Bot)    2  0.249591D+01          0.397229          0.914653
 Vib (Bot)    3  0.156135D+01          0.193502          0.445554
 Vib (Bot)    4  0.113090D+01          0.053426          0.123018
 Vib (Bot)    5  0.765108D+00         -0.116277         -0.267738
 Vib (Bot)    6  0.600932D+00         -0.221175         -0.509274
 Vib (Bot)    7  0.450566D+00         -0.346242         -0.797251
 Vib (Bot)    8  0.392774D+00         -0.405858         -0.934522
 Vib (Bot)    9  0.272757D+00         -0.564224         -1.299173
 Vib (Bot)   10  0.247475D+00         -0.606469         -1.396446
 Vib (V=0)       0.217861D+03          2.338179          5.383857
 Vib (V=0)    1  0.569688D+01          0.755637          1.739918
 Vib (V=0)    2  0.304550D+01          0.483658          1.113665
 Vib (V=0)    3  0.213946D+01          0.330304          0.760553
 Vib (V=0)    4  0.173651D+01          0.239676          0.551875
 Vib (V=0)    5  0.141400D+01          0.150449          0.346421
 Vib (V=0)    6  0.128174D+01          0.107800          0.248219
 Vib (V=0)    7  0.117306D+01          0.069320          0.159616
 Vib (V=0)    8  0.113582D+01          0.055311          0.127358
 Vib (V=0)    9  0.106956D+01          0.029204          0.067246
 Vib (V=0)   10  0.105789D+01          0.024441          0.056279
 Electronic      0.200000D+01          0.301030          0.693147
 Translational   0.484981D+08          7.685724         17.697035
 Rotational      0.440696D+06          5.644139         12.996111
 ***** Axes restored to original set *****
 -------------------------------------------------------------------
 Center     Atomic                   Forces (Hartrees/Bohr)
 Number     Number              X              Y              Z
 -------------------------------------------------------------------
      1        8           0.005003375   -0.018288591   -0.007457826
      2        1          -0.012477302    0.012333045    0.010552188
      3        6          -0.020420636    0.000861872   -0.005997947
      4        1          -0.000799247    0.000257623   -0.000214941
      5        6           0.024804281   -0.001277258    0.006907843
      6        6          -0.048881458   -0.014626545   -0.020865113
      7        8           0.027987309    0.035483766    0.021144643
      8        8           0.000994929   -0.015000789   -0.005330361
      9        6           0.014834287   -0.004170335    0.002794267
     10        6          -0.002366169   -0.016932553    0.000676119
     11        1           0.000187963   -0.000911181    0.000543861
     12        1           0.000438044    0.000587890    0.001766087
     13        1           0.003023397    0.004111702    0.000501971
     14        1          -0.000786990    0.004278767   -0.002317023
     15        1           0.008458216    0.013292587   -0.002703769
 -------------------------------------------------------------------
 Cartesian Forces:  Max     0.048881458 RMS     0.013812161

 GradGradGradGradGradGradGradGradGradGradGradGradGradGradGradGradGradGrad
 Berny optimization.
 Search for a local minimum.
 Step number   1 out of a maximum of    2
 All quantities printed in internal units (Hartrees-Bohrs-Radians)
 Second derivative matrix not updated -- analytic derivatives used.
 ITU=  0
     Eigenvalues ---   -0.09170  -0.00756  -0.00265   0.00034   0.00114
     Eigenvalues ---    0.00216   0.00735   0.01051   0.01213   0.01956
     Eigenvalues ---    0.02227   0.03220   0.03812   0.04841   0.05725
     Eigenvalues ---    0.06796   0.07304   0.08858   0.09789   0.10986
     Eigenvalues ---    0.11734   0.13187   0.16125   0.17674   0.21046
     Eigenvalues ---    0.25968   0.31194   0.35373   0.44297   0.53701
     Eigenvalues ---    0.66186   0.75088   0.81211   0.85632   0.92071
     Eigenvalues ---    0.97469   0.98363   1.83592   2.89903
 Eigenvalue     1 is  -9.17D-02 should be greater than     0.000000 Eigenvector:
                          Y15       Y10       Y2        X15       Y1
   1                    0.85450  -0.39821   0.14806   0.13883  -0.13168
                          X1        X13       Z14       Z11       Y13
   1                   -0.09322   0.08708  -0.08573   0.06893   0.06498
 Eigenvalue     2 is  -7.56D-03 should be greater than     0.000000 Eigenvector:
                          Z2        Z7        Z1        Z15       X2
   1                    0.44658   0.44533  -0.34836  -0.29919   0.25729
                          X1        Y14       X15       Y2        Z8
   1                   -0.23584  -0.20917  -0.19570  -0.16627  -0.13704
 Eigenvalue     3 is  -2.65D-03 should be greater than     0.000000 Eigenvector:
                          Z2        Z7        X2        Z8        X14
   1                    0.58151  -0.41303   0.34935   0.26831  -0.22738
                          Z13       Y8        X10       X15       X7
   1                   -0.16778  -0.14889  -0.14093  -0.13735   0.12025
 Quadratic step=4.499D-01 exceeds max=3.000D-01 adjusted using Lamda=-1.469D-02.
 Angle between NR and scaled steps=  30.59 degrees.
 Angle between quadratic step and forces=  60.41 degrees.
 Linear search not attempted -- first point.
 B after Tr=    -0.002756   -0.012220   -0.001414
         Rot=    0.999997    0.001674   -0.000170    0.001780 Ang=   0.28 deg.
 Variable       Old X    -DE/DX   Delta X   Delta X   Delta X     New X
                                 (Linear)    (Quad)   (Total)
    X1        4.42561   0.00500   0.00000  -0.04655  -0.03877   4.38683
    Y1        3.13409  -0.01829   0.00000  -0.10669  -0.13662   2.99746
    Z1       -0.62947  -0.00746   0.00000   0.00582  -0.00719  -0.63666
    X2        2.90602  -0.01248   0.00000  -0.01677  -0.00703   2.89899
    Y2        3.36884   0.01233   0.00000   0.11021   0.08897   3.45781
    Z2        0.36491   0.01055   0.00000   0.02806   0.01402   0.37893
    X3       -6.26916  -0.02042   0.00000  -0.03096  -0.03278  -6.30194
    Y3        0.35759   0.00086   0.00000  -0.00987  -0.00295   0.35463
    Z3       -0.97559  -0.00600   0.00000  -0.00693  -0.00740  -0.98298
    X4       -8.18912  -0.00080   0.00000  -0.03258  -0.03413  -8.22324
    Y4        0.49502   0.00026   0.00000  -0.01688  -0.00510   0.48992
    Z4       -1.56379  -0.00021   0.00000  -0.00921  -0.00946  -1.57325
    X5       -4.11077   0.02480   0.00000  -0.01169  -0.01372  -4.12449
    Y5        0.20241  -0.00128   0.00000   0.02338   0.02478   0.22720
    Z5       -0.31241   0.00691   0.00000  -0.00269  -0.00347  -0.31588
    X6       -1.49518  -0.04888   0.00000  -0.04169  -0.04373  -1.53891
    Y6        0.11701  -0.01463   0.00000   0.03172   0.02667   0.14369
    Z6        0.51688  -0.02087   0.00000  -0.00926  -0.01066   0.50622
    X7       -0.43381   0.02799   0.00000   0.02381   0.02836  -0.40545
    Y7        1.86327   0.03548   0.00000   0.04202   0.03635   1.89962
    Z7        1.50944   0.02114   0.00000   0.01588   0.00821   1.51765
    X8       -0.46212   0.00099   0.00000   0.00771  -0.00260  -0.46472
    Y8       -2.12872  -0.01500   0.00000   0.00332  -0.00712  -2.13584
    Z8        0.05108  -0.00533   0.00000  -0.01180  -0.00595   0.04514
    X9        2.11933   0.01483   0.00000   0.04271   0.03134   2.15067
    Y9       -2.48718  -0.00417   0.00000  -0.01152  -0.02858  -2.51575
    Z9        0.83550   0.00279   0.00000   0.00915   0.01538   0.85088
   X10        3.96493  -0.00237   0.00000   0.01770   0.00854   3.97348
   Y10       -1.56620  -0.01693   0.00000  -0.11458  -0.14472  -1.71092
   Z10       -1.11664   0.00068   0.00000  -0.00692  -0.00403  -1.12067
   X11        2.28477   0.00019   0.00000   0.02077   0.00218   2.28695
   Y11       -4.53298  -0.00091   0.00000  -0.01481  -0.03161  -4.56459
   Z11        1.06444   0.00054   0.00000   0.00491   0.01795   1.08239
   X12        2.41017   0.00044   0.00000   0.03115   0.02368   2.43384
   Y12       -1.58046   0.00059   0.00000  -0.00074  -0.01267  -1.59312
   Z12        2.66571   0.00177   0.00000   0.01122   0.01427   2.67998
   X13        5.89353   0.00302   0.00000   0.06686   0.05639   5.94992
   Y13       -2.16229   0.00411   0.00000   0.07720   0.04133  -2.12096
   Z13       -0.71995   0.00050   0.00000  -0.01142  -0.00784  -0.72779
   X14        3.39458  -0.00079   0.00000   0.00099  -0.00956   3.38502
   Y14       -1.96252   0.00428   0.00000   0.08041   0.04580  -1.91672
   Z14       -3.05319  -0.00232   0.00000  -0.02853  -0.02476  -3.07795
   X15        4.23220   0.00846   0.00000   0.03072   0.03182   4.26402
   Y15        1.04899   0.01329   0.00000   0.13618   0.10546   1.15445
   Z15       -1.00555  -0.00270   0.00000   0.01774   0.01094  -0.99461
         Item               Value     Threshold  Converged?
 Maximum Force            0.048881     0.000450     NO 
 RMS     Force            0.013812     0.000300     NO 
 Maximum Displacement     0.144723     0.001800     NO 
 RMS     Displacement     0.042679     0.001200     NO 
 Predicted change in Energy=-1.207720D-02
 GradGradGradGradGradGradGradGradGradGradGradGradGradGradGradGradGradGrad


 ----------------------------------------------------------------------

 Electric dipole moment (input orientation):
 (Debye = 10**-18 statcoulomb cm , SI units = C m)
                  (au)            (Debye)         (10**-30 SI)
   Tot        0.184134D+01      0.468021D+01      0.156115D+02
   x         -0.952990D+00     -0.242226D+01     -0.807978D+01
   y         -0.157495D+01     -0.400314D+01     -0.133530D+02
   z          0.430023D-01      0.109301D+00      0.364589D+00

 Dipole polarizability, Alpha (input orientation).
 (esu units = cm**3 , SI units = C**2 m**2 J**-1)
 Alpha(0;0):
               (au)            (10**-24 esu)      (10**-40 SI)
   iso        0.700811D+02      0.103849D+02      0.115548D+02
   aniso      0.379458D+02      0.562299D+01      0.625642D+01
   xx         0.889778D+02      0.131852D+02      0.146705D+02
   yx        -0.633617D+00     -0.938924D-01     -0.104469D+00
   yy         0.725624D+02      0.107526D+02      0.119639D+02
   zx         0.786979D+01      0.116618D+01      0.129755D+01
   zy         0.273696D+01      0.405575D+00      0.451264D+00
   zz         0.487029D+02      0.721703D+01      0.803003D+01

 ----------------------------------------------------------------------

 Dipole orientation:
     8          1.58568967         -1.55928781         -4.98587417
     1          0.87694841          0.01550470         -4.37697439
     6         -5.28781760          1.97939658          2.91598424
     1         -7.06910701          2.34600068          3.77837614
     6         -3.28402721          1.56872461          1.94711446
     6         -0.88692363          1.12224854          0.68582171
     8         -0.34505484          2.00994965         -1.33394415
     8          0.60611374         -0.36330720          2.06112533
     6          3.07290832         -0.91124876          1.05000793
     6          3.02670056         -3.11676643         -0.73851944
     1          4.19850374         -1.37025675          2.71957718
     1          3.84262627          0.78689358          0.16667972
     1          4.91365773         -3.78167818         -1.21755204
     1          1.77480724         -4.63942706         -0.14956746
     1          2.15023429         -2.39176341         -3.11110665

 Electric dipole moment (dipole orientation):
 (Debye = 10**-18 statcoulomb cm , SI units = C m)
                  (au)            (Debye)         (10**-30 SI)
   Tot        0.184134D+01      0.468021D+01      0.156115D+02
   x          0.000000D+00      0.000000D+00      0.000000D+00
   y          0.000000D+00      0.000000D+00      0.000000D+00
   z          0.184134D+01      0.468021D+01      0.156115D+02

 Dipole polarizability, Alpha (dipole orientation).
 (esu units = cm**3 , SI units = C**2 m**2 J**-1)
 Alpha(0;0):
               (au)            (10**-24 esu)      (10**-40 SI)
   iso        0.700811D+02      0.103849D+02      0.115548D+02
   aniso      0.379458D+02      0.562299D+01      0.625642D+01
   xx         0.803111D+02      0.119009D+02      0.132415D+02
   yx        -0.134577D+02     -0.199422D+01     -0.221887D+01
   yy         0.538462D+02      0.797919D+01      0.887804D+01
   zx        -0.951381D+01     -0.140980D+01     -0.156862D+01
   zy        -0.248984D+01     -0.368956D+00     -0.410519D+00
   zz         0.760859D+02      0.112748D+02      0.125449D+02

 ----------------------------------------------------------------------
 1\1\GINC-AJ\Freq\UM062X\6-31+G\C5H7O3(2)\AAYUSH\20-Jun-2025\0\\# freq 
 6-31+g m062x\\Title Card Required\\0,2\O,2.34193,1.658488,-0.333101\H,
 1.537799,1.782713,0.193102\C,-3.317496,0.189227,-0.516258\H,-4.333494,
 0.261954,-0.827522\C,-2.175325,0.107113,-0.165318\C,-0.791216,0.061921
 ,0.273522\O,-0.229562,0.986,0.79876\O,-0.244543,-1.126469,0.027032\C,1
 .121501,-1.316157,0.442125\C,2.098152,-0.828798,-0.5909\H,1.209047,-2.
 398752,0.563276\H,1.275405,-0.836341,1.410634\H,3.118723,-1.144236,-0.
 380979\H,1.796332,-1.038523,-1.615677\H,2.239584,0.555101,-0.532113\\V
 ersion=ES64L-G16RevA.03\State=2-A\HF=-419.954555\S2=0.759697\S2-1=0.\S
 2A=0.750045\RMSD=6.433e-09\RMSF=1.381e-02\ZeroPoint=0.1072662\Thermal=
 0.1155853\Dipole=-0.9529899,-1.5749546,0.0430023\DipoleDeriv=-0.501733
 5,0.1105905,-0.1194365,0.0816839,-0.2060232,0.0501483,-0.0980409,0.054
 3769,-0.5817164,0.3156967,-0.0528864,0.0943699,0.0576126,0.3825769,0.0
 037624,0.074207,0.0512289,0.3098205,-0.2071377,-0.0032907,0.0136474,-0
 .0081097,-0.2063234,0.0014063,0.0125429,-0.0001113,-0.1951288,0.272496
 5,-0.0014724,0.0037037,-0.0024449,0.2653437,0.0051486,0.0053065,0.0056
 889,0.2523786,-0.7072712,0.0524495,-0.1734402,0.078639,-0.1023138,-0.0
 128215,-0.2255768,-0.0076354,-0.1124444,2.0449424,-0.184486,0.3635229,
 -0.5951217,1.6107336,0.3496845,0.2933588,0.3853789,0.6754713,-0.928078
 5,-0.2100836,-0.1968834,-0.079688,-0.8743196,-0.219224,-0.1190292,-0.2
 715808,-0.5359724,-1.2920835,0.4202907,0.006525,0.6938768,-0.9878256,-
 0.0923498,-0.0112989,-0.0676954,-0.4055344,0.8169751,-0.1322527,-0.012
 0732,-0.2565987,0.0795162,0.0335901,0.0996898,-0.0631224,0.2452333,-0.
 0400161,0.1300556,0.0075082,0.1860652,0.6978417,0.0392681,0.0227612,0.
 0260411,-0.004417,-0.007354,-0.0689365,0.0261776,0.0469596,-0.0396051,
 0.0346376,0.0129118,0.046533,0.1034752,-0.0064063,0.0241946,0.0310407,
 -0.011207,0.087991,-0.0883964,-0.0302077,-0.0161435,-0.0143381,-0.0477
 469,0.00279,-0.0100669,0.0577098,0.0029467,0.010588,-0.024552,-0.00190
 32,0.0766766,0.0801642,-0.0130119,-0.0499547,-0.0550004,-0.0161636,-0.
 0557719,0.0011381,0.026627,-0.0215833,0.2075528,-0.0739508,0.0153595,-
 0.1943767,-0.6943754,-0.0596704,-0.0132106,-0.1676827,0.2080793\Polar=
 88.9778437,-0.6336172,72.562391,7.8697889,2.7369588,48.7029242\Quadrup
 ole=4.4506253,-4.2335951,-0.2170302,-8.6822965,3.2021018,-0.4035397\PG
 =C01 [X(C5H7O3)]\NImag=3\\0.38366693,-0.04792158,0.14471483,-0.2408711
 2,0.05984008,0.17491418,-0.35243817,0.07521384,0.23542060,0.35845671,0
 .03613013,-0.02826473,-0.02852862,-0.06463738,0.05046011,0.22594757,-0
 .05305505,-0.15339891,-0.23779266,0.05296947,0.15731638,-0.00014167,-0
 .00012510,0.00019950,0.00017150,0.00046866,-0.00014857,1.51025399,-0.0
 0003054,0.00008054,-0.00004946,-0.00002431,-0.00008410,-0.00005443,-0.
 10105515,0.07477090,-0.00007323,0.00004055,0.00003850,0.00013154,0.000
 05352,0.00001648,0.43969144,-0.03417993,0.21209901,0.00009634,0.000005
 05,0.00000892,-0.00010169,-0.00006490,-0.00002435,-0.39816089,0.025724
 48,-0.11062520,0.38716050,0.00004151,-0.00001879,0.00001423,-0.0000492
 9,0.00002405,0.00001154,0.02570843,-0.03574462,0.00901621,-0.02625291,
 0.02113390,0.00004689,0.00002276,-0.00006565,-0.00006521,-0.00003233,0
 .00005915,-0.11052558,0.00901691,-0.07080795,0.11233624,-0.00848912,0.
 05488786,-0.00044615,-0.00010442,0.00038545,0.00080102,0.00069491,-0.0
 0022893,-1.11581817,0.07495702,-0.32544583,0.01197449,0.00058852,-0.00
 069401,1.44941495,-0.00029464,-0.00024376,0.00031119,0.00063608,0.0002
 1399,-0.00039834,0.07315333,-0.05112762,0.02536610,0.00030776,0.010698
 83,-0.00116711,-0.09125248,0.13385307,-0.00062391,-0.00042507,0.000583
 61,0.00061164,0.00105667,-0.00045613,-0.32550434,0.02583005,-0.1556047
 1,-0.00069340,-0.00108183,0.01371967,0.41517541,-0.01607505,0.23213159
 ,0.00097371,0.00005800,-0.00021070,-0.00268769,-0.00395992,-0.00106882
 ,0.00941801,-0.00121092,-0.00344404,-0.00170800,0.00017130,-0.00172335
 ,-0.26881949,0.00940418,-0.05041029,0.72507474,0.00734029,0.00065879,-
 0.00147518,-0.01030170,-0.00310602,0.00150383,0.00020910,0.01204617,-0
 .00181957,0.00077848,0.00381260,0.00026158,0.01496772,-0.07682539,0.01
 445254,0.11946393,0.84575673,0.00310730,0.00076306,-0.00210278,-0.0041
 5991,-0.00169003,0.00205600,-0.00348381,-0.00232261,0.01659908,-0.0014
 9682,0.00015750,0.00322463,-0.04802039,0.01205765,-0.11654388,0.217534
 82,0.27192404,0.37460856,-0.00673886,-0.00354345,0.00278149,-0.0021061
 5,0.00311047,0.00213799,-0.00274429,0.00200174,0.00033758,0.00036589,0
 .00109133,0.00083106,-0.03822358,-0.04228176,-0.03687783,-0.26173234,-
 0.26606243,-0.16245481,0.27655537,-0.00683541,-0.00095841,0.00185006,0
 .00453168,0.00042560,-0.00064506,0.00286814,-0.00082935,0.00127549,0.0
 0000037,0.00011697,0.00037180,-0.02655234,-0.00006854,-0.01876519,-0.2
 6118995,-0.49601131,-0.24392361,0.30152287,0.59348343,0.00158411,0.000
 87751,0.00195884,0.00255328,-0.00057725,-0.00441238,0.00090873,0.00125
 907,-0.00129512,0.00037108,0.00062923,-0.00045871,-0.03132453,-0.02354
 853,0.00840714,-0.16146393,-0.24853242,-0.20694873,0.19124993,0.308489
 72,0.19302161,0.00233665,-0.00076700,0.00023614,-0.00366668,0.00009343
 ,0.00057107,-0.00399342,-0.00043515,-0.00131245,0.00056205,-0.00123123
 ,-0.00014647,-0.04233739,0.04856520,-0.00110662,-0.15803425,0.11781313
 ,0.01060087,0.03342925,-0.00382109,-0.00258853,0.45750638,-0.00292531,
 -0.00016197,0.00046491,0.00525343,0.00046992,-0.00147843,-0.00103199,0
 .00088470,0.00017016,-0.00057857,-0.00014437,-0.00015299,0.02539693,-0
 .01407394,-0.00161665,0.08367584,-0.27256382,-0.05220876,0.00262688,-0
 .09745663,-0.04312870,-0.16843506,0.45794769,-0.00053672,-0.00005397,0
 .00075439,0.00102061,-0.00004905,-0.00065183,-0.00157097,0.00017698,-0
 .00078093,0.00007078,-0.00033268,-0.00038510,-0.00911959,0.00653917,0.
 01212712,-0.00328217,-0.03800390,-0.07448636,0.00040271,-0.04704734,0.
 01358940,0.07204989,0.08626611,0.13084328,-0.00158340,0.00232640,-0.00
 039477,0.00359277,-0.00042194,-0.00059416,0.00162130,0.00037345,0.0008
 5011,-0.00030160,0.00001291,-0.00006710,0.00485021,-0.00120121,-0.0005
 4940,-0.03720800,0.03629074,-0.00160236,-0.00426610,-0.01714195,-0.005
 91214,-0.19201948,0.02881838,-0.04140786,0.46161909,0.00117496,0.00440
 024,0.00080075,-0.00229977,-0.00067009,0.00120018,-0.00022684,0.000022
 60,0.00009795,0.00011110,0.00008636,0.00014533,0.00131818,-0.00206195,
 -0.00310849,0.05119853,-0.02172788,0.01177870,0.00329882,0.00429569,0.
 00353860,-0.00337922,-0.07673660,-0.00928444,-0.01448269,0.59783987,-0
 .00136351,-0.00316427,-0.00073788,0.00071083,0.00044261,0.00088504,0.0
 0080802,0.00042145,-0.00037869,0.00000408,0.00009537,-0.00021806,-0.00
 046064,-0.00403083,0.00660443,0.00437022,0.01172200,0.00593548,-0.0020
 1976,-0.00307842,-0.00621908,-0.05308934,0.00063642,-0.08482937,0.0045
 8891,0.03835236,0.56625767,0.00014005,-0.01615276,-0.00082882,0.001062
 60,0.00222338,-0.00202556,-0.00013669,-0.00006861,-0.00017980,0.000028
 70,-0.00003540,0.00009839,-0.00029952,0.00115288,-0.00106938,-0.000044
 88,-0.00649841,-0.00089058,0.00073198,0.00147077,0.00209258,-0.0465555
 5,-0.00752296,0.02313437,-0.12942072,-0.03298711,0.05130720,0.56038556
 ,-0.01986158,-0.12399634,-0.01644653,0.00935105,0.00411753,-0.00485908
 ,0.00028935,-0.00025088,0.00031559,-0.00008800,0.00013474,-0.00000456,
 0.00066469,-0.00065318,-0.00032769,-0.00089539,0.01144833,0.00338550,-
 0.00349381,-0.00546866,-0.00075733,0.01137194,-0.00172308,-0.00700418,
 -0.03199807,-0.07674760,0.02940974,-0.02696686,0.18771787,0.00000479,-
 0.00520181,0.00252617,-0.00120958,-0.00085980,-0.00045605,-0.00032235,
 -0.00005250,0.00005631,0.00003568,-0.00001352,0.00003859,0.00022739,0.
 00060628,-0.00111394,-0.00004172,-0.00407730,0.00001912,0.00003637,0.0
 0125001,0.00069840,-0.01161343,-0.00097137,0.01190590,0.06563093,0.042
 96601,-0.15979457,0.04944942,-0.01110761,0.55799550,0.00037785,0.00009
 094,-0.00011512,-0.00067539,0.00001818,0.00034185,-0.00042671,-0.00010
 937,-0.00013172,0.00006108,-0.00003125,-0.00004190,-0.00091996,0.00118
 587,0.00068658,-0.00439346,-0.00296397,-0.00524699,0.00187363,0.000993
 90,0.00088179,-0.02340713,0.04294206,-0.00627343,-0.04031537,0.0053520
 3,-0.00065186,0.00018239,-0.02010631,0.00578733,0.06543488,-0.00003638
 ,-0.00085714,-0.00028476,0.00015558,0.00025310,-0.00013366,0.00013829,
 0.00000008,-0.00001479,-0.00001434,0.00000387,0.00000288,0.00034080,-0
 .00018198,0.00025166,-0.00158487,0.00152609,0.00086674,0.00067542,-0.0
 0009939,0.00029057,0.00366398,-0.00454621,-0.00094939,0.02404598,-0.31
 545462,0.02350268,-0.00429446,-0.01164600,0.00391121,-0.02313083,0.341
 21953,0.00005321,0.00055617,0.00030798,0.00019126,0.00009816,-0.000334
 10,-0.00005865,-0.00005025,-0.00007899,-0.00000278,0.00000152,-0.00000
 555,-0.00035535,0.00031873,0.00045341,-0.00189024,-0.00240082,-0.00193
 067,0.00188487,-0.00039377,0.00094156,-0.00739892,0.01342781,-0.000584
 52,-0.00263723,0.02589921,-0.05104997,0.00449641,0.02568477,-0.0066408
 6,0.00318750,-0.03139916,0.05429450,0.00002015,0.00041148,-0.00069728,
 -0.00002537,-0.00032293,0.00024298,-0.00007485,-0.00003542,0.00006982,
 0.00006870,0.00000275,-0.00003703,-0.00027756,0.00012858,0.00042309,0.
 00112783,-0.00733453,-0.00352325,0.00117367,0.00261478,0.00170791,-0.0
 2415369,-0.00945181,-0.03622102,-0.05422871,-0.01031196,-0.02293419,0.
 00661131,0.00857658,0.02102860,0.00237615,0.00056062,0.00233531,0.0699
 3927,0.00005910,0.00064680,-0.00074992,0.00042003,-0.00079943,0.000467
 76,-0.00014655,0.00007690,0.00002212,-0.00002071,-0.00000547,0.0000345
 6,-0.00017811,-0.00007065,-0.00082984,0.00251994,0.00242770,0.00194779
 ,-0.00013892,-0.00205713,0.00019231,0.00216454,0.00235706,0.00778302,-
 0.01754430,-0.10529581,-0.11270500,0.00083608,0.00557488,0.01438274,-0
 .00371906,-0.01350288,-0.02967383,0.01726150,0.11100555,0.00017834,0.0
 0070139,0.00071773,-0.00027168,0.00079609,-0.00032992,0.00006318,-0.00
 007268,0.00011938,0.00000525,-0.00000776,-0.00000224,0.00009877,0.0004
 2654,-0.00023971,-0.00015193,-0.00476836,-0.00065423,0.00292308,0.0005
 1278,0.00115678,-0.00901926,-0.00167742,-0.00745084,-0.03339628,-0.106
 69779,-0.26184421,-0.00017900,-0.00750369,-0.02124306,0.00103932,0.002
 55447,0.00449547,0.03563552,0.11681815,0.28719396,0.00138931,0.0014615
 0,0.00051936,-0.00052267,-0.00065302,0.00021200,-0.00009238,0.00001613
 ,-0.00002661,0.00002736,-0.00000889,0.00000573,-0.00022512,0.00025565,
 -0.00019950,0.00074014,-0.00300271,-0.00065106,0.00058761,0.00095082,0
 .00047522,-0.00337624,0.00034878,0.00389567,-0.01587538,0.00793600,-0.
 00836488,-0.30383267,0.07753193,-0.05158136,0.00044342,-0.00026093,-0.
 00042065,0.00009798,0.00014147,0.00063897,0.32713264,0.00060490,0.0073
 8543,-0.00007757,-0.00095963,-0.00082965,0.00134251,-0.00003474,0.0000
 0674,-0.00005383,0.00000393,-0.00002037,0.00000759,-0.00008860,0.00025
 608,0.00005235,-0.00065623,-0.00233727,-0.00043804,0.00088833,0.000868
 80,0.00010344,-0.00352461,0.00160298,0.00226973,-0.01152803,0.00436503
 ,-0.00103181,0.09441097,-0.05168752,0.02278139,0.00058168,0.00076170,-
 0.00109835,0.00013942,0.00002326,0.00028252,-0.08533844,0.05386103,0.0
 0072978,0.00151120,-0.00028894,-0.00005891,-0.00039726,0.00003909,0.00
 012007,0.00001514,-0.00003484,-0.00000511,0.00001232,-0.00001343,0.000
 01198,-0.00035209,0.00043740,0.00025100,0.00175992,-0.00005316,-0.0002
 4963,-0.00042196,-0.00041643,0.00535602,0.00059372,-0.00263385,0.02074
 834,-0.00637443,0.00674894,-0.05299649,0.01890954,-0.06371802,-0.00025
 264,0.00031223,0.00081088,-0.00106208,-0.00077000,0.00001892,0.0558489
 0,-0.02144017,0.06088339,-0.00056680,-0.00131796,0.00050569,0.00025816
 ,0.00032247,0.00003287,0.00001642,-0.00000518,0.00005053,-0.00002870,0
 .00000805,0.00000567,0.00011259,-0.00007959,-0.00002196,-0.00052837,0.
 00166809,0.00076937,-0.00032268,-0.00057632,-0.00034505,0.00394740,-0.
 00007187,-0.00176212,0.00454021,0.00316847,0.02472688,-0.07457963,-0.0
 1614398,-0.07916871,0.00002977,-0.00000024,-0.00017420,-0.00272088,-0.
 00170279,0.00296168,-0.00458563,-0.00588257,-0.02800002,0.07413586,0.0
 0163617,0.00472964,0.00178650,-0.00169807,-0.00037366,0.00010557,-0.00
 001372,-0.00001993,-0.00005603,0.00002118,-0.00000268,-0.00001229,-0.0
 0010260,0.00007980,0.00022092,0.00055161,-0.00086257,-0.00072750,0.000
 27972,0.00065219,0.00000182,0.00037396,-0.00011644,-0.00049673,0.00169
 763,0.00684118,0.01469955,-0.02018725,-0.03959587,-0.06569964,0.000950
 79,0.00008984,-0.00118649,-0.00190023,-0.00073957,0.00043536,0.0038123
 1,0.00507546,0.00939058,0.01868001,0.03854527,0.00027363,-0.00141216,0
 .00069783,0.00019876,0.00025531,-0.00030290,0.00001670,-0.00001404,0.0
 0004954,0.00000603,0.00000162,0.00000111,0.00006967,0.00003297,-0.0001
 7275,0.00031067,-0.00020374,-0.00038480,0.00010051,0.00001296,0.000268
 47,-0.00118729,-0.00074335,0.00286420,-0.00791964,-0.00604837,-0.02062
 568,-0.07637440,-0.04915559,-0.30593615,0.00003367,0.00014179,0.000199
 65,0.00257486,0.00233245,-0.00125133,0.00141698,-0.00282849,-0.0021896
 7,0.08173161,0.05482743,0.32873747,-0.02708593,-0.00963494,0.00306066,
 -0.00211893,0.02699845,0.01239674,0.00010787,-0.00009816,0.00010786,-0
 .00004424,-0.00001584,-0.00002332,0.00021368,0.00032014,0.00015992,-0.
 00217795,-0.00236774,-0.00048238,0.00141662,0.00116376,-0.00019046,-0.
 00023791,0.00095526,-0.00040014,-0.00100481,-0.00987053,0.00236802,-0.
 01427294,0.01176848,0.00173663,-0.00064115,-0.00025862,0.00078945,0.00
 006602,0.00004777,-0.00052596,-0.00190837,0.01138364,-0.00044122,0.000
 29230,-0.00410151,-0.00125176,0.04739575,0.03091837,-0.00811514,-0.017
 45570,-0.01559153,-0.02183664,0.00302319,-0.00020121,0.00016788,-0.000
 23355,0.00006707,-0.00007502,-0.00000500,-0.00065023,0.00020525,0.0003
 6561,0.00245395,-0.00424215,-0.00157044,0.00002480,0.00310672,0.001161
 95,-0.00245283,0.00426069,0.00018665,0.00075269,-0.01915642,0.00472815
 ,0.01461974,0.10277577,0.00208593,-0.00205465,0.00243401,0.00021630,-0
 .00033882,0.00035878,-0.00179958,-0.00319059,-0.01933170,-0.00274873,0
 .00193341,-0.01430265,0.00280122,-0.02629016,-0.02624939,0.01154286,-0
 .00100038,-0.02590508,0.00271943,-0.02353749,-0.00002990,-0.00019338,0
 .00007630,0.00000294,0.00000961,-0.00001463,0.00002568,-0.00031941,-0.
 00008668,-0.00033325,0.00122048,-0.00034262,0.00066176,-0.00108354,0.0
 0051253,-0.00029174,-0.00135168,0.00041852,-0.00028147,0.00266264,0.00
 673444,-0.00073405,0.00396565,0.01946111,-0.01433733,0.00075562,0.0009
 4753,-0.00087878,0.00045676,0.00074768,-0.00068670,-0.00176877,0.00012
 874,0.00040970,-0.00131224,-0.01328905,-0.00195498,-0.01730405,0.00924
 400,0.04433320\\-0.00500337,0.01828859,0.00745783,0.01247730,-0.012333
 04,-0.01055219,0.02042064,-0.00086187,0.00599795,0.00079925,-0.0002576
 2,0.00021494,-0.02480428,0.00127726,-0.00690784,0.04888146,0.01462654,
 0.02086511,-0.02798731,-0.03548377,-0.02114464,-0.00099493,0.01500079,
 0.00533036,-0.01483429,0.00417033,-0.00279427,0.00236617,0.01693255,-0
 .00067612,-0.00018796,0.00091118,-0.00054386,-0.00043804,-0.00058789,-
 0.00176609,-0.00302340,-0.00411170,-0.00050197,0.00078699,-0.00427877,
 0.00231702,-0.00845822,-0.01329259,0.00270377\\\@


 MEMORIES ARE LIKE AN ENGLISH GRAMMER LESSON -
 PRESENT TENSE, AND PAST PERFECT.
 Job cpu time:       0 days  0 hours 19 minutes 14.1 seconds.
 Elapsed time:       0 days  0 hours  0 minutes 48.2 seconds.
 File lengths (MBytes):  RWF=     59 Int=      0 D2E=      0 Chk=      8 Scr=      1
 Normal termination of Gaussian 16 at Fri Jun 20 12:57:57 2025.
