 Entering Gaussian System, Link 0=g16
 Initial command:
 /opt/g16/l1.exe "/home/aayush/scratches/g16/Gau-28864.inp" -scrdir="/home/aayush/scratches/g16/"
 Entering Link 1 = /opt/g16/l1.exe PID=     28867.
  
 Copyright (c) 1988,1990,1992,1993,1995,1998,2003,2009,2016,
            Gaussian, Inc.  All Rights Reserved.
  
 This is part of the Gaussian(R) 16 program.  It is based on
 the Gaussian(R) 09 system (copyright 2009, Gaussian, Inc.),
 the Gaussian(R) 03 system (copyright 2003, Gaussian, Inc.),
 the Gaussian(R) 98 system (copyright 1998, Gaussian, Inc.),
 the Gaussian(R) 94 system (copyright 1995, Gaussian, Inc.),
 the Gaussian 92(TM) system (copyright 1992, Gaussian, Inc.),
 the Gaussian 90(TM) system (copyright 1990, Gaussian, Inc.),
 the Gaussian 88(TM) system (copyright 1988, Gaussian, Inc.),
 the Gaussian 86(TM) system (copyright 1986, Carnegie Mellon
 University), and the Gaussian 82(TM) system (copyright 1983,
 Carnegie Mellon University). Gaussian is a federally registered
 trademark of Gaussian, Inc.
  
 This software contains proprietary and confidential information,
 including trade secrets, belonging to Gaussian, Inc.
  
 This software is provided under written license and may be
 used, copied, transmitted, or stored only in accord with that
 written license.
  
 The following legend is applicable only to US Government
 contracts under FAR:
  
                    RESTRICTED RIGHTS LEGEND
  
 Use, reproduction and disclosure by the US Government is
 subject to restrictions as set forth in subparagraphs (a)
 and (c) of the Commercial Computer Software - Restricted
 Rights clause in FAR 52.227-19.
  
 Gaussian, Inc.
 340 Quinnipiac St., Bldg. 40, Wallingford CT 06492
  
  
 ---------------------------------------------------------------
 Warning -- This program may not be used in any manner that
 competes with the business of Gaussian, Inc. or will provide
 assistance to any competitor of Gaussian, Inc.  The licensee
 of this program is prohibited from giving any competitor of
 Gaussian, Inc. access to this program.  By using this program,
 the user acknowledges that Gaussian, Inc. is engaged in the
 business of creating and licensing software in the field of
 computational chemistry and represents and warrants to the
 licensee that it is not a competitor of Gaussian, Inc. and that
 it will not use this program in any manner prohibited above.
 ---------------------------------------------------------------
  

 Cite this work as:
 Gaussian 16, Revision A.03,
 M. J. Frisch, G. W. Trucks, H. B. Schlegel, G. E. Scuseria, 
 M. A. Robb, J. R. Cheeseman, G. Scalmani, V. Barone, 
 G. A. Petersson, H. Nakatsuji, X. Li, M. Caricato, A. V. Marenich, 
 J. Bloino, B. G. Janesko, R. Gomperts, B. Mennucci, H. P. Hratchian, 
 J. V. Ortiz, A. F. Izmaylov, J. L. Sonnenberg, D. Williams-Young, 
 F. Ding, F. Lipparini, F. Egidi, J. Goings, B. Peng, A. Petrone, 
 T. Henderson, D. Ranasinghe, V. G. Zakrzewski, J. Gao, N. Rega, 
 G. Zheng, W. Liang, M. Hada, M. Ehara, K. Toyota, R. Fukuda, 
 J. Hasegawa, M. Ishida, T. Nakajima, Y. Honda, O. Kitao, H. Nakai, 
 T. Vreven, K. Throssell, J. A. Montgomery, Jr., J. E. Peralta, 
 F. Ogliaro, M. J. Bearpark, J. J. Heyd, E. N. Brothers, K. N. Kudin, 
 V. N. Staroverov, T. A. Keith, R. Kobayashi, J. Normand, 
 K. Raghavachari, A. P. Rendell, J. C. Burant, S. S. Iyengar, 
 J. Tomasi, M. Cossi, J. M. Millam, M. Klene, C. Adamo, R. Cammi, 
 J. W. Ochterski, R. L. Martin, K. Morokuma, O. Farkas, 
 J. B. Foresman, and D. J. Fox, Gaussian, Inc., Wallingford CT, 2016.
 
 ******************************************
 Gaussian 16:  ES64L-G16RevA.03 25-Dec-2016
                16-Aug-2025 
 ******************************************
 %chk=ethyl_propiolate.chk
 %nprocshared=24
 Will use up to   24 processors via shared memory.
 %mem=12GB
 --------------------------
 # freq 6-311++g(d,p) m062x
 --------------------------
 1/10=4,30=1,38=1/1,3;
 2/12=2,17=6,18=5,40=1/2;
 3/5=4,6=6,7=1111,11=2,25=1,30=1,71=2,74=-55,140=1/1,2,3;
 4//1;
 5/5=2,38=5,98=1/2;
 8/6=4,10=90,11=11/1;
 11/6=1,8=1,9=11,15=111,16=1/1,2,10;
 10/6=1/2;
 6/7=2,8=2,9=2,10=2,28=1/1;
 7/8=1,10=1,25=1/1,2,3,16;
 1/10=4,30=1/3;
 99//99;
 -------------------
 Title Card Required
 -------------------
 Symbolic Z-matrix:
 Charge =  0 Multiplicity = 2
 O                     2.34193   1.65849  -0.3331 
 H                     1.5378    1.78271   0.1931 
 C                    -3.3175    0.18923  -0.51626 
 H                    -4.33349   0.26195  -0.82752 
 C                    -2.17532   0.10711  -0.16532 
 C                    -0.79122   0.06192   0.27352 
 O                    -0.22956   0.986     0.79876 
 O                    -0.24454  -1.12647   0.02703 
 C                     1.1215   -1.31616   0.44213 
 C                     2.09815  -0.8288   -0.5909 
 H                     1.20905  -2.39875   0.56328 
 H                     1.27541  -0.83634   1.41063 
 H                     3.11872  -1.14424  -0.38098 
 H                     1.79633  -1.03852  -1.61568 
 H                     2.23958   0.5551   -0.53211 
 

 GradGradGradGradGradGradGradGradGradGradGradGradGradGradGradGradGradGrad
 Berny optimization.
 Initialization pass.
 Trust Radius=3.00D-01 FncErr=1.00D-07 GrdErr=1.00D-07 EigMax=2.50D+02 EigMin=1.00D-04
 Number of steps in this run=      2 maximum allowed number of steps=      2.
 GradGradGradGradGradGradGradGradGradGradGradGradGradGradGradGradGradGrad

                          Input orientation:                          
 ---------------------------------------------------------------------
 Center     Atomic      Atomic             Coordinates (Angstroms)
 Number     Number       Type             X           Y           Z
 ---------------------------------------------------------------------
      1          8           0        2.341930    1.658488   -0.333101
      2          1           0        1.537799    1.782713    0.193102
      3          6           0       -3.317496    0.189227   -0.516258
      4          1           0       -4.333494    0.261954   -0.827522
      5          6           0       -2.175325    0.107113   -0.165318
      6          6           0       -0.791216    0.061921    0.273522
      7          8           0       -0.229562    0.986000    0.798760
      8          8           0       -0.244543   -1.126469    0.027032
      9          6           0        1.121501   -1.316157    0.442125
     10          6           0        2.098152   -0.828798   -0.590900
     11          1           0        1.209047   -2.398752    0.563276
     12          1           0        1.275405   -0.836341    1.410634
     13          1           0        3.118723   -1.144236   -0.380979
     14          1           0        1.796332   -1.038523   -1.615677
     15          1           0        2.239584    0.555101   -0.532113
 ---------------------------------------------------------------------
                    Distance matrix (angstroms):
                    1          2          3          4          5
     1  O    0.000000
     2  H    0.968993   0.000000
     3  C    5.849904   5.159097   0.000000
     4  H    6.837839   6.150322   1.065095   0.000000
     5  C    4.779174   4.089424   1.197688   2.262782   0.000000
     6  C    3.568420   2.896878   2.649915   3.714841   1.452715
     7  O    2.888931   2.031044   3.449559   4.473398   2.342623
     8  O    3.817790   3.415796   3.386630   4.401988   2.299270
     9  C    3.307406   3.136608   4.784284   5.818884   3.641943
    10  C    2.512465   2.783639   5.511006   6.527771   4.395413
    11  H    4.306752   4.210672   5.324718   6.303446   4.273661
    12  H    3.225253   2.900117   5.085218   6.138024   3.909126
    13  H    2.908773   3.375784   6.574294   7.596862   5.444201
    14  H    3.035877   3.361234   5.372832   6.315631   4.380649
    15  H    1.125852   1.589173   5.569134   6.586240   4.452713
                    6          7          8          9         10
     6  C    0.000000
     7  O    1.202186   0.000000
     8  O    1.331120   2.249070   0.000000
     9  C    2.363475   2.693044   1.440264   0.000000
    10  C    3.144686   3.262346   2.441038   1.502833   0.000000
    11  H    3.184324   3.685322   2.004791   1.092865   2.141818
    12  H    2.524048   2.441361   2.075758   1.091751   2.164049
    13  H    4.143768   4.140133   3.387971   2.167015   1.088638
    14  H    3.387544   3.745991   2.621335   2.183352   1.088691
    15  H    3.174590   2.837883   3.051427   2.387646   1.392349
                   11         12         13         14         15
    11  H    0.000000
    12  H    1.778636   0.000000
    13  H    2.472305   2.588918   0.000000
    14  H    2.634950   3.077467   1.812284   0.000000
    15  H    3.314684   2.576823   1.919238   1.977428   0.000000
 Stoichiometry    C5H7O3(2)
 Framework group  C1[X(C5H7O3)]
 Deg. of freedom    39
 Full point group                 C1      NOp   1
 Largest Abelian subgroup         C1      NOp   1
 Largest concise Abelian subgroup C1      NOp   1
                         Standard orientation:                         
 ---------------------------------------------------------------------
 Center     Atomic      Atomic             Coordinates (Angstroms)
 Number     Number       Type             X           Y           Z
 ---------------------------------------------------------------------
      1          8           0        2.288846    1.678361   -0.320183
      2          1           0        1.484980    1.802760    0.206383
      3          6           0       -3.372947    0.218550   -0.505733
      4          1           0       -4.388865    0.293561   -0.816715
      5          6           0       -2.230866    0.133867   -0.155111
      6          6           0       -0.846777    0.085532    0.283458
      7          8           0       -0.283580    1.007598    0.810578
      8          8           0       -0.302037   -1.103208    0.034388
      9          6           0        1.063752   -1.295959    0.448908
     10          6           0        2.041055   -0.807982   -0.583208
     11          1           0        1.149580   -2.378947    0.567759
     12          1           0        1.218542   -0.818438    1.418409
     13          1           0        3.061146   -1.125496   -0.374082
     14          1           0        1.738775   -1.015057   -1.608388
     15          1           0        2.184710    0.575562   -0.521514
 ---------------------------------------------------------------------
 Rotational constants (GHZ):           3.3496981           1.1875145           0.9750193
 Standard basis: 6-311++G(d,p) (5D, 7F)
 There are   233 symmetry adapted cartesian basis functions of A   symmetry.
 There are   225 symmetry adapted basis functions of A   symmetry.
   225 basis functions,   351 primitive gaussians,   233 cartesian basis functions
    31 alpha electrons       30 beta electrons
       nuclear repulsion energy       353.6745252725 Hartrees.
 NAtoms=   15 NActive=   15 NUniq=   15 SFac= 1.00D+00 NAtFMM=   60 NAOKFM=F Big=F
 Integral buffers will be    131072 words long.
 Raffenetti 2 integral format.
 Two-electron integral symmetry is turned on.
 One-electron integrals computed using PRISM.
 NBasis=   225 RedAO= T EigKep=  7.26D-06  NBF=   225
 NBsUse=   224 1.00D-06 EigRej=  7.37D-07 NBFU=   224
 ExpMin= 3.60D-02 ExpMax= 8.59D+03 ExpMxC= 1.30D+03 IAcc=3 IRadAn=         5 AccDes= 0.00D+00
 Harris functional with IExCor= 1009 and IRadAn=       5 diagonalized for initial guess.
 HarFok:  IExCor= 1009 AccDes= 0.00D+00 IRadAn=         5 IDoV= 1 UseB2=F ITyADJ=14
 ICtDFT=  3500011 ScaDFX=  1.000000  1.000000  1.000000  1.000000
 FoFCou: FMM=F IPFlag=           0 FMFlag=      100000 FMFlg1=           0
         NFxFlg=           0 DoJE=T BraDBF=F KetDBF=T FulRan=T
         wScrn=  0.000000 ICntrl=       500 IOpCl=  0 I1Cent=   200000004 NGrid=           0
         NMat0=    1 NMatS0=      1 NMatT0=    0 NMatD0=    1 NMtDS0=    0 NMtDT0=    0
 Petite list used in FoFCou.
 Initial guess <Sx>= 0.0000 <Sy>= 0.0000 <Sz>= 0.5000 <S**2>= 0.7500 S= 0.5000
 Requested convergence on RMS density matrix=1.00D-08 within 128 cycles.
 Requested convergence on MAX density matrix=1.00D-06.
 Requested convergence on             energy=1.00D-06.
 No special actions if energy rises.
 SCF Done:  E(UM062X) =  -420.207740128     A.U. after   18 cycles
            NFock= 18  Conv=0.60D-08     -V/T= 2.0034
 <Sx>= 0.0000 <Sy>= 0.0000 <Sz>= 0.5000 <S**2>= 0.7592 S= 0.5046
 <L.S>=  0.00000000000    
 Annihilation of the first spin contaminant:
 S**2 before annihilation     0.7592,   after     0.7500
 DoSCS=F DFT=T ScalE2(SS,OS)=  1.000000  1.000000
 Range of M.O.s used for correlation:     1   224
 NBasis=   225 NAE=    31 NBE=    30 NFC=     0 NFV=     0
 NROrb=    224 NOA=    31 NOB=    30 NVA=   193 NVB=   194

 **** Warning!!: The largest alpha MO coefficient is  0.10640699D+03


 **** Warning!!: The largest beta MO coefficient is  0.10228502D+03

 Symmetrizing basis deriv contribution to polar:
 IMax=3 JMax=2 DiffMx= 0.00D+00
 G2DrvN: will do    16 centers at a time, making    1 passes.
 Calling FoFCou, ICntrl=  3107 FMM=F I1Cent=   0 AccDes= 0.00D+00.
 End of G2Drv F.D. properties file   721 does not exist.
 End of G2Drv F.D. properties file   722 does not exist.
 End of G2Drv F.D. properties file   788 does not exist.
          IDoAtm=111111111111111
          Differentiating once with respect to electric field.
                with respect to dipole field.
          Differentiating once with respect to nuclear coordinates.
 Keep R1 and R2 ints in memory in canonical form, NReq=671901989.
          There are    48 degrees of freedom in the 1st order CPHF.  IDoFFX=6 NUNeed=     3.
     45 vectors produced by pass  0 Test12= 2.46D-14 2.08D-09 XBig12= 9.65D+01 4.09D+00.
 AX will form    45 AO Fock derivatives at one time.
     45 vectors produced by pass  1 Test12= 2.46D-14 2.08D-09 XBig12= 2.10D+01 8.38D-01.
     45 vectors produced by pass  2 Test12= 2.46D-14 2.08D-09 XBig12= 8.09D-01 1.57D-01.
     45 vectors produced by pass  3 Test12= 2.46D-14 2.08D-09 XBig12= 1.11D-02 1.53D-02.
     45 vectors produced by pass  4 Test12= 2.46D-14 2.08D-09 XBig12= 9.16D-05 1.04D-03.
     45 vectors produced by pass  5 Test12= 2.46D-14 2.08D-09 XBig12= 5.66D-07 7.41D-05.
     45 vectors produced by pass  6 Test12= 2.46D-14 2.08D-09 XBig12= 4.98D-09 6.88D-06.
     19 vectors produced by pass  7 Test12= 2.46D-14 2.08D-09 XBig12= 3.00D-11 4.75D-07.
      3 vectors produced by pass  8 Test12= 2.46D-14 2.08D-09 XBig12= 1.74D-13 3.82D-08.
      2 vectors produced by pass  9 Test12= 2.46D-14 2.08D-09 XBig12= 1.33D-15 4.57D-09.
 InvSVY:  IOpt=1 It=  1 EMax= 8.88D-15
 Solved reduced A of dimension   339 with    48 vectors.
 Isotropic polarizability for W=    0.000000       73.50 Bohr**3.
 End of Minotr F.D. properties file   721 does not exist.
 End of Minotr F.D. properties file   722 does not exist.
 End of Minotr F.D. properties file   788 does not exist.

 **********************************************************************

            Population analysis using the SCF density.

 **********************************************************************

 Orbital symmetries:
 Alpha Orbitals:
       Occupied  (A) (A) (A) (A) (A) (A) (A) (A) (A) (A) (A) (A)
                 (A) (A) (A) (A) (A) (A) (A) (A) (A) (A) (A) (A)
                 (A) (A) (A) (A) (A) (A) (A)
       Virtual   (A) (A) (A) (A) (A) (A) (A) (A) (A) (A) (A) (A)
                 (A) (A) (A) (A) (A) (A) (A) (A) (A) (A) (A) (A)
                 (A) (A) (A) (A) (A) (A) (A) (A) (A) (A) (A) (A)
                 (A) (A) (A) (A) (A) (A) (A) (A) (A) (A) (A) (A)
                 (A) (A) (A) (A) (A) (A) (A) (A) (A) (A) (A) (A)
                 (A) (A) (A) (A) (A) (A) (A) (A) (A) (A) (A) (A)
                 (A) (A) (A) (A) (A) (A) (A) (A) (A) (A) (A) (A)
                 (A) (A) (A) (A) (A) (A) (A) (A) (A) (A) (A) (A)
                 (A) (A) (A) (A) (A) (A) (A) (A) (A) (A) (A) (A)
                 (A) (A) (A) (A) (A) (A) (A) (A) (A) (A) (A) (A)
                 (A) (A) (A) (A) (A) (A) (A) (A) (A) (A) (A) (A)
                 (A) (A) (A) (A) (A) (A) (A) (A) (A) (A) (A) (A)
                 (A) (A) (A) (A) (A) (A) (A) (A) (A) (A) (A) (A)
                 (A) (A) (A) (A) (A) (A) (A) (A) (A) (A) (A) (A)
                 (A) (A) (A) (A) (A) (A) (A) (A) (A) (A) (A) (A)
                 (A) (A) (A) (A) (A) (A) (A) (A) (A) (A) (A) (A)
                 (A)
 Beta  Orbitals:
       Occupied  (A) (A) (A) (A) (A) (A) (A) (A) (A) (A) (A) (A)
                 (A) (A) (A) (A) (A) (A) (A) (A) (A) (A) (A) (A)
                 (A) (A) (A) (A) (A) (A)
       Virtual   (A) (A) (A) (A) (A) (A) (A) (A) (A) (A) (A) (A)
                 (A) (A) (A) (A) (A) (A) (A) (A) (A) (A) (A) (A)
                 (A) (A) (A) (A) (A) (A) (A) (A) (A) (A) (A) (A)
                 (A) (A) (A) (A) (A) (A) (A) (A) (A) (A) (A) (A)
                 (A) (A) (A) (A) (A) (A) (A) (A) (A) (A) (A) (A)
                 (A) (A) (A) (A) (A) (A) (A) (A) (A) (A) (A) (A)
                 (A) (A) (A) (A) (A) (A) (A) (A) (A) (A) (A) (A)
                 (A) (A) (A) (A) (A) (A) (A) (A) (A) (A) (A) (A)
                 (A) (A) (A) (A) (A) (A) (A) (A) (A) (A) (A) (A)
                 (A) (A) (A) (A) (A) (A) (A) (A) (A) (A) (A) (A)
                 (A) (A) (A) (A) (A) (A) (A) (A) (A) (A) (A) (A)
                 (A) (A) (A) (A) (A) (A) (A) (A) (A) (A) (A) (A)
                 (A) (A) (A) (A) (A) (A) (A) (A) (A) (A) (A) (A)
                 (A) (A) (A) (A) (A) (A) (A) (A) (A) (A) (A) (A)
                 (A) (A) (A) (A) (A) (A) (A) (A) (A) (A) (A) (A)
                 (A) (A) (A) (A) (A) (A) (A) (A) (A) (A) (A) (A)
                 (A) (A)
 The electronic state is 2-A.
 Alpha  occ. eigenvalues --  -19.70302 -19.65030 -19.61176 -10.72546 -10.63099
 Alpha  occ. eigenvalues --  -10.58164 -10.58083 -10.57678  -1.27658  -1.18310
 Alpha  occ. eigenvalues --   -1.10189  -0.92324  -0.88638  -0.79914  -0.72256
 Alpha  occ. eigenvalues --   -0.66667  -0.62270  -0.60939  -0.59698  -0.57167
 Alpha  occ. eigenvalues --   -0.54282  -0.51435  -0.50006  -0.47848  -0.45952
 Alpha  occ. eigenvalues --   -0.41358  -0.40844  -0.38393  -0.37813  -0.37488
 Alpha  occ. eigenvalues --   -0.31745
 Alpha virt. eigenvalues --   -0.03041  -0.00733   0.00283   0.01383   0.02245
 Alpha virt. eigenvalues --    0.02745   0.03278   0.05100   0.05446   0.06406
 Alpha virt. eigenvalues --    0.06834   0.07262   0.07626   0.09227   0.09917
 Alpha virt. eigenvalues --    0.11122   0.11669   0.12287   0.12432   0.12801
 Alpha virt. eigenvalues --    0.13973   0.14413   0.14727   0.16056   0.16352
 Alpha virt. eigenvalues --    0.17304   0.17810   0.18952   0.19524   0.21396
 Alpha virt. eigenvalues --    0.22280   0.22976   0.23374   0.24675   0.26848
 Alpha virt. eigenvalues --    0.26861   0.28016   0.28210   0.29605   0.30792
 Alpha virt. eigenvalues --    0.31133   0.32038   0.32468   0.33071   0.33693
 Alpha virt. eigenvalues --    0.34336   0.36735   0.37809   0.39973   0.40819
 Alpha virt. eigenvalues --    0.42094   0.43471   0.47858   0.48294   0.50203
 Alpha virt. eigenvalues --    0.50870   0.54130   0.56287   0.56738   0.59279
 Alpha virt. eigenvalues --    0.61110   0.61410   0.64748   0.65788   0.67292
 Alpha virt. eigenvalues --    0.68607   0.70577   0.70931   0.72512   0.73876
 Alpha virt. eigenvalues --    0.74149   0.75146   0.76352   0.79204   0.83975
 Alpha virt. eigenvalues --    0.87309   0.91486   0.96738   1.03416   1.04018
 Alpha virt. eigenvalues --    1.06437   1.08648   1.10027   1.12763   1.14850
 Alpha virt. eigenvalues --    1.15400   1.16250   1.17441   1.19179   1.20887
 Alpha virt. eigenvalues --    1.21325   1.22968   1.27593   1.30440   1.32658
 Alpha virt. eigenvalues --    1.34726   1.35634   1.37076   1.40176   1.43044
 Alpha virt. eigenvalues --    1.45991   1.48361   1.52490   1.54169   1.58177
 Alpha virt. eigenvalues --    1.59815   1.60008   1.61521   1.62537   1.65087
 Alpha virt. eigenvalues --    1.66527   1.67397   1.69258   1.71926   1.73561
 Alpha virt. eigenvalues --    1.79574   1.80711   1.83268   1.83858   1.89304
 Alpha virt. eigenvalues --    1.95212   1.98933   2.00756   2.04015   2.06391
 Alpha virt. eigenvalues --    2.09175   2.13933   2.19277   2.23913   2.27386
 Alpha virt. eigenvalues --    2.38252   2.41594   2.47441   2.49893   2.53557
 Alpha virt. eigenvalues --    2.58552   2.59150   2.60696   2.61408   2.65062
 Alpha virt. eigenvalues --    2.66786   2.69804   2.71532   2.74767   2.79955
 Alpha virt. eigenvalues --    2.80858   2.84159   2.88432   2.92449   2.97424
 Alpha virt. eigenvalues --    3.00004   3.03298   3.05465   3.08805   3.10279
 Alpha virt. eigenvalues --    3.14354   3.19568   3.21880   3.23527   3.29232
 Alpha virt. eigenvalues --    3.31045   3.32402   3.35761   3.42370   3.45692
 Alpha virt. eigenvalues --    3.55471   3.63980   3.70414   3.78702   3.81504
 Alpha virt. eigenvalues --    3.90224   3.98520   4.06839   4.11784   4.16715
 Alpha virt. eigenvalues --    4.26363   5.10616   5.13207   5.17355   5.31507
 Alpha virt. eigenvalues --    5.44049   5.53941   5.70360   5.75685   5.95377
 Alpha virt. eigenvalues --   23.61379  23.91679  23.92091  23.95276  25.16923
 Alpha virt. eigenvalues --   49.97636  50.02726  50.09405
  Beta  occ. eigenvalues --  -19.70300 -19.65030 -19.60442 -10.72547 -10.63133
  Beta  occ. eigenvalues --  -10.58164 -10.57678 -10.57450  -1.27649  -1.18297
  Beta  occ. eigenvalues --   -1.07371  -0.91827  -0.88034  -0.78724  -0.71480
  Beta  occ. eigenvalues --   -0.66444  -0.62215  -0.60662  -0.59060  -0.54580
  Beta  occ. eigenvalues --   -0.53032  -0.50380  -0.49089  -0.46037  -0.43882
  Beta  occ. eigenvalues --   -0.41225  -0.40259  -0.38336  -0.37460  -0.36361
  Beta virt. eigenvalues --   -0.09075  -0.03017  -0.00633   0.00314   0.01568
  Beta virt. eigenvalues --    0.02409   0.02910   0.03288   0.05340   0.05558
  Beta virt. eigenvalues --    0.06452   0.07102   0.07353   0.07654   0.09389
  Beta virt. eigenvalues --    0.10011   0.11021   0.11766   0.12109   0.12434
  Beta virt. eigenvalues --    0.12952   0.14078   0.14470   0.14879   0.16144
  Beta virt. eigenvalues --    0.16578   0.17564   0.17825   0.19079   0.19704
  Beta virt. eigenvalues --    0.21536   0.22641   0.23200   0.23761   0.24836
  Beta virt. eigenvalues --    0.26800   0.26975   0.28191   0.28613   0.29840
  Beta virt. eigenvalues --    0.31001   0.31334   0.32149   0.32531   0.33183
  Beta virt. eigenvalues --    0.33868   0.34453   0.37034   0.38743   0.40452
  Beta virt. eigenvalues --    0.41889   0.42375   0.43778   0.48035   0.48318
  Beta virt. eigenvalues --    0.50943   0.51389   0.54150   0.56466   0.56860
  Beta virt. eigenvalues --    0.59342   0.61356   0.62436   0.65515   0.65993
  Beta virt. eigenvalues --    0.67529   0.69035   0.70880   0.71651   0.73017
  Beta virt. eigenvalues --    0.74134   0.74635   0.75335   0.76959   0.79287
  Beta virt. eigenvalues --    0.84005   0.87399   0.91488   0.97883   1.04159
  Beta virt. eigenvalues --    1.04768   1.07144   1.08919   1.10115   1.13384
  Beta virt. eigenvalues --    1.14983   1.15857   1.16622   1.18040   1.19548
  Beta virt. eigenvalues --    1.21276   1.21637   1.23249   1.27738   1.30683
  Beta virt. eigenvalues --    1.33122   1.34883   1.35894   1.37183   1.40461
  Beta virt. eigenvalues --    1.43115   1.46365   1.48989   1.53244   1.55910
  Beta virt. eigenvalues --    1.58792   1.59947   1.60769   1.62141   1.62888
  Beta virt. eigenvalues --    1.65278   1.66875   1.67815   1.69709   1.72223
  Beta virt. eigenvalues --    1.74206   1.79975   1.81015   1.83502   1.83971
  Beta virt. eigenvalues --    1.89488   1.95400   1.99264   2.01129   2.04675
  Beta virt. eigenvalues --    2.06799   2.11010   2.14607   2.21202   2.24701
  Beta virt. eigenvalues --    2.28027   2.41103   2.41756   2.47781   2.50451
  Beta virt. eigenvalues --    2.54628   2.58352   2.59698   2.61710   2.62050
  Beta virt. eigenvalues --    2.65146   2.66872   2.68167   2.72332   2.74561
  Beta virt. eigenvalues --    2.80164   2.80866   2.84340   2.87947   2.92574
  Beta virt. eigenvalues --    2.97500   3.00105   3.03324   3.05475   3.09218
  Beta virt. eigenvalues --    3.11631   3.15019   3.19596   3.22538   3.23836
  Beta virt. eigenvalues --    3.29691   3.32477   3.33234   3.35857   3.42477
  Beta virt. eigenvalues --    3.48375   3.55539   3.64029   3.70667   3.80012
  Beta virt. eigenvalues --    3.82924   3.90880   3.99320   4.07914   4.11908
  Beta virt. eigenvalues --    4.16725   4.27933   5.11117   5.14066   5.17383
  Beta virt. eigenvalues --    5.31512   5.44075   5.55995   5.71023   5.77244
  Beta virt. eigenvalues --    5.95445  23.61379  23.91719  23.92361  23.96155
  Beta virt. eigenvalues --   25.16923  49.97636  50.01958  50.09394
          Condensed to atoms (all electrons):
               1          2          3          4          5          6
     1  O    7.980842   0.312916   0.003767   0.000156  -0.014999   0.000279
     2  H    0.312916   0.432575  -0.005186  -0.000276   0.007107  -0.035100
     3  C    0.003767  -0.005186   6.350869   0.496891  -1.309636   1.278701
     4  H    0.000156  -0.000276   0.496891   0.441079  -0.157287   0.048617
     5  C   -0.014999   0.007107  -1.309636  -0.157287   9.375762  -2.669519
     6  C    0.000279  -0.035100   1.278701   0.048617  -2.669519   7.733646
     7  O   -0.002459   0.018392  -0.083242  -0.002040   0.058270   0.319780
     8  O   -0.001809   0.000148  -0.102792  -0.005715  -0.184505   0.145533
     9  C    0.004515   0.051229   0.005172  -0.003952  -0.307736  -0.211683
    10  C   -0.029728   0.009536   0.001201   0.000305  -0.031430   0.040879
    11  H    0.001982   0.003706  -0.005766  -0.000553   0.003790  -0.040577
    12  H   -0.006550  -0.009783   0.002383   0.000312   0.010233   0.033447
    13  H   -0.014648   0.003531   0.001974   0.000083  -0.011407   0.005577
    14  H    0.003345  -0.002219  -0.007760  -0.000428   0.032120  -0.017337
    15  H    0.217359  -0.052887   0.006497   0.000264  -0.016473   0.020385
               7          8          9         10         11         12
     1  O   -0.002459  -0.001809   0.004515  -0.029728   0.001982  -0.006550
     2  H    0.018392   0.000148   0.051229   0.009536   0.003706  -0.009783
     3  C   -0.083242  -0.102792   0.005172   0.001201  -0.005766   0.002383
     4  H   -0.002040  -0.005715  -0.003952   0.000305  -0.000553   0.000312
     5  C    0.058270  -0.184505  -0.307736  -0.031430   0.003790   0.010233
     6  C    0.319780   0.145533  -0.211683   0.040879  -0.040577   0.033447
     7  O    8.082350  -0.152638   0.119639  -0.081354   0.005944  -0.024222
     8  O   -0.152638   8.228707   0.204750  -0.063498  -0.092944  -0.002241
     9  C    0.119639   0.204750   6.039200  -0.207358   0.505028   0.304370
    10  C   -0.081354  -0.063498  -0.207358   6.061713  -0.090800  -0.006865
    11  H    0.005944  -0.092944   0.505028  -0.090800   0.568760  -0.059609
    12  H   -0.024222  -0.002241   0.304370  -0.006865  -0.059609   0.524224
    13  H    0.001546   0.011134   0.002688   0.360196   0.000774  -0.009506
    14  H   -0.003539  -0.000279  -0.061318   0.385798  -0.011314   0.011236
    15  H    0.012655  -0.012328  -0.014320   0.092376   0.004606  -0.008064
              13         14         15
     1  O   -0.014648   0.003345   0.217359
     2  H    0.003531  -0.002219  -0.052887
     3  C    0.001974  -0.007760   0.006497
     4  H    0.000083  -0.000428   0.000264
     5  C   -0.011407   0.032120  -0.016473
     6  C    0.005577  -0.017337   0.020385
     7  O    0.001546  -0.003539   0.012655
     8  O    0.011134  -0.000279  -0.012328
     9  C    0.002688  -0.061318  -0.014320
    10  C    0.360196   0.385798   0.092376
    11  H    0.000774  -0.011314   0.004606
    12  H   -0.009506   0.011236  -0.008064
    13  H    0.511194  -0.045834  -0.011478
    14  H   -0.045834   0.533384  -0.031159
    15  H   -0.011478  -0.031159   0.461754
          Atomic-Atomic Spin Densities.
               1          2          3          4          5          6
     1  O    0.426948  -0.012588  -0.000304  -0.000011   0.000645  -0.007165
     2  H   -0.012588  -0.001042   0.000643   0.000001  -0.003904   0.002623
     3  C   -0.000304   0.000643  -0.008497  -0.000919   0.013043  -0.003221
     4  H   -0.000011   0.000001  -0.000919  -0.000763   0.000810   0.000625
     5  C    0.000645  -0.003904   0.013043   0.000810  -0.051071   0.017441
     6  C   -0.007165   0.002623  -0.003221   0.000625   0.017441  -0.021150
     7  O    0.005086  -0.001712  -0.001022  -0.000051   0.003393   0.001315
     8  O    0.002439  -0.001951   0.000580   0.000033  -0.000778  -0.006582
     9  C    0.028093  -0.005154  -0.000786   0.000370   0.027915   0.008938
    10  C   -0.140139   0.026721  -0.000218  -0.000106  -0.012422  -0.006187
    11  H   -0.001306   0.001425   0.000113   0.000031   0.000521   0.007279
    12  H    0.002033  -0.002632   0.000326  -0.000010  -0.002751  -0.004799
    13  H    0.005422  -0.001317  -0.000125  -0.000001   0.000809  -0.000681
    14  H    0.003885  -0.002729   0.000305   0.000007  -0.000318  -0.000304
    15  H    0.032855   0.009015  -0.000327   0.000016   0.007887   0.018888
               7          8          9         10         11         12
     1  O    0.005086   0.002439   0.028093  -0.140139  -0.001306   0.002033
     2  H   -0.001712  -0.001951  -0.005154   0.026721   0.001425  -0.002632
     3  C   -0.001022   0.000580  -0.000786  -0.000218   0.000113   0.000326
     4  H   -0.000051   0.000033   0.000370  -0.000106   0.000031  -0.000010
     5  C    0.003393  -0.000778   0.027915  -0.012422   0.000521  -0.002751
     6  C    0.001315  -0.006582   0.008938  -0.006187   0.007279  -0.004799
     7  O    0.001079   0.000522  -0.002887  -0.004374  -0.000479   0.000756
     8  O    0.000522   0.004685   0.015104  -0.014989  -0.008582   0.005013
     9  C   -0.002887   0.015104  -0.074106  -0.051711  -0.001198   0.019239
    10  C   -0.004374  -0.014989  -0.051711   0.999088  -0.001049  -0.022999
    11  H   -0.000479  -0.008582  -0.001198  -0.001049   0.064018  -0.010081
    12  H    0.000756   0.005013   0.019239  -0.022999  -0.010081   0.019516
    13  H    0.000039   0.000254   0.009963  -0.023171  -0.002681   0.001912
    14  H    0.000706   0.002189   0.016147  -0.048075  -0.003922   0.000757
    15  H   -0.005660   0.002208  -0.039505   0.043514  -0.004999   0.007722
              13         14         15
     1  O    0.005422   0.003885   0.032855
     2  H   -0.001317  -0.002729   0.009015
     3  C   -0.000125   0.000305  -0.000327
     4  H   -0.000001   0.000007   0.000016
     5  C    0.000809  -0.000318   0.007887
     6  C   -0.000681  -0.000304   0.018888
     7  O    0.000039   0.000706  -0.005660
     8  O    0.000254   0.002189   0.002208
     9  C    0.009963   0.016147  -0.039505
    10  C   -0.023171  -0.048075   0.043514
    11  H   -0.002681  -0.003922  -0.004999
    12  H    0.001912   0.000757   0.007722
    13  H   -0.025299   0.008697   0.001084
    14  H    0.008697  -0.008527   0.015961
    15  H    0.001084   0.015961  -0.153753
 Mulliken charges and spin densities:
               1          2
     1  O   -0.454965   0.345892
     2  H    0.266312   0.007399
     3  C   -0.633072  -0.000409
     4  H    0.182543   0.000032
     5  C    1.215710   0.001221
     6  C   -0.652628   0.007020
     7  O   -0.269080  -0.003288
     8  O    0.028476   0.000146
     9  C   -0.430224  -0.049578
    10  C   -0.440971   0.743882
    11  H    0.206972   0.039090
    12  H    0.240635   0.014003
    13  H    0.194176  -0.025095
    14  H    0.215304  -0.015220
    15  H    0.330813  -0.065095
 Sum of Mulliken charges =  -0.00000   1.00000
 Mulliken charges and spin densities with hydrogens summed into heavy atoms:
               1          2
     1  O    0.142159   0.288196
     3  C   -0.450529  -0.000377
     5  C    1.215710   0.001221
     6  C   -0.652628   0.007020
     7  O   -0.269080  -0.003288
     8  O    0.028476   0.000146
     9  C    0.017383   0.003515
    10  C   -0.031491   0.703566
 APT charges:
               1
     1  O   -0.450366
     2  H    0.322073
     3  C   -0.167295
     4  H    0.238465
     5  C   -0.318000
     6  C    1.471739
     7  O   -0.801000
     8  O   -0.910593
     9  C    0.430072
    10  C    0.207899
    11  H    0.005581
    12  H    0.013960
    13  H    0.005467
    14  H    0.007399
    15  H   -0.055401
 Sum of APT charges =   0.00000
 APT charges with hydrogens summed into heavy atoms:
               1
     1  O   -0.183694
     3  C    0.071170
     5  C   -0.318000
     6  C    1.471739
     7  O   -0.801000
     8  O   -0.910593
     9  C    0.449613
    10  C    0.220765
 Electronic spatial extent (au):  <R**2>=           1188.7063
 Charge=             -0.0000 electrons
 Dipole moment (field-independent basis, Debye):
    X=             -2.1478    Y=             -3.8934    Z=             -0.0645  Tot=              4.4470
 Quadrupole moment (field-independent basis, Debye-Ang):
   XX=            -40.7304   YY=            -52.2521   ZZ=            -47.6559
   XY=            -10.5506   XZ=              3.9715   YZ=             -0.4701
 Traceless Quadrupole moment (field-independent basis, Debye-Ang):
   XX=              6.1491   YY=             -5.3726   ZZ=             -0.7764
   XY=            -10.5506   XZ=              3.9715   YZ=             -0.4701
 Octapole moment (field-independent basis, Debye-Ang**2):
  XXX=            -63.4461  YYY=             -8.0338  ZZZ=              2.6461  XYY=              0.7664
  XXY=            -18.6467  XXZ=            -10.9329  XZZ=              3.7774  YZZ=             -3.0701
  YYZ=              5.4912  XYZ=              5.7724
 Hexadecapole moment (field-independent basis, Debye-Ang**3):
 XXXX=           -844.1271 YYYY=           -341.4414 ZZZZ=           -124.2274 XXXY=            -80.2900
 XXXZ=             69.3146 YYYX=            -15.5601 YYYZ=              4.1612 ZZZX=             -2.7483
 ZZZY=              2.0921 XXYY=           -281.3770 XXZZ=           -201.3528 YYZZ=            -82.7238
 XXYZ=              2.6424 YYXZ=              9.5297 ZZXY=             -1.3764
 N-N= 3.536745252725D+02 E-N=-1.691510903027D+03  KE= 4.188035147029D+02
  Exact polarizability:  93.375  -1.017  74.722   7.462   2.269  52.410
 Approx polarizability: 100.318   1.341  86.722  12.157   5.852  63.492
                          Isotropic Fermi Contact Couplings
        Atom                 a.u.       MegaHertz       Gauss      10(-4) cm-1
     1  O(17)              0.07832     -47.47558     -16.94047     -15.83615
     2  H(1)              -0.00528     -23.58286      -8.41495      -7.86639
     3  C(13)             -0.00004      -0.04171      -0.01488      -0.01391
     4  H(1)               0.00001       0.03728       0.01330       0.01243
     5  C(13)              0.00027       0.30224       0.10785       0.10082
     6  C(13)             -0.00008      -0.08865      -0.03163      -0.02957
     7  O(17)             -0.00233       1.41171       0.50373       0.47090
     8  O(17)              0.00422      -2.56009      -0.91350      -0.85396
     9  C(13)             -0.02287     -25.71412      -9.17544      -8.57731
    10  C(13)              0.23883     268.49386      95.80529      89.55991
    11  H(1)               0.01887      84.35895      30.10137      28.13912
    12  H(1)               0.00710      31.73996      11.32561      10.58731
    13  H(1)              -0.00787     -35.17804     -12.55240     -11.73413
    14  H(1)              -0.00470     -20.99437      -7.49131      -7.00297
    15  H(1)              -0.03259    -145.67468     -51.98035     -48.59184
 --------------------------------------------------------
       Center         ----  Spin Dipole Couplings  ----
                      3XX-RR        3YY-RR        3ZZ-RR
 --------------------------------------------------------
     1   Atom       -0.733256      1.492217     -0.758961
     2   Atom        0.030618     -0.012166     -0.018452
     3   Atom        0.001733     -0.000598     -0.001135
     4   Atom        0.000914     -0.000419     -0.000495
     5   Atom        0.002750     -0.001304     -0.001445
     6   Atom        0.006710     -0.002034     -0.004675
     7   Atom        0.000574     -0.003764      0.003189
     8   Atom        0.008233     -0.003594     -0.004639
     9   Atom       -0.000222      0.013668     -0.013446
    10   Atom       -0.404272      0.801716     -0.397444
    11   Atom       -0.003388      0.006407     -0.003019
    12   Atom       -0.005646     -0.005928      0.011573
    13   Atom        0.046736     -0.000716     -0.046019
    14   Atom       -0.042021     -0.006412      0.048433
    15   Atom       -0.124309      0.245633     -0.121324
 --------------------------------------------------------
                        XY            XZ            YZ
 --------------------------------------------------------
     1   Atom        0.377544      0.051644      0.244734
     2   Atom       -0.011015     -0.056509      0.015909
     3   Atom       -0.000144      0.000327      0.000186
     4   Atom       -0.000069      0.000073      0.000004
     5   Atom       -0.000170     -0.000370     -0.000017
     6   Atom       -0.001095     -0.002188      0.000790
     7   Atom       -0.001077     -0.008559     -0.000507
     8   Atom       -0.001665      0.001285     -0.001684
     9   Atom        0.022487     -0.010269     -0.009562
    10   Atom        0.021502      0.003898      0.109733
    11   Atom        0.002769     -0.005629     -0.006815
    12   Atom        0.001182     -0.008570     -0.002815
    13   Atom       -0.025228      0.021593     -0.001361
    14   Atom        0.003451      0.030292      0.015412
    15   Atom        0.037310      0.003894      0.046198
 --------------------------------------------------------


 ---------------------------------------------------------------------------------
              Anisotropic Spin Dipole Couplings in Principal Axis System
 ---------------------------------------------------------------------------------

       Atom             a.u.   MegaHertz   Gauss  10(-4) cm-1        Axes

              Baa    -0.8027    58.083    20.726    19.375  0.8377 -0.0802 -0.5403
     1 O(17)  Bbb    -0.7785    56.331    20.100    18.790  0.5215 -0.1767  0.8348
              Bcc     1.5812  -114.415   -40.826   -38.165  0.1624  0.9810  0.1062
 
              Baa    -0.0568   -30.294   -10.809   -10.105  0.5198 -0.1702  0.8371
     2 H(1)   Bbb    -0.0148    -7.882    -2.813    -2.629  0.2692  0.9627  0.0286
              Bcc     0.0716    38.176    13.622    12.734  0.8107 -0.2105 -0.5462
 
              Baa    -0.0012    -0.166    -0.059    -0.055 -0.1187 -0.3028  0.9456
     3 C(13)  Bbb    -0.0005    -0.072    -0.026    -0.024  0.0161  0.9516  0.3068
              Bcc     0.0018     0.238     0.085     0.079  0.9928 -0.0516  0.1081
 
              Baa    -0.0005    -0.267    -0.095    -0.089 -0.0559 -0.0962  0.9938
     4 H(1)   Bbb    -0.0004    -0.225    -0.080    -0.075  0.0461  0.9940  0.0988
              Bcc     0.0009     0.492     0.175     0.164  0.9974 -0.0514  0.0512
 
              Baa    -0.0015    -0.199    -0.071    -0.066  0.0927  0.1784  0.9796
     5 C(13)  Bbb    -0.0013    -0.175    -0.063    -0.058  0.0247  0.9831 -0.1813
              Bcc     0.0028     0.374     0.134     0.125  0.9954 -0.0410 -0.0867
 
              Baa    -0.0052    -0.697    -0.249    -0.232  0.1610 -0.1867  0.9691
     6 C(13)  Bbb    -0.0021    -0.280    -0.100    -0.093  0.1613  0.9737  0.1607
              Bcc     0.0073     0.976     0.348     0.326  0.9737 -0.1304 -0.1869
 
              Baa    -0.0072     0.518     0.185     0.173  0.7224  0.3203  0.6128
     7 O(17)  Bbb    -0.0034     0.245     0.087     0.082 -0.2290  0.9471 -0.2251
              Bcc     0.0105    -0.763    -0.272    -0.255 -0.6525  0.0223  0.7575
 
              Baa    -0.0059     0.425     0.152     0.142 -0.0037  0.5914  0.8064
     8 O(17)  Bbb    -0.0028     0.199     0.071     0.067  0.1880  0.7924 -0.5803
              Bcc     0.0086    -0.625    -0.223    -0.208  0.9822 -0.1494  0.1141
 
              Baa    -0.0196    -2.634    -0.940    -0.879  0.6516 -0.2327  0.7220
     9 C(13)  Bbb    -0.0146    -1.963    -0.700    -0.655 -0.4871  0.6013  0.6334
              Bcc     0.0343     4.597     1.640     1.533  0.5815  0.7644 -0.2784
 
              Baa    -0.4084   -54.804   -19.555   -18.281 -0.4596 -0.0721  0.8852
    10 C(13)  Bbb    -0.4037   -54.167   -19.328   -18.068  0.8879 -0.0574  0.4564
              Bcc     0.8121   108.971    38.884    36.349  0.0179  0.9957  0.0904
 
              Baa    -0.0095    -5.052    -1.803    -1.685  0.6060  0.2222  0.7638
    11 H(1)   Bbb    -0.0023    -1.224    -0.437    -0.408  0.7233 -0.5536 -0.4128
              Bcc     0.0118     6.276     2.239     2.093  0.3311  0.8026 -0.4962
 
              Baa    -0.0092    -4.900    -1.749    -1.635  0.9246 -0.0065  0.3809
    12 H(1)   Bbb    -0.0064    -3.394    -1.211    -1.132 -0.0477  0.9900  0.1326
              Bcc     0.0155     8.294     2.960     2.767 -0.3779 -0.1408  0.9151
 
              Baa    -0.0512   -27.309    -9.744    -9.109 -0.2371 -0.0924  0.9671
    13 H(1)   Bbb    -0.0103    -5.517    -1.969    -1.840  0.3430  0.9234  0.1723
              Bcc     0.0615    32.825    11.713    10.949  0.9089 -0.3725  0.1872
 
              Baa    -0.0513   -27.350    -9.759    -9.123  0.9552  0.0277 -0.2945
    14 H(1)   Bbb    -0.0100    -5.359    -1.912    -1.787 -0.0926  0.9736 -0.2086
              Bcc     0.0613    32.709    11.671    10.911  0.2810  0.2266  0.9326
 
              Baa    -0.1284   -68.509   -24.446   -22.852  0.8778 -0.1440  0.4568
    15 H(1)   Bbb    -0.1267   -67.583   -24.115   -22.543 -0.4687 -0.0624  0.8811
              Bcc     0.2551   136.092    48.561    45.395  0.0984  0.9876  0.1222
 

 ---------------------------------------------------------------------------------

 Calling FoFJK, ICntrl=    100127 FMM=F ISym2X=0 I1Cent= 0 IOpClX= 1 NMat=1 NMatS=1 NMatT=0.
 Full mass-weighted force constant matrix:
 Low frequencies ----1285.5420  -34.9615  -13.8348   -4.5695   -0.0007   -0.0006
 Low frequencies ---    0.0006   26.7256   89.4995
 ******    1 imaginary frequencies (negative Signs) ****** 
 Diagonal vibrational polarizability:
      221.1696757      26.8834352      49.9429583
 Harmonic frequencies (cm**-1), IR intensities (KM/Mole), Raman scattering
 activities (A**4/AMU), depolarization ratios for plane and unpolarized
 incident light, reduced masses (AMU), force constants (mDyne/A),
 and normal coordinates:
                      1                      2                      3
                      A                      A                      A
 Frequencies --  -1285.5415                17.8460                89.3585
 Red. masses --      1.1326                 6.7499                 3.7501
 Frc consts  --      1.1028                 0.0013                 0.0176
 IR Inten    --    252.5129                 2.6578                 3.3106
  Atom  AN      X      Y      Z        X      Y      Z        X      Y      Z
     1   8    -0.00  -0.01   0.00    -0.30   0.01  -0.27    -0.01   0.04   0.01
     2   1     0.04   0.11  -0.00    -0.16  -0.04  -0.03    -0.01   0.06   0.01
     3   6     0.00  -0.00   0.00     0.12   0.17  -0.15     0.12   0.05  -0.21
     4   1    -0.00   0.00   0.00     0.16   0.25  -0.25     0.17   0.09  -0.38
     5   6     0.00  -0.00  -0.00     0.08   0.07  -0.04     0.05  -0.01  -0.01
     6   6    -0.00   0.00   0.00     0.03  -0.02   0.10     0.01  -0.04   0.10
     7   8    -0.00  -0.00   0.00    -0.02  -0.12   0.33     0.04  -0.02   0.03
     8   8     0.00  -0.00  -0.00     0.06   0.02  -0.07    -0.04  -0.10   0.24
     9   6    -0.00   0.01  -0.00     0.02  -0.05   0.02     0.04  -0.00   0.01
    10   6    -0.01  -0.11  -0.01     0.10  -0.06   0.09    -0.19   0.07  -0.18
    11   1    -0.00  -0.00   0.02    -0.02  -0.05  -0.00     0.14   0.00  -0.01
    12   1     0.01   0.01  -0.00    -0.03  -0.07   0.04     0.18   0.00  -0.01
    13   1     0.04   0.13   0.02     0.12   0.17   0.30    -0.15  -0.01  -0.48
    14   1    -0.02   0.10  -0.03     0.28  -0.29   0.08    -0.47   0.21  -0.12
    15   1     0.16   0.96   0.07    -0.25  -0.00  -0.21    -0.06   0.04  -0.01
                      4                      5                      6
                      A                      A                      A
 Frequencies --    117.3917               183.5102               193.7866
 Red. masses --      5.1568                 3.6852                 6.5973
 Frc consts  --      0.0419                 0.0731                 0.1460
 IR Inten    --      3.3043                 1.3723                 5.0344
  Atom  AN      X      Y      Z        X      Y      Z        X      Y      Z
     1   8     0.10  -0.17   0.01    -0.11  -0.11   0.11     0.38   0.09  -0.18
     2   1     0.11  -0.22   0.04    -0.18  -0.23   0.04     0.34   0.24  -0.27
     3   6     0.00  -0.25  -0.12    -0.02   0.21   0.06    -0.09   0.16  -0.04
     4   1     0.02  -0.46  -0.23    -0.03   0.45   0.14    -0.06   0.39  -0.09
     5   6    -0.02   0.02   0.02    -0.01  -0.11  -0.05    -0.13  -0.14   0.02
     6   6    -0.04   0.13   0.10    -0.02  -0.06  -0.04    -0.13  -0.15   0.05
     7   8    -0.12   0.11   0.23    -0.14   0.03  -0.06    -0.20  -0.15   0.13
     8   8     0.04   0.19  -0.04     0.12  -0.01   0.03     0.00  -0.07  -0.03
     9   6     0.02   0.12  -0.04     0.15   0.13   0.05     0.01   0.10   0.04
    10   6     0.00  -0.12  -0.16     0.07  -0.08  -0.12     0.03   0.10   0.05
    11   1    -0.07   0.13   0.13     0.18   0.17   0.34     0.13   0.12   0.11
    12   1     0.10   0.26  -0.12     0.16   0.40  -0.09    -0.08   0.18   0.01
    13   1    -0.02  -0.25  -0.25     0.09  -0.06  -0.19     0.01   0.03   0.05
    14   1    -0.13  -0.11  -0.13    -0.05  -0.17  -0.07     0.04   0.11   0.04
    15   1     0.13  -0.14  -0.10    -0.01  -0.07  -0.07     0.26   0.07  -0.07
                      7                      8                      9
                      A                      A                      A
 Frequencies --    273.1511               336.2577               393.0255
 Red. masses --      4.3647                 3.1650                 1.2047
 Frc consts  --      0.1919                 0.2109                 0.1096
 IR Inten    --      2.2550                12.1224                36.4499
  Atom  AN      X      Y      Z        X      Y      Z        X      Y      Z
     1   8    -0.03  -0.01   0.02    -0.03  -0.01   0.03     0.01  -0.01  -0.01
     2   1    -0.09  -0.04  -0.07    -0.03  -0.06   0.03     0.42  -0.16   0.66
     3   6     0.04   0.06  -0.17     0.02  -0.03  -0.04    -0.03  -0.01  -0.01
     4   1     0.18   0.19  -0.60     0.05  -0.09  -0.16    -0.03  -0.04   0.00
     5   6    -0.14  -0.12   0.39    -0.03   0.06   0.13    -0.02   0.03  -0.02
     6   6    -0.05  -0.01   0.12     0.01  -0.05  -0.02    -0.02  -0.00   0.00
     7   8     0.02   0.09  -0.13     0.18  -0.15  -0.02     0.01  -0.01  -0.01
     8   8    -0.01   0.03  -0.02    -0.03  -0.03  -0.14    -0.04  -0.03   0.06
     9   6     0.01  -0.04  -0.10    -0.06   0.22   0.09     0.01   0.04  -0.04
    10   6     0.12  -0.02   0.01    -0.07   0.01  -0.00     0.03   0.02  -0.03
    11   1    -0.05  -0.06  -0.21     0.06   0.27   0.50     0.05   0.04  -0.03
    12   1     0.04  -0.15  -0.05    -0.21   0.60  -0.08     0.04   0.04  -0.05
    13   1     0.10   0.04   0.22    -0.07   0.00  -0.02     0.05   0.26   0.22
    14   1     0.33  -0.09  -0.04    -0.14  -0.11   0.04     0.25  -0.27  -0.04
    15   1     0.02   0.00  -0.00    -0.03   0.00  -0.07    -0.15   0.06  -0.23
                     10                     11                     12
                      A                      A                      A
 Frequencies --    417.8961               486.9616               571.2658
 Red. masses --      1.6584                 1.7724                 3.1945
 Frc consts  --      0.1706                 0.2476                 0.6142
 IR Inten    --     43.9743                11.2000                 0.8770
  Atom  AN      X      Y      Z        X      Y      Z        X      Y      Z
     1   8    -0.02   0.02  -0.05     0.04  -0.05   0.03     0.01  -0.11  -0.00
     2   1     0.42  -0.12   0.65    -0.08   0.23  -0.22     0.01   0.15  -0.08
     3   6     0.04   0.02   0.00     0.08   0.00   0.03    -0.15  -0.00  -0.05
     4   1     0.06   0.11  -0.03     0.09   0.09   0.04    -0.14  -0.20  -0.14
     5   6     0.02  -0.10   0.05     0.07  -0.11   0.01    -0.14   0.20   0.05
     6   6     0.03   0.01  -0.02     0.04   0.01  -0.00    -0.01  -0.02  -0.04
     7   8    -0.03   0.04  -0.02    -0.03   0.05   0.01    -0.00  -0.04  -0.02
     8   8     0.06   0.04  -0.09     0.01   0.02  -0.05     0.14   0.02  -0.03
     9   6    -0.02  -0.04   0.07    -0.05  -0.01   0.01     0.17  -0.09   0.11
    10   6    -0.08   0.00   0.05    -0.15   0.04  -0.02    -0.05   0.09   0.03
    11   1    -0.05  -0.05   0.03    -0.02  -0.01  -0.00     0.12  -0.12  -0.12
    12   1    -0.09  -0.09   0.11    -0.06   0.00   0.00     0.15  -0.26   0.20
    13   1    -0.07  -0.17  -0.25    -0.03   0.62   0.22     0.13   0.54  -0.22
    14   1    -0.36   0.23   0.09     0.06  -0.45   0.02    -0.27   0.00   0.11
    15   1    -0.03   0.00   0.02    -0.36   0.05  -0.19    -0.28   0.07  -0.08
                     13                     14                     15
                      A                      A                      A
 Frequencies --    594.1046               612.7829               723.6799
 Red. masses --      3.0308                 6.5913                 1.0826
 Frc consts  --      0.6303                 1.4583                 0.3340
 IR Inten    --      2.9506                 8.4656                79.4688
  Atom  AN      X      Y      Z        X      Y      Z        X      Y      Z
     1   8     0.04   0.25   0.04     0.00   0.08   0.03    -0.01  -0.03  -0.01
     2   1     0.05   0.29   0.07    -0.02   0.12  -0.02     0.17   0.62   0.09
     3   6    -0.01  -0.01  -0.01    -0.24   0.03  -0.07    -0.01   0.00  -0.00
     4   1     0.00  -0.12  -0.06    -0.26   0.41   0.04    -0.01   0.01  -0.00
     5   6    -0.01   0.10   0.05    -0.20  -0.33  -0.17    -0.01  -0.01  -0.01
     6   6     0.01  -0.02  -0.02    -0.01   0.13   0.03     0.00   0.01   0.02
     7   8    -0.06   0.01  -0.01     0.32  -0.08   0.07     0.01   0.01   0.01
     8   8     0.04  -0.03  -0.03     0.05   0.21   0.07    -0.01  -0.01  -0.00
     9   6     0.03  -0.11   0.06     0.02  -0.01   0.04     0.00  -0.02  -0.03
    10   6    -0.02  -0.21  -0.09    -0.02  -0.09  -0.04     0.04  -0.02  -0.01
    11   1    -0.05  -0.09   0.25    -0.19  -0.05  -0.14    -0.02   0.01   0.24
    12   1     0.05   0.08  -0.03     0.16  -0.17   0.09     0.02   0.20  -0.14
    13   1     0.00  -0.17  -0.09    -0.00  -0.03  -0.04     0.06   0.05  -0.02
    14   1    -0.06  -0.74   0.02    -0.06  -0.39   0.03     0.10   0.31  -0.09
    15   1    -0.19  -0.15  -0.05    -0.12  -0.05  -0.05    -0.41  -0.12   0.39
                     16                     17                     18
                      A                      A                      A
 Frequencies --    748.0594               780.4025               788.0839
 Red. masses --      1.3139                 1.5302                 4.6946
 Frc consts  --      0.4332                 0.5491                 1.7179
 IR Inten    --     39.9519                14.6352                49.1846
  Atom  AN      X      Y      Z        X      Y      Z        X      Y      Z
     1   8     0.00  -0.00  -0.00    -0.00  -0.00  -0.00     0.00   0.00   0.00
     2   1    -0.00   0.00  -0.00     0.00   0.01   0.00     0.00  -0.03   0.02
     3   6     0.00  -0.14  -0.04     0.05   0.05  -0.14     0.03   0.02  -0.07
     4   1    -0.02   0.94   0.29    -0.29  -0.28   0.89    -0.24  -0.22   0.73
     5   6    -0.00   0.07   0.02    -0.03  -0.03   0.09     0.05   0.05  -0.13
     6   6     0.00  -0.00  -0.00     0.03   0.03  -0.09    -0.15  -0.17   0.45
     7   8    -0.01   0.00  -0.00    -0.01  -0.01   0.03     0.05   0.05  -0.13
     8   8    -0.00  -0.00  -0.00    -0.01  -0.01   0.02     0.04   0.05  -0.11
     9   6     0.01  -0.00   0.00    -0.00   0.00  -0.00     0.00  -0.00   0.01
    10   6     0.00   0.00  -0.00     0.00  -0.00  -0.00    -0.00  -0.00   0.01
    11   1     0.00  -0.00   0.01     0.00   0.00   0.00    -0.01  -0.01  -0.00
    12   1     0.00   0.00   0.00     0.01   0.00  -0.00    -0.06  -0.01   0.02
    13   1     0.01   0.01  -0.01    -0.00  -0.00   0.01     0.02   0.01  -0.06
    14   1    -0.00   0.00   0.00     0.02   0.01  -0.01    -0.10  -0.05   0.05
    15   1    -0.00   0.00  -0.00     0.00  -0.01   0.02    -0.04   0.02  -0.09
                     19                     20                     21
                      A                      A                      A
 Frequencies --    854.7696               896.8171               948.2525
 Red. masses --      1.9892                 1.9029                 2.4769
 Frc consts  --      0.8563                 0.9017                 1.3122
 IR Inten    --      9.1093                 9.1909                 7.2146
  Atom  AN      X      Y      Z        X      Y      Z        X      Y      Z
     1   8     0.01   0.02  -0.00     0.00  -0.02   0.02     0.01   0.03  -0.01
     2   1    -0.09  -0.42  -0.04     0.00   0.18  -0.04    -0.04  -0.25  -0.00
     3   6    -0.06   0.01  -0.02     0.04  -0.00   0.01     0.09  -0.01   0.03
     4   1    -0.07   0.02  -0.01     0.04   0.01   0.01     0.10  -0.02   0.03
     5   6    -0.04  -0.04  -0.03     0.03  -0.04  -0.00     0.05   0.00   0.02
     6   6     0.06   0.06   0.04    -0.03   0.04  -0.01    -0.12  -0.03  -0.05
     7   8     0.04   0.11   0.05     0.01   0.02   0.01    -0.03  -0.13  -0.06
     8   8    -0.06  -0.10  -0.06    -0.15  -0.04  -0.03    -0.03   0.18   0.06
     9   6     0.03  -0.15   0.03     0.03   0.04   0.08    -0.04  -0.10   0.07
    10   6     0.02   0.04  -0.02     0.17   0.01  -0.01     0.06  -0.01  -0.06
    11   1     0.07  -0.08   0.56    -0.00   0.01  -0.19    -0.46  -0.10   0.33
    12   1    -0.09   0.32  -0.18    -0.22  -0.18   0.21     0.11   0.10  -0.05
    13   1     0.13   0.35  -0.09     0.28   0.04  -0.52     0.23   0.50  -0.17
    14   1     0.06   0.20  -0.06    -0.35  -0.16   0.16     0.11   0.30  -0.14
    15   1     0.22  -0.00  -0.15    -0.30   0.11  -0.31     0.07  -0.09  -0.01
                     22                     23                     24
                      A                      A                      A
 Frequencies --   1006.6418              1091.7201              1137.4910
 Red. masses --      1.1566                 3.8023                 1.8612
 Frc consts  --      0.6905                 2.6701                 1.4188
 IR Inten    --     64.7226                17.4229                 4.0004
  Atom  AN      X      Y      Z        X      Y      Z        X      Y      Z
     1   8    -0.02  -0.01  -0.02     0.00   0.00  -0.00    -0.00  -0.01   0.00
     2   1     0.06  -0.00   0.09     0.01  -0.00   0.02     0.01   0.10  -0.00
     3   6     0.01   0.00   0.00     0.07  -0.00   0.02     0.00   0.00   0.00
     4   1     0.01   0.01   0.01     0.08   0.01   0.03     0.00   0.00   0.00
     5   6     0.01  -0.01  -0.00     0.04  -0.03   0.00     0.00  -0.01   0.00
     6   6    -0.01   0.01   0.01    -0.14   0.07  -0.03    -0.00   0.00   0.00
     7   8     0.00   0.01   0.00     0.00  -0.04  -0.01     0.00   0.01   0.00
     8   8    -0.04  -0.02  -0.03    -0.19   0.06  -0.06    -0.04  -0.01  -0.06
     9   6     0.04   0.03   0.05     0.34  -0.05  -0.06     0.03  -0.02   0.21
    10   6    -0.01  -0.00  -0.05    -0.13  -0.01   0.14    -0.01   0.05  -0.15
    11   1     0.04   0.01  -0.14     0.29  -0.03   0.10     0.03  -0.05  -0.10
    12   1    -0.03  -0.11   0.12     0.59   0.19  -0.22     0.11  -0.19   0.29
    13   1     0.09   0.31  -0.02    -0.23  -0.25   0.27    -0.22  -0.36   0.32
    14   1    -0.00  -0.27   0.01    -0.09  -0.06   0.14     0.53   0.24  -0.35
    15   1     0.44  -0.15   0.73    -0.02   0.03  -0.05    -0.08   0.09  -0.13
                     25                     26                     27
                      A                      A                      A
 Frequencies --   1193.2605              1280.9275              1340.5792
 Red. masses --      1.7044                 2.3073                 1.6463
 Frc consts  --      1.4298                 2.2305                 1.7432
 IR Inten    --      4.8086               395.2476               258.6428
  Atom  AN      X      Y      Z        X      Y      Z        X      Y      Z
     1   8    -0.02  -0.06  -0.00     0.00   0.01   0.00    -0.01  -0.01   0.00
     2   1     0.06   0.24   0.04    -0.02  -0.06  -0.02     0.01   0.06   0.00
     3   6     0.01  -0.00   0.00     0.06  -0.00   0.02     0.02  -0.00   0.01
     4   1     0.01  -0.00   0.00     0.07   0.01   0.03     0.03   0.01   0.01
     5   6     0.00   0.00   0.00     0.02  -0.01   0.00     0.00  -0.00  -0.00
     6   6    -0.02   0.00  -0.01    -0.23   0.18  -0.02    -0.11   0.09  -0.00
     7   8    -0.00  -0.02  -0.01     0.03  -0.03  -0.00     0.02   0.01   0.01
     8   8     0.01   0.05   0.03     0.10  -0.05   0.01     0.07  -0.12  -0.03
     9   6    -0.03  -0.12  -0.01    -0.07  -0.04   0.00    -0.06   0.02   0.01
    10   6     0.05   0.18  -0.03    -0.00  -0.04  -0.01     0.02   0.06   0.01
    11   1     0.10  -0.08   0.29     0.87   0.02  -0.04    -0.57  -0.01   0.09
    12   1    -0.24   0.18  -0.12    -0.27  -0.04   0.04     0.75  -0.07  -0.06
    13   1    -0.12  -0.44  -0.08     0.03   0.07  -0.01     0.01  -0.07  -0.08
    14   1     0.00  -0.55   0.11     0.07   0.11  -0.06    -0.04  -0.15   0.07
    15   1     0.22   0.29   0.11    -0.06  -0.08  -0.01     0.07   0.06  -0.01
                     28                     29                     30
                      A                      A                      A
 Frequencies --   1410.9645              1445.2154              1482.8023
 Red. masses --      1.3474                 1.1830                 1.1033
 Frc consts  --      1.5805                 1.4559                 1.4293
 IR Inten    --     35.9552                 5.5506                26.5717
  Atom  AN      X      Y      Z        X      Y      Z        X      Y      Z
     1   8    -0.00  -0.00  -0.00     0.00  -0.00  -0.00     0.00   0.00  -0.00
     2   1     0.01   0.02   0.01    -0.00  -0.02  -0.00    -0.01  -0.02  -0.01
     3   6    -0.02   0.00  -0.01     0.00  -0.00   0.00    -0.01   0.00  -0.00
     4   1    -0.02  -0.00  -0.01     0.00   0.00   0.00    -0.01  -0.00  -0.00
     5   6    -0.00   0.00   0.00     0.00  -0.00  -0.00    -0.00   0.00   0.00
     6   6     0.07  -0.04   0.01    -0.02   0.01  -0.00     0.04  -0.01   0.01
     7   8    -0.01  -0.01  -0.01     0.00   0.00   0.00    -0.01  -0.01  -0.01
     8   8    -0.04   0.04  -0.02     0.01  -0.01   0.01    -0.02   0.02  -0.01
     9   6    -0.11  -0.02   0.06     0.04   0.03  -0.02    -0.03   0.03  -0.06
    10   6     0.01  -0.00   0.04    -0.08  -0.01   0.07     0.01   0.00  -0.00
    11   1     0.53   0.00  -0.27    -0.15   0.02   0.03     0.26   0.12   0.64
    12   1     0.62   0.22  -0.19    -0.19  -0.06   0.06     0.22  -0.63   0.24
    13   1     0.10   0.03  -0.32     0.06  -0.07  -0.65     0.01   0.00  -0.03
    14   1     0.16  -0.07   0.00     0.67  -0.10  -0.14     0.00  -0.02   0.00
    15   1     0.03   0.00   0.00    -0.02   0.03   0.00    -0.03   0.00   0.02
                     31                     32                     33
                      A                      A                      A
 Frequencies --   1577.1988              1829.3944              2272.1514
 Red. masses --      1.0553                11.6407                 5.7376
 Frc consts  --      1.5466                22.9533                17.4523
 IR Inten    --    134.4695               307.8115                89.0480
  Atom  AN      X      Y      Z        X      Y      Z        X      Y      Z
     1   8    -0.04  -0.01   0.02     0.01   0.00  -0.00    -0.00  -0.00  -0.00
     2   1     0.11   0.55   0.07    -0.02  -0.14  -0.05    -0.00   0.01   0.00
     3   6     0.00   0.00   0.00    -0.07   0.01  -0.02    -0.36   0.03  -0.11
     4   1     0.00   0.00   0.00    -0.10   0.03  -0.02    -0.72   0.05  -0.22
     5   6     0.00   0.00   0.00     0.04  -0.02   0.01     0.51  -0.04   0.16
     6   6     0.01   0.01   0.01     0.38   0.58   0.34    -0.09  -0.00  -0.03
     7   8    -0.00  -0.01  -0.01    -0.25  -0.38  -0.22     0.00   0.00   0.00
     8   8    -0.00   0.00   0.00    -0.01  -0.06  -0.02    -0.00   0.00   0.00
     9   6     0.00   0.00  -0.00     0.04   0.01   0.01     0.00  -0.00  -0.00
    10   6    -0.02  -0.03   0.01    -0.01   0.01  -0.00    -0.00  -0.00  -0.00
    11   1     0.01   0.01   0.02    -0.18  -0.03  -0.11     0.00  -0.00   0.00
    12   1    -0.03  -0.03   0.02    -0.11   0.13  -0.00    -0.00  -0.00   0.00
    13   1     0.04   0.13   0.00    -0.03  -0.05   0.03     0.00   0.00   0.00
    14   1     0.01   0.10  -0.02     0.02  -0.01  -0.01     0.00   0.00  -0.00
    15   1     0.62  -0.21  -0.47    -0.11   0.02   0.07     0.00  -0.00  -0.00
                     34                     35                     36
                      A                      A                      A
 Frequencies --   3079.3788              3117.9573              3133.1861
 Red. masses --      1.0587                 1.0572                 1.1023
 Frc consts  --      5.9150                 6.0555                 6.3754
 IR Inten    --     10.7015                 1.8723                 1.9253
  Atom  AN      X      Y      Z        X      Y      Z        X      Y      Z
     1   8     0.00  -0.00  -0.00    -0.00   0.00   0.00     0.00   0.00  -0.00
     2   1    -0.00  -0.00   0.00    -0.00   0.00   0.00    -0.00   0.00   0.00
     3   6    -0.00   0.00  -0.00    -0.00  -0.00  -0.00    -0.00  -0.00   0.00
     4   1     0.00   0.00  -0.00     0.00   0.00   0.00     0.00  -0.00   0.00
     5   6     0.00  -0.00   0.00     0.00  -0.00   0.00     0.00   0.00  -0.00
     6   6    -0.00   0.00   0.00     0.00   0.00   0.00    -0.00  -0.00  -0.00
     7   8    -0.00  -0.00  -0.00    -0.00  -0.00  -0.00     0.00   0.00   0.00
     8   8     0.00  -0.00   0.00     0.00  -0.00  -0.00    -0.00   0.00   0.00
     9   6     0.01  -0.05   0.05     0.00   0.02   0.02    -0.01  -0.07  -0.05
    10   6    -0.00   0.00  -0.00     0.04  -0.02  -0.05     0.01  -0.01  -0.01
    11   1    -0.06   0.82  -0.08     0.01  -0.12   0.01    -0.04   0.53  -0.07
    12   1    -0.08  -0.26  -0.49    -0.03  -0.10  -0.20     0.11   0.34   0.70
    13   1     0.04  -0.01   0.01    -0.63   0.18  -0.14    -0.21   0.06  -0.05
    14   1     0.00   0.00   0.00     0.20   0.12   0.66     0.04   0.02   0.15
    15   1    -0.00   0.01   0.00     0.00  -0.01  -0.01     0.00  -0.00  -0.00
                     37                     38                     39
                      A                      A                      A
 Frequencies --   3205.8488              3490.0405              3818.6991
 Red. masses --      1.1114                 1.1716                 1.0653
 Frc consts  --      6.7296                 8.4081                 9.1524
 IR Inten    --      1.6787                63.4266               130.3088
  Atom  AN      X      Y      Z        X      Y      Z        X      Y      Z
     1   8     0.00   0.00   0.00    -0.00   0.00   0.00    -0.05   0.01   0.03
     2   1    -0.00  -0.00  -0.00     0.00  -0.00  -0.00     0.82  -0.15  -0.54
     3   6     0.00   0.00   0.00    -0.11   0.01  -0.03     0.00   0.00   0.00
     4   1    -0.00   0.00  -0.00     0.95  -0.07   0.29    -0.00  -0.00  -0.00
     5   6    -0.00   0.00  -0.00     0.03  -0.00   0.01     0.00   0.00   0.00
     6   6     0.00  -0.00  -0.00    -0.00   0.00  -0.00    -0.00  -0.00  -0.00
     7   8     0.00   0.00   0.00     0.00  -0.00  -0.00    -0.00   0.00   0.00
     8   8     0.00   0.00   0.00     0.00   0.00   0.00    -0.00   0.00   0.00
     9   6    -0.00  -0.00  -0.01    -0.00   0.00  -0.00     0.00  -0.00  -0.00
    10   6    -0.07   0.01  -0.07     0.00  -0.00   0.00     0.00   0.00  -0.00
    11   1    -0.00   0.00  -0.00     0.00  -0.00   0.00    -0.00   0.00   0.00
    12   1     0.01   0.03   0.06     0.00   0.00  -0.00    -0.00   0.00   0.00
    13   1     0.67  -0.20   0.13     0.00  -0.00  -0.00    -0.00  -0.00  -0.00
    14   1     0.19   0.13   0.66    -0.00   0.00  -0.00     0.00  -0.00   0.00
    15   1    -0.01   0.00  -0.01    -0.00   0.00   0.00    -0.01  -0.02   0.00

 -------------------
 - Thermochemistry -
 -------------------
 Temperature   298.150 Kelvin.  Pressure   1.00000 Atm.
 Atom     1 has atomic number  8 and mass  15.99491
 Atom     2 has atomic number  1 and mass   1.00783
 Atom     3 has atomic number  6 and mass  12.00000
 Atom     4 has atomic number  1 and mass   1.00783
 Atom     5 has atomic number  6 and mass  12.00000
 Atom     6 has atomic number  6 and mass  12.00000
 Atom     7 has atomic number  8 and mass  15.99491
 Atom     8 has atomic number  8 and mass  15.99491
 Atom     9 has atomic number  6 and mass  12.00000
 Atom    10 has atomic number  6 and mass  12.00000
 Atom    11 has atomic number  1 and mass   1.00783
 Atom    12 has atomic number  1 and mass   1.00783
 Atom    13 has atomic number  1 and mass   1.00783
 Atom    14 has atomic number  1 and mass   1.00783
 Atom    15 has atomic number  1 and mass   1.00783
 Molecular mass:   115.03952 amu.
 Principal axes and moments of inertia in atomic units:
                           1         2         3
     Eigenvalues --   538.777281519.763481850.97996
           X            0.99973  -0.02318   0.00315
           Y            0.02320   0.99971  -0.00661
           Z           -0.00299   0.00668   0.99997
 This molecule is an asymmetric top.
 Rotational symmetry number  1.
 Warning -- assumption of classical behavior for rotation
           may cause significant error
 Rotational temperatures (Kelvin)      0.16076     0.05699     0.04679
 Rotational constants (GHZ):           3.34970     1.18751     0.97502
    1 imaginary frequencies ignored.
 Zero-point vibrational energy     280768.7 (Joules/Mol)
                                   67.10533 (Kcal/Mol)
 Warning -- explicit consideration of  13 degrees of freedom as
           vibrations may cause significant error
 Vibrational temperatures:     25.68   128.57   168.90   264.03   278.82
          (Kelvin)            393.00   483.80   565.48   601.26   700.63
                              821.92   854.78   881.66  1041.21  1076.29
                             1122.83  1133.88  1229.82  1290.32  1364.32
                             1448.33  1570.74  1636.60  1716.84  1842.97
                             1928.79  2030.06  2079.34  2133.42  2269.24
                             2632.09  3269.12  4430.54  4486.05  4507.96
                             4612.50  5021.39  5494.26
 
 Zero-point correction=                           0.106939 (Hartree/Particle)
 Thermal correction to Energy=                    0.116131
 Thermal correction to Enthalpy=                  0.117075
 Thermal correction to Gibbs Free Energy=         0.070980
 Sum of electronic and zero-point Energies=           -420.100801
 Sum of electronic and thermal Energies=              -420.091609
 Sum of electronic and thermal Enthalpies=            -420.090665
 Sum of electronic and thermal Free Energies=         -420.136760
 
                     E (Thermal)             CV                S
                      KCal/Mol        Cal/Mol-Kelvin    Cal/Mol-Kelvin
 Total                   72.873             32.359             97.015
 Electronic               0.000              0.000              1.377
 Translational            0.889              2.981             40.136
 Rotational               0.889              2.981             28.807
 Vibrational             71.096             26.397             26.695
 Vibration     1          0.593              1.986              6.860
 Vibration     2          0.602              1.957              3.674
 Vibration     3          0.608              1.935              3.143
 Vibration     4          0.631              1.862              2.292
 Vibration     5          0.635              1.849              2.191
 Vibration     6          0.676              1.723              1.576
 Vibration     7          0.717              1.603              1.230
 Vibration     8          0.760              1.485              0.989
 Vibration     9          0.781              1.431              0.899
 Vibration    10          0.843              1.279              0.692
 Vibration    11          0.927              1.093              0.502
 Vibration    12          0.952              1.044              0.460
 Vibration    13          0.972              1.005              0.428
                       Q            Log10(Q)             Ln(Q)
 Total Bot       0.224613D-32        -32.648564        -75.176097
 Total V=0       0.346726D+17         16.539986         38.084726
 Vib (Bot)       0.525463D-46        -46.279458       -106.562390
 Vib (Bot)    1  0.116082D+02          1.064766          2.451715
 Vib (Bot)    2  0.230116D+01          0.361946          0.833411
 Vib (Bot)    3  0.174186D+01          0.241012          0.554951
 Vib (Bot)    4  0.109316D+01          0.038682          0.089068
 Vib (Bot)    5  0.103135D+01          0.013406          0.030870
 Vib (Bot)    6  0.706384D+00         -0.150959         -0.347597
 Vib (Bot)    7  0.553511D+00         -0.256874         -0.591474
 Vib (Bot)    8  0.455801D+00         -0.341225         -0.785700
 Vib (Bot)    9  0.420849D+00         -0.375874         -0.865482
 Vib (Bot)   10  0.341392D+00         -0.466747         -1.074724
 Vib (Bot)   11  0.269074D+00         -0.570129         -1.312770
 Vib (Bot)   12  0.252858D+00         -0.597123         -1.374927
 Vib (Bot)   13  0.240465D+00         -0.618947         -1.425179
 Vib (V=0)       0.811134D+03          2.909093          6.698433
 Vib (V=0)    1  0.121190D+02          1.083467          2.494775
 Vib (V=0)    2  0.285485D+01          0.455583          1.049019
 Vib (V=0)    3  0.231220D+01          0.364025          0.838199
 Vib (V=0)    4  0.170208D+01          0.230979          0.531849
 Vib (V=0)    5  0.164616D+01          0.216472          0.498446
 Vib (V=0)    6  0.136543D+01          0.135271          0.311473
 Vib (V=0)    7  0.124590D+01          0.095485          0.219862
 Vib (V=0)    8  0.117658D+01          0.070620          0.162608
 Vib (V=0)    9  0.115354D+01          0.062032          0.142835
 Vib (V=0)   10  0.110543D+01          0.043532          0.100237
 Vib (V=0)   11  0.106780D+01          0.028491          0.065604
 Vib (V=0)   12  0.106030D+01          0.025429          0.058553
 Vib (V=0)   13  0.105482D+01          0.023178          0.053369
 Electronic      0.200000D+01          0.301030          0.693147
 Translational   0.484981D+08          7.685724         17.697035
 Rotational      0.440696D+06          5.644139         12.996111
 ***** Axes restored to original set *****
 -------------------------------------------------------------------
 Center     Atomic                   Forces (Hartrees/Bohr)
 Number     Number              X              Y              Z
 -------------------------------------------------------------------
      1        8          -0.003763364   -0.024659464   -0.003544872
      2        1           0.001309552    0.002135215   -0.000345002
      3        6           0.000033558   -0.000034366   -0.000000668
      4        1          -0.000002302    0.000019562    0.000007250
      5        6           0.000029495   -0.000173127   -0.000106392
      6        6          -0.000634024    0.001475731    0.000420577
      7        8          -0.000518378   -0.000938503    0.000195537
      8        8           0.001197261   -0.001377600   -0.000175114
      9        6          -0.000656155    0.004082681   -0.001056612
     10        6          -0.003499170   -0.022811204    0.000808312
     11        1           0.000462160    0.000029702   -0.000000162
     12        1           0.000204010    0.000027223    0.000159287
     13        1           0.001215902    0.004298496    0.000545902
     14        1          -0.000406149    0.004403607   -0.000884302
     15        1           0.005027604    0.033522047    0.003976260
 -------------------------------------------------------------------
 Cartesian Forces:  Max     0.033522047 RMS     0.007311659

 GradGradGradGradGradGradGradGradGradGradGradGradGradGradGradGradGradGrad
 Berny optimization.
 Search for a local minimum.
 Step number   1 out of a maximum of    2
 All quantities printed in internal units (Hartrees-Bohrs-Radians)
 Second derivative matrix not updated -- analytic derivatives used.
 ITU=  0
     Eigenvalues ---   -0.09890   0.00008   0.00121   0.00310   0.00472
     Eigenvalues ---    0.00691   0.01051   0.01443   0.01651   0.02214
     Eigenvalues ---    0.02488   0.03161   0.03561   0.04819   0.05315
     Eigenvalues ---    0.06517   0.07036   0.08634   0.09333   0.09525
     Eigenvalues ---    0.10857   0.13020   0.15444   0.16841   0.19078
     Eigenvalues ---    0.25430   0.29736   0.34833   0.44984   0.52385
     Eigenvalues ---    0.64459   0.72151   0.79675   0.83924   0.89403
     Eigenvalues ---    0.91051   0.98172   1.70437   2.74377
 Eigenvalue     1 is  -9.89D-02 should be greater than     0.000000 Eigenvector:
                          Y15       Y10       Y1        X15       Z15
   1                    0.87968  -0.38400  -0.11697   0.11189   0.09016
                          Y2        Z14       X13       Y13       X1
   1                    0.08149  -0.07836   0.07790   0.06750  -0.06275
 Quadratic step=5.586D-01 exceeds max=3.000D-01 adjusted using Lamda=-5.808D-02.
 Angle between NR and scaled steps=  25.36 degrees.
 Angle between quadratic step and forces=  19.74 degrees.
 Linear search not attempted -- first point.
 B after Tr=    -0.002178   -0.013265   -0.001383
         Rot=    0.999998    0.001530   -0.000227    0.001506 Ang=   0.25 deg.
 Variable       Old X    -DE/DX   Delta X   Delta X   Delta X     New X
                                 (Linear)    (Quad)   (Total)
    X1        4.42561  -0.00376   0.00000  -0.03016  -0.02353   4.40208
    Y1        3.13409  -0.02466   0.00000  -0.10586  -0.13434   2.99974
    Z1       -0.62947  -0.00354   0.00000  -0.00500  -0.01762  -0.64709
    X2        2.90602   0.00131   0.00000   0.00338   0.01152   2.91753
    Y2        3.36884   0.00214   0.00000   0.00469  -0.01625   3.35259
    Z2        0.36491  -0.00035   0.00000   0.00058  -0.01244   0.35247
    X3       -6.26916   0.00003   0.00000   0.00059  -0.00095  -6.27011
    Y3        0.35759  -0.00003   0.00000  -0.00743  -0.00479   0.35280
    Z3       -0.97559  -0.00000   0.00000  -0.00086  -0.00050  -0.97608
    X4       -8.18912  -0.00000   0.00000   0.00035  -0.00104  -8.19015
    Y4        0.49502   0.00002   0.00000  -0.00607   0.00055   0.49557
    Z4       -1.56379   0.00001   0.00000  -0.00040   0.00040  -1.56339
    X5       -4.11077   0.00003   0.00000   0.00084  -0.00085  -4.11162
    Y5        0.20241  -0.00017   0.00000  -0.00083  -0.00267   0.19974
    Z5       -0.31241  -0.00011   0.00000  -0.00075  -0.00091  -0.31331
    X6       -1.49518  -0.00063   0.00000  -0.00143  -0.00296  -1.49814
    Y6        0.11701   0.00148   0.00000   0.01710   0.00993   0.12695
    Z6        0.51688   0.00042   0.00000   0.00287   0.00174   0.51862
    X7       -0.43381  -0.00052   0.00000  -0.01601  -0.01183  -0.44564
    Y7        1.86327  -0.00094   0.00000   0.01371   0.00646   1.86973
    Z7        1.50944   0.00020   0.00000   0.01692   0.00998   1.51942
    X8       -0.46212   0.00120   0.00000   0.01805   0.00955  -0.45257
    Y8       -2.12872  -0.00138   0.00000   0.02230   0.01051  -2.11820
    Z8        0.05108  -0.00018   0.00000  -0.01282  -0.00755   0.04353
    X9        2.11933  -0.00066   0.00000   0.00473  -0.00449   2.11484
    Y9       -2.48718   0.00408   0.00000   0.02543   0.00834  -2.47884
    Z9        0.83550  -0.00106   0.00000  -0.00256   0.00263   0.83813
   X10        3.96493  -0.00350   0.00000  -0.00421  -0.01197   3.95296
   Y10       -1.56620  -0.02281   0.00000  -0.11067  -0.13928  -1.70548
   Z10       -1.11664   0.00081   0.00000  -0.00337  -0.00139  -1.11803
   X11        2.28477   0.00046   0.00000   0.01872   0.00343   2.28820
   Y11       -4.53298   0.00003   0.00000   0.02289   0.00595  -4.52704
   Z11        1.06444  -0.00000   0.00000  -0.01190  -0.00051   1.06392
   X12        2.41017   0.00020   0.00000   0.00690   0.00122   2.41138
   Y12       -1.58046   0.00003   0.00000   0.01508   0.00271  -1.57774
   Z12        2.66571   0.00016   0.00000   0.00344   0.00575   2.67146
   X13        5.89353   0.00122   0.00000   0.02688   0.01801   5.91154
   Y13       -2.16229   0.00430   0.00000   0.05740   0.02413  -2.13816
   Z13       -0.71995   0.00055   0.00000   0.00750   0.00991  -0.71004
   X14        3.39458  -0.00041   0.00000  -0.00147  -0.01079   3.38379
   Y14       -1.96252   0.00440   0.00000   0.06425   0.03138  -1.93114
   Z14       -3.05319  -0.00088   0.00000  -0.01853  -0.01561  -3.06880
   X15        4.23220   0.00503   0.00000   0.02349   0.02469   4.25689
   Y15        1.04899   0.03352   0.00000   0.22646   0.19738   1.24637
   Z15       -1.00555   0.00398   0.00000   0.03331   0.02612  -0.97943
         Item               Value     Threshold  Converged?
 Maximum Force            0.033522     0.000450     NO 
 RMS     Force            0.007312     0.000300     NO 
 Maximum Displacement     0.197383     0.001800     NO 
 RMS     Displacement     0.042813     0.001200     NO 
 Predicted change in Energy=-1.700603D-02
 GradGradGradGradGradGradGradGradGradGradGradGradGradGradGradGradGradGrad


 ----------------------------------------------------------------------

 Electric dipole moment (input orientation):
 (Debye = 10**-18 statcoulomb cm , SI units = C m)
                  (au)            (Debye)         (10**-30 SI)
   Tot        0.174957D+01      0.444696D+01      0.148335D+02
   x         -0.842543D+00     -0.214153D+01     -0.714338D+01
   y         -0.153317D+01     -0.389694D+01     -0.129988D+02
   z         -0.222307D-01     -0.565047D-01     -0.188479D+00

 Dipole polarizability, Alpha (input orientation).
 (esu units = cm**3 , SI units = C**2 m**2 J**-1)
 Alpha(0;0):
               (au)            (10**-24 esu)      (10**-40 SI)
   iso        0.735024D+02      0.108919D+02      0.121189D+02
   aniso      0.380460D+02      0.563783D+01      0.627294D+01
   xx         0.933763D+02      0.138369D+02      0.153957D+02
   yx        -0.971941D+00     -0.144027D+00     -0.160251D+00
   yy         0.747283D+02      0.110736D+02      0.123210D+02
   zx         0.746524D+01      0.110623D+01      0.123085D+01
   zy         0.223341D+01      0.330957D+00      0.368239D+00
   zz         0.524027D+02      0.776527D+01      0.864003D+01

 ----------------------------------------------------------------------

 Dipole orientation:
     8          1.74328116         -1.74693054         -4.86969567
     1          0.95916193         -0.17385027         -4.35625622
     6         -5.41922015          1.90421801          2.71808695
     1         -7.23019471          2.23996888          3.52972284
     6         -3.38213101          1.52831355          1.80622089
     6         -0.94507007          1.11804986          0.61092864
     8         -0.40144196          1.92216873         -1.44307976
     8          0.58092900         -0.23068619          2.08732101
     6          3.08697593         -0.72635352          1.14832340
     6          3.16530026         -3.02128977         -0.52272611
     1          4.19826449         -1.05100023          2.85851553
     1          3.80330837          0.95464109          0.19043675
     1          5.08670885         -3.63046681         -0.93416212
     1          1.96573506         -4.56258052          0.12385169
     1          2.30545073         -2.45711146         -2.94457544

 Electric dipole moment (dipole orientation):
 (Debye = 10**-18 statcoulomb cm , SI units = C m)
                  (au)            (Debye)         (10**-30 SI)
   Tot        0.174957D+01      0.444696D+01      0.148335D+02
   x          0.000000D+00      0.000000D+00      0.000000D+00
   y          0.000000D+00      0.000000D+00      0.000000D+00
   z          0.174957D+01      0.444696D+01      0.148335D+02

 Dipole polarizability, Alpha (dipole orientation).
 (esu units = cm**3 , SI units = C**2 m**2 J**-1)
 Alpha(0;0):
               (au)            (10**-24 esu)      (10**-40 SI)
   iso        0.735024D+02      0.108919D+02      0.121189D+02
   aniso      0.380460D+02      0.563783D+01      0.627294D+01
   xx         0.856844D+02      0.126971D+02      0.141274D+02
   yx        -0.129920D+02     -0.192522D+01     -0.214209D+01
   yy         0.564527D+02      0.836543D+01      0.930779D+01
   zx        -0.901694D+01     -0.133617D+01     -0.148669D+01
   zy        -0.100416D+01     -0.148801D+00     -0.165564D+00
   zz         0.783701D+02      0.116133D+02      0.129215D+02

 ----------------------------------------------------------------------
 1\1\GINC-AJ\Freq\UM062X\6-311++G(d,p)\C5H7O3(2)\AAYUSH\16-Aug-2025\0\\
 # freq 6-311++g(d,p) m062x\\Title Card Required\\0,2\O,2.34193,1.65848
 8,-0.333101\H,1.537799,1.782713,0.193102\C,-3.317496,0.189227,-0.51625
 8\H,-4.333494,0.261954,-0.827522\C,-2.175325,0.107113,-0.165318\C,-0.7
 91216,0.061921,0.273522\O,-0.229562,0.986,0.79876\O,-0.244543,-1.12646
 9,0.027032\C,1.121501,-1.316157,0.442125\C,2.098152,-0.828798,-0.5909\
 H,1.209047,-2.398752,0.563276\H,1.275405,-0.836341,1.410634\H,3.118723
 ,-1.144236,-0.380979\H,1.796332,-1.038523,-1.615677\H,2.239584,0.55510
 1,-0.532113\\Version=ES64L-G16RevA.03\State=2-A\HF=-420.2077401\S2=0.7
 59231\S2-1=0.\S2A=0.750044\RMSD=6.042e-09\RMSF=7.312e-03\ZeroPoint=0.1
 069391\Thermal=0.1161308\Dipole=-0.8425433,-1.5331733,-0.0222307\Dipol
 eDeriv=-0.5337848,0.0934855,-0.0573259,0.0409047,-0.2958451,0.0263121,
 -0.0215292,0.0174505,-0.5214696,0.3684711,-0.0533786,0.0292486,0.04875
 94,0.319558,0.0172144,-0.000685,0.0556213,0.2781913,-0.2200968,0.00079
 08,-0.0137074,0.0099724,-0.1462295,-0.0026105,-0.0201025,-0.0061567,-0
 .1355595,0.2783165,-0.0060216,0.0189296,-0.0058192,0.223593,0.0048499,
 0.0218684,0.0045134,0.2134849,-0.6914423,0.0427949,-0.1543503,0.067563
 8,-0.1193894,0.0032418,-0.1877284,0.0064439,-0.1431678,2.0917595,-0.17
 93126,0.3897045,-0.5955867,1.6582033,0.3765217,0.3107596,0.4078966,0.6
 652532,-0.9804472,-0.2347855,-0.2169673,-0.0998124,-0.8895797,-0.24455
 33,-0.1486519,-0.2866557,-0.5329737,-1.3722031,0.4476466,-0.0192374,0.
 71648,-0.9998252,-0.1148577,-0.0552242,-0.0854928,-0.3597496,0.9384412
 ,-0.1237226,-0.0030078,-0.2372691,0.1073126,0.0245399,0.1102047,-0.068
 6693,0.2444612,-0.0255064,0.1334993,0.0052864,0.1626366,0.6440216,0.04
 14135,0.0163094,0.0140329,0.0051824,-0.0258811,-0.0653893,0.0264548,0.
 043142,-0.0414768,0.0335222,0.0142198,0.0481914,0.0841002,-0.0181266,0
 .0215179,0.0305902,-0.0119402,0.0735776,-0.0755118,-0.0260228,-0.00954
 76,-0.0135705,-0.0417238,-0.0015079,-0.007714,0.0461472,-0.0048988,0.0
 077533,-0.007294,-0.0040938,0.0630237,0.0575981,-0.0103116,-0.0396367,
 -0.0501107,-0.0209369,-0.049611,0.0068433,0.025367,-0.0144635,0.174625
 8,-0.0653052,0.0117326,-0.1350677,-0.5080847,-0.0482243,-0.0129671,-0.
 1189009,0.1672572\Polar=93.3762831,-0.9719414,74.7282691,7.4652359,2.2
 334069,52.4026567\Quadrupole=4.5960284,-4.0209572,-0.5750711,-7.824024
 6,2.9704934,-0.3385155\PG=C01 [X(C5H7O3)]\NImag=1\\0.39673569,-0.03409
 774,0.15308790,-0.24018018,0.05102717,0.18082116,-0.35648326,0.0648906
 3,0.23211383,0.36051097,0.03014574,-0.03898776,-0.02610210,-0.05668927
 ,0.05263540,0.22361072,-0.04782149,-0.15582822,-0.23160856,0.04632715,
 0.16035638,-0.00023644,-0.00014679,0.00018903,0.00029223,0.00038914,-0
 .00012789,1.43642788,-0.00003356,0.00007385,-0.00009551,0.00006342,-0.
 00009380,0.00011477,-0.09752365,0.06457970,-0.00006825,-0.00006595,0.0
 0015123,0.00006363,0.00006335,-0.00018289,0.42214837,-0.03152784,0.190
 95176,0.00011899,0.00002071,-0.00000881,-0.00012878,-0.00006525,-0.000
 00576,-0.38837527,0.02542772,-0.10976360,0.37866269,0.00004270,-0.0000
 2394,-0.00000190,-0.00005540,0.00001786,0.00001417,0.02549558,-0.02944
 988,0.00869763,-0.02571122,0.01879811,0.00005654,0.00002951,-0.0000634
 4,-0.00006419,-0.00004892,0.00005582,-0.10967821,0.00869672,-0.0637110
 1,0.11050993,-0.00823565,0.05197046,-0.00055081,-0.00020224,0.00050328
 ,0.00089135,0.00052863,-0.00050780,-1.04736636,0.07257950,-0.31083084,
 0.00981223,0.00017726,0.00055932,1.36898661,-0.00036770,-0.00010801,0.
 00041583,0.00044620,0.00023975,-0.00066174,0.07087319,-0.03975179,0.02
 213923,-0.00004868,0.00518777,-0.00107245,-0.09113505,0.11227078,-0.00
 067802,-0.00023016,0.00034728,0.00084786,0.00087034,-0.00013763,-0.311
 36117,0.02267523,-0.13023635,0.00054691,-0.00097016,0.00781819,0.40092
 047,-0.01266897,0.19092540,0.00163285,0.00065111,-0.00054971,-0.002999
 27,-0.00305911,-0.00042056,0.00551833,-0.00145904,0.00034377,-0.001073
 09,0.00009872,-0.00223878,-0.25680691,0.01052177,-0.05590827,0.7051809
 0,0.00897629,0.00003496,-0.00277526,-0.01199926,-0.00364600,0.00301192
 ,-0.00168213,0.00332279,-0.00040832,0.00090844,0.00548688,0.00017755,0
 .02048120,-0.06195414,0.01153170,0.11263995,0.77946648,0.00364698,0.00
 048464,-0.00217295,-0.00513289,-0.00176985,0.00209391,0.00004259,-0.00
 041472,0.00251213,-0.00195556,-0.00002392,0.00517654,-0.05231719,0.007
 61901,-0.08850848,0.20577480,0.24334940,0.36816842,-0.00781572,-0.0035
 8898,0.00349622,-0.00140660,0.00255497,0.00152314,-0.00266196,0.001079
 23,-0.00060639,0.00054140,0.00129464,0.00099643,-0.03664745,-0.0374221
 8,-0.03310061,-0.26180173,-0.23570778,-0.14552088,0.27341267,-0.007614
 92,-0.00036646,0.00262340,0.00570806,0.00140788,-0.00143442,0.00237940
 ,0.00081440,0.00094944,-0.00008848,-0.00009882,0.00032598,-0.03118081,
 -0.00188908,-0.01914845,-0.23071444,-0.46578712,-0.21654460,0.27164143
 ,0.56506597,0.00153454,0.00094611,0.00181914,0.00333576,-0.00000927,-0
 .00396029,0.00003138,0.00049527,0.00057435,0.00046127,0.00072705,-0.00
 060480,-0.03047847,-0.02034072,0.00403685,-0.14494636,-0.22211881,-0.2
 0928408,0.17203608,0.28135306,0.19754830,0.00291055,-0.00126867,-0.000
 26492,-0.00412542,-0.00006380,0.00099776,-0.00443281,-0.00011055,-0.00
 157859,0.00072788,-0.00131214,-0.00010251,-0.04071704,0.04543434,-0.00
 108780,-0.15391664,0.08488227,0.00249051,0.03644816,0.00175867,0.00005
 415,0.42676427,-0.00387727,0.00027354,0.00122395,0.00623681,0.00092497
 ,-0.00204580,-0.00010667,0.00025308,-0.00013072,-0.00052084,-0.0000581
 9,-0.00006968,0.02675249,-0.01071219,0.00106399,0.06545509,-0.24936441
 ,-0.04765003,-0.00148016,-0.09875036,-0.04521466,-0.13287865,0.4371418
 5,-0.00074322,0.00004039,0.00081170,0.00110770,0.00001140,-0.00069630,
 -0.00162310,-0.00009971,-0.00014316,0.00017829,-0.00032729,-0.00043295
 ,-0.00739313,0.00725004,0.01122394,-0.00608306,-0.03863305,-0.08216797
 ,-0.00012048,-0.04576022,0.01428689,0.07063027,0.08709523,0.14018022,-
 0.00201705,0.00289504,0.00010765,0.00396210,-0.00022155,-0.00090661,0.
 00149380,0.00002243,0.00045803,-0.00038399,0.00008163,-0.00003074,0.00
 426719,-0.00079053,-0.00007478,-0.03163371,0.04373968,0.00321019,-0.00
 539528,-0.01934121,-0.00698800,-0.17320866,0.01148294,-0.03954075,0.43
 292347,0.00140121,0.00333655,0.00055096,-0.00243421,-0.00037439,0.0013
 3372,0.00019732,0.00026414,0.00027863,0.00011234,0.00009618,0.00018140
 ,0.00194247,-0.00277491,-0.00283620,0.04379522,-0.01605252,0.01153682,
 0.00257576,0.00360742,0.00339590,-0.00835255,-0.08139984,-0.01143158,-
 0.00304843,0.58806977,-0.00095997,-0.00310087,-0.00098556,0.00055066,0
 .00016821,0.00079889,0.00066569,0.00014960,0.00008299,-0.00000205,0.00
 014930,-0.00024210,-0.00006769,-0.00335238,0.00520602,0.00425299,0.015
 51100,0.00643438,-0.00242559,-0.00363702,-0.00686403,-0.04779331,-0.00
 491206,-0.08769708,0.00151297,0.04103786,0.55993738,-0.00033601,-0.016
 14263,-0.00137518,0.00100981,0.00204370,-0.00175176,-0.00017664,-0.000
 04468,-0.00003608,0.00002946,-0.00003948,0.00007133,-0.00029375,0.0010
 6759,-0.00123526,-0.00029685,-0.00692473,-0.00082971,0.00086764,0.0014
 1889,0.00214782,-0.04538355,-0.00615283,0.02176475,-0.12644154,-0.0331
 7796,0.05134064,0.54479053,-0.01852133,-0.12348791,-0.01754365,0.00893
 672,0.00215183,-0.00497250,0.00032288,-0.00009440,0.00004703,-0.000078
 55,0.00009733,-0.00000552,0.00035567,-0.00089884,0.00020320,-0.0002797
 2,0.01204310,0.00289244,-0.00375175,-0.00567982,-0.00082096,0.01115222
 ,-0.00239327,-0.00737635,-0.03318945,-0.07472679,0.03010756,-0.0271045
 3,0.18333130,-0.00042583,-0.00507447,0.00165518,-0.00096848,-0.0009378
 7,-0.00030969,-0.00027963,-0.00003986,0.00000146,0.00003085,-0.0000104
 7,0.00004686,0.00012570,0.00056937,-0.00096603,0.00011719,-0.00368183,
 0.00012197,0.00003561,0.00129548,0.00075665,-0.01038252,-0.00254438,0.
 01216242,0.06474109,0.04378520,-0.15725876,0.04862743,-0.01060411,0.54
 310836,0.00046383,-0.00009023,-0.00013067,-0.00081110,0.00003358,0.000
 38081,-0.00042907,-0.00006163,-0.00014064,0.00005691,-0.00004705,-0.00
 004239,-0.00108957,0.00114145,0.00068652,-0.00388019,-0.00390487,-0.00
 531502,0.00195322,0.00147645,0.00105616,-0.02174667,0.04260473,-0.0057
 3698,-0.04071463,0.00400677,-0.00054675,0.00072566,-0.01857265,0.00435
 958,0.06384484,0.00002252,-0.00065672,-0.00026867,0.00013515,0.0001747
 1,-0.00015107,0.00009427,-0.00000346,-0.00000697,-0.00002543,0.0000088
 7,-0.00000745,0.00021294,-0.00019849,0.00014705,-0.00105147,0.00127801
 ,0.00076830,0.00067638,-0.00003834,0.00038201,0.00511065,-0.00377002,-
 0.00020556,0.02260206,-0.31101535,0.02273307,-0.00454717,-0.01083134,0
 .00422399,-0.02269121,0.33438215,-0.00006531,0.00058427,0.00038915,0.0
 0028773,0.00011538,-0.00038441,-0.00005983,-0.00001284,-0.00005248,0.0
 0000211,-0.00000376,-0.00001852,-0.00035959,0.00022604,0.00036958,-0.0
 0177057,-0.00263346,-0.00196926,0.00200834,-0.00027266,0.00105519,-0.0
 0699841,0.01309536,-0.00071745,-0.00264535,0.02572950,-0.04985825,0.00
 323213,0.02376022,-0.00583196,0.00374500,-0.03073643,0.05165429,0.0000
 4789,0.00025138,-0.00063924,-0.00011103,-0.00017495,0.00021880,-0.0000
 7836,0.00004013,0.00001662,0.00005062,-0.00000942,-0.00003138,-0.00047
 051,-0.00002504,0.00051045,0.00145827,-0.00741590,-0.00366782,0.001075
 68,0.00286377,0.00170069,-0.02250381,-0.00909002,-0.03464047,-0.053917
 12,-0.01008228,-0.02165724,0.00698301,0.00928382,0.01919857,0.00183801
 ,0.00025037,0.00229218,0.06806869,0.00015289,0.00076684,-0.00074116,0.
 00029773,-0.00055932,0.00045651,-0.00007946,0.00001516,0.00002460,-0.0
 0000374,0.00000660,0.00003199,-0.00008178,0.00001233,-0.00074266,0.002
 06428,0.00242288,0.00212697,0.00031214,-0.00242206,0.00009398,0.001223
 24,0.00225726,0.00758629,-0.01712009,-0.10348778,-0.11178040,0.0019702
 8,0.00581707,0.01317477,-0.00350494,-0.01230171,-0.02762571,0.01639258
 ,0.10815276,0.00002861,0.00055147,0.00076939,-0.00017450,0.00057498,-0
 .00028697,0.00003846,0.00000412,0.00007925,0.00000337,-0.00001690,-0.0
 0000429,-0.00004259,0.00027217,-0.00019336,0.00009111,-0.00488909,-0.0
 0069098,0.00260790,0.00055693,0.00112547,-0.00980010,-0.00011234,-0.00
 675469,-0.03161833,-0.10608541,-0.25824422,-0.00028741,-0.00685575,-0.
 02009070,0.00118599,0.00160226,0.00529304,0.03467384,0.11516339,0.2809
 9059,0.00157002,0.00119850,0.00029825,-0.00058030,-0.00060571,0.000298
 86,-0.00009139,0.00000746,0.00000372,0.00002810,-0.00001160,0.00000910
 ,-0.00017158,0.00025302,-0.00027107,0.00061279,-0.00321897,-0.00064389
 ,0.00064422,0.00101944,0.00048828,-0.00386969,0.00055979,0.00375586,-0
 .01401447,0.00755406,-0.00778881,-0.29799115,0.07608509,-0.05055407,0.
 00039617,-0.00024684,-0.00031801,0.00013249,0.00003146,0.00063974,0.31
 852579,0.00090732,0.00688648,0.00014407,-0.00100773,-0.00076754,0.0011
 3507,-0.00003359,0.00000970,-0.00004515,0.00000198,-0.00001739,0.00000
 972,-0.00008545,0.00026469,-0.00000569,-0.00064349,-0.00258941,-0.0004
 5856,0.00092991,0.00098770,0.00015210,-0.00378612,0.00192503,0.0023379
 9,-0.00995048,0.00424003,-0.00219488,0.09304591,-0.04970471,0.02280178
 ,0.00065793,0.00078370,-0.00116392,0.00008363,-0.00000990,0.00040399,-
 0.08317256,0.05064680,0.00069352,0.00127635,-0.00012284,-0.00006895,-0
 .00028199,0.00003217,0.00012475,0.00001256,0.00001685,-0.00001019,0.00
 001375,-0.00001604,0.00007582,-0.00035527,0.00032620,0.00006977,0.0019
 7190,0.00013515,-0.00019930,-0.00053784,-0.00043928,0.00591830,0.00041
 577,-0.00254661,0.01760705,-0.00684857,0.00798622,-0.05124384,0.018531
 03,-0.06324275,-0.00020855,0.00039258,0.00067253,-0.00107968,-0.000728
 84,-0.00001846,0.05482271,-0.02063821,0.05862126,-0.00038490,-0.001141
 70,0.00042678,0.00022529,0.00020672,0.00007573,0.00001207,-0.00000381,
 -0.00003726,-0.00002153,0.00000789,0.00000136,0.00003205,-0.00006165,0
 .00008487,-0.00033673,0.00145273,0.00059477,-0.00032046,-0.00042608,-0
 .00035975,0.00343272,-0.00001613,-0.00138104,0.00589179,0.00369310,0.0
 2179686,-0.07342101,-0.01578943,-0.07699361,-0.00004539,-0.00014350,-0
 .00012308,-0.00271612,-0.00163767,0.00304095,-0.00372404,-0.00584893,-
 0.02619962,0.07145173,0.00151408,0.00436367,0.00131204,-0.00161692,-0.
 00031635,0.00031160,-0.00001903,0.00000813,0.00000753,0.00002120,-0.00
 000556,-0.00000912,-0.00004128,0.00005034,0.00008616,0.00034730,-0.000
 98905,-0.00062665,0.00036442,0.00073402,0.00005778,0.00006427,0.000058
 33,-0.00055941,0.00291812,0.00685381,0.01357981,-0.02026661,-0.0377666
 6,-0.06452533,0.00105159,0.00010105,-0.00131431,-0.00207255,-0.0007386
 6,0.00049942,0.00317748,0.00474499,0.00915627,0.01799978,0.03564077,0.
 00011867,-0.00104500,0.00086745,0.00030131,0.00021072,-0.00027646,0.00
 002088,-0.00001211,0.00000818,0.00000303,0.00000276,0.00000689,0.00003
 347,-0.00000311,-0.00008112,0.00029624,-0.00017144,-0.00034601,0.00003
 162,-0.00003867,0.00026415,-0.00097535,-0.00049008,0.00265603,-0.00737
 338,-0.00598173,-0.01904085,-0.07497629,-0.04770458,-0.29979318,0.0000
 5988,0.00014710,0.00013017,0.00274090,0.00233821,-0.00136437,0.0004625
 5,-0.00220832,-0.00137584,0.08004559,0.05309579,0.31995224,-0.03565563
 ,-0.01322839,0.00601366,-0.00024601,0.02497717,0.00822311,0.00010398,0
 .00001703,0.00002752,-0.00004561,-0.00001211,-0.00001580,0.00012455,0.
 00011327,0.00011989,-0.00165802,-0.00222691,-0.00037689,0.00110623,0.0
 0109983,-0.00007354,-0.00037929,0.00103073,-0.00017464,-0.00081189,-0.
 00818282,0.00112161,-0.01006561,0.01115102,0.00236811,-0.00056200,-0.0
 0039872,0.00077265,0.00014226,-0.00001693,-0.00038704,-0.00146696,0.00
 890166,-0.00030179,-0.00007548,-0.00344185,-0.00078913,0.04948949,0.02
 134977,-0.00519300,-0.00976917,-0.01291193,-0.01280723,0.00438211,-0.0
 0016046,0.00005237,-0.00002249,0.00004981,-0.00004581,-0.00000408,-0.0
 0030354,0.00026180,0.00002462,0.00163381,-0.00367243,-0.00128923,0.000
 52198,0.00241467,0.00090115,-0.00185318,0.00361422,0.00007183,-0.00008
 018,-0.01663630,0.00554120,0.01485425,0.10214312,0.00156773,-0.0020999
 1,0.00208694,0.00025232,-0.00029553,0.00006853,-0.00166923,-0.00263063
 ,-0.01740016,-0.00237950,0.00170871,-0.01273881,0.00186048,-0.01978296
 ,-0.04214789,0.01343118,0.00239804,-0.02845868,-0.00059090,-0.01919154
 ,-0.00127430,-0.00013132,0.00005431,-0.00005232,0.00001021,-0.00001461
 ,0.00001838,-0.00022076,-0.00003705,-0.00013051,0.00097143,-0.00024222
 ,0.00049724,-0.00076209,0.00026959,-0.00031452,-0.00110750,0.00027545,
 -0.00016501,0.00154096,0.00535350,-0.00025503,0.00455143,0.02034195,-0
 .01035983,0.00064707,0.00097980,-0.00073162,0.00036377,0.00062206,-0.0
 0060971,-0.00120322,-0.00026997,-0.00002857,-0.00097255,-0.01107158,-0
 .00160727,-0.01652772,0.00053228,0.04347177\\0.00376336,0.02465946,0.0
 0354487,-0.00130955,-0.00213522,0.00034500,-0.00003356,0.00003437,0.00
 000067,0.00000230,-0.00001956,-0.00000725,-0.00002950,0.00017313,0.000
 10639,0.00063402,-0.00147573,-0.00042058,0.00051838,0.00093850,-0.0001
 9554,-0.00119726,0.00137760,0.00017511,0.00065615,-0.00408268,0.001056
 61,0.00349917,0.02281120,-0.00080831,-0.00046216,-0.00002970,0.0000001
 6,-0.00020401,-0.00002722,-0.00015929,-0.00121590,-0.00429850,-0.00054
 590,0.00040615,-0.00440361,0.00088430,-0.00502760,-0.03352205,-0.00397
 626\\\@


 REVOLUTIONS HAVE NEVER LIGHTENED THE BURDEN OF TYRANNY:
 THEY HAVE MERELY SHIFTED IT TO OTHER SHOULDERS.
                                   -- G. B. SHAW (1903)
 Job cpu time:       0 days  0 hours 53 minutes 52.7 seconds.
 Elapsed time:       0 days  0 hours  2 minutes 14.7 seconds.
 File lengths (MBytes):  RWF=    153 Int=      0 D2E=      0 Chk=      5 Scr=      1
 Normal termination of Gaussian 16 at Sat Aug 16 15:35:17 2025.
