 Entering Gaussian System, Link 0=g16
 Initial command:
 /opt/g16/l1.exe "/home/aayush/scratches/g16/Gau-8478.inp" -scrdir="/home/aayush/scratches/g16/"
 Entering Link 1 = /opt/g16/l1.exe PID=      8481.
  
 Copyright (c) 1988,1990,1992,1993,1995,1998,2003,2009,2016,
            Gaussian, Inc.  All Rights Reserved.
  
 This is part of the Gaussian(R) 16 program.  It is based on
 the Gaussian(R) 09 system (copyright 2009, Gaussian, Inc.),
 the Gaussian(R) 03 system (copyright 2003, Gaussian, Inc.),
 the Gaussian(R) 98 system (copyright 1998, Gaussian, Inc.),
 the Gaussian(R) 94 system (copyright 1995, Gaussian, Inc.),
 the Gaussian 92(TM) system (copyright 1992, Gaussian, Inc.),
 the Gaussian 90(TM) system (copyright 1990, Gaussian, Inc.),
 the Gaussian 88(TM) system (copyright 1988, Gaussian, Inc.),
 the Gaussian 86(TM) system (copyright 1986, Carnegie Mellon
 University), and the Gaussian 82(TM) system (copyright 1983,
 Carnegie Mellon University). Gaussian is a federally registered
 trademark of Gaussian, Inc.
  
 This software contains proprietary and confidential information,
 including trade secrets, belonging to Gaussian, Inc.
  
 This software is provided under written license and may be
 used, copied, transmitted, or stored only in accord with that
 written license.
  
 The following legend is applicable only to US Government
 contracts under FAR:
  
                    RESTRICTED RIGHTS LEGEND
  
 Use, reproduction and disclosure by the US Government is
 subject to restrictions as set forth in subparagraphs (a)
 and (c) of the Commercial Computer Software - Restricted
 Rights clause in FAR 52.227-19.
  
 Gaussian, Inc.
 340 Quinnipiac St., Bldg. 40, Wallingford CT 06492
  
  
 ---------------------------------------------------------------
 Warning -- This program may not be used in any manner that
 competes with the business of Gaussian, Inc. or will provide
 assistance to any competitor of Gaussian, Inc.  The licensee
 of this program is prohibited from giving any competitor of
 Gaussian, Inc. access to this program.  By using this program,
 the user acknowledges that Gaussian, Inc. is engaged in the
 business of creating and licensing software in the field of
 computational chemistry and represents and warrants to the
 licensee that it is not a competitor of Gaussian, Inc. and that
 it will not use this program in any manner prohibited above.
 ---------------------------------------------------------------
  

 Cite this work as:
 Gaussian 16, Revision A.03,
 M. J. Frisch, G. W. Trucks, H. B. Schlegel, G. E. Scuseria, 
 M. A. Robb, J. R. Cheeseman, G. Scalmani, V. Barone, 
 G. A. Petersson, H. Nakatsuji, X. Li, M. Caricato, A. V. Marenich, 
 J. Bloino, B. G. Janesko, R. Gomperts, B. Mennucci, H. P. Hratchian, 
 J. V. Ortiz, A. F. Izmaylov, J. L. Sonnenberg, D. Williams-Young, 
 F. Ding, F. Lipparini, F. Egidi, J. Goings, B. Peng, A. Petrone, 
 T. Henderson, D. Ranasinghe, V. G. Zakrzewski, J. Gao, N. Rega, 
 G. Zheng, W. Liang, M. Hada, M. Ehara, K. Toyota, R. Fukuda, 
 J. Hasegawa, M. Ishida, T. Nakajima, Y. Honda, O. Kitao, H. Nakai, 
 T. Vreven, K. Throssell, J. A. Montgomery, Jr., J. E. Peralta, 
 F. Ogliaro, M. J. Bearpark, J. J. Heyd, E. N. Brothers, K. N. Kudin, 
 V. N. Staroverov, T. A. Keith, R. Kobayashi, J. Normand, 
 K. Raghavachari, A. P. Rendell, J. C. Burant, S. S. Iyengar, 
 J. Tomasi, M. Cossi, J. M. Millam, M. Klene, C. Adamo, R. Cammi, 
 J. W. Ochterski, R. L. Martin, K. Morokuma, O. Farkas, 
 J. B. Foresman, and D. J. Fox, Gaussian, Inc., Wallingford CT, 2016.
 
 ******************************************
 Gaussian 16:  ES64L-G16RevA.03 25-Dec-2016
                21-Aug-2025 
 ******************************************
 %chk=ethyl_propiolate.chk
 %nprocshared=24
 Will use up to   24 processors via shared memory.
 %mem=12GB
 --------------------------
 # ccsd(t)/6-311++g(d,p) sp
 --------------------------
 1/38=1,172=1/1;
 2/12=2,17=6,18=5,40=1/2;
 3/5=4,6=6,7=1111,11=9,25=1,30=1/1,2,3;
 4//1;
 5/5=2,38=5/2;
 8/6=4,9=120000,10=2/1,4;
 9/5=7,14=2/13;
 6/7=2,8=2,9=2,10=2/1;
 99/5=1,9=1/99;
 -------------------
 Title Card Required
 -------------------
 Symbolic Z-matrix:
 Charge =  0 Multiplicity = 2
 O                     2.34309   1.66789  -0.33159 
 H                     1.53214   1.77561   0.19511 
 C                    -3.31751   0.18924  -0.51626 
 H                    -4.33348   0.26184  -0.82756 
 C                    -2.17534   0.10719  -0.16527 
 C                    -0.79094   0.0612    0.27332 
 O                    -0.22935   0.98634   0.79867 
 O                    -0.24499  -1.12599   0.0271 
 C                     1.12184  -1.31799   0.44255 
 C                     2.09932  -0.82258  -0.59159 
 H                     1.20618  -2.39891   0.56399 
 H                     1.27439  -0.83629   1.4098 
 H                     3.11275  -1.16495  -0.38337 
 H                     1.79806  -1.06139  -1.61121 
 H                     2.21749   0.39886  -0.55475 
 
                          Input orientation:                          
 ---------------------------------------------------------------------
 Center     Atomic      Atomic             Coordinates (Angstroms)
 Number     Number       Type             X           Y           Z
 ---------------------------------------------------------------------
      1          8           0        2.343092    1.667894   -0.331592
      2          1           0        1.532140    1.775613    0.195113
      3          6           0       -3.317510    0.189243   -0.516258
      4          1           0       -4.333480    0.261838   -0.827563
      5          6           0       -2.175340    0.107194   -0.165267
      6          6           0       -0.790939    0.061203    0.273316
      7          8           0       -0.229346    0.986337    0.798674
      8          8           0       -0.244985   -1.125990    0.027100
      9          6           0        1.121845   -1.317992    0.442551
     10          6           0        2.099322   -0.822580   -0.591590
     11          1           0        1.206176   -2.398905    0.563993
     12          1           0        1.274387   -0.836286    1.409803
     13          1           0        3.112747   -1.164953   -0.383369
     14          1           0        1.798058   -1.061389   -1.611209
     15          1           0        2.217488    0.398864   -0.554748
 ---------------------------------------------------------------------
                    Distance matrix (angstroms):
                    1          2          3          4          5
     1  O    0.000000
     2  H    0.972967   0.000000
     3  C    5.853454   5.151866   0.000000
     4  H    6.841023   6.143523   1.065071   0.000000
     5  C    4.783270   4.081532   1.197697   2.262768   0.000000
     6  C    3.573447   2.888254   2.650166   3.715075   1.452941
     7  O    2.891273   2.022393   3.449806   4.473641   2.342855
     8  O    3.825257   3.406714   3.386072   4.401398   2.298699
     9  C    3.317568   3.130489   4.785284   5.819761   3.643079
    10  C    2.515846   2.773302   5.511037   6.527832   4.395335
    11  H    4.316654   4.203442   5.322517   6.301093   4.271651
    12  H    3.231951   2.892045   5.083988   6.136763   3.907892
    13  H    2.935996   3.388198   6.572649   7.594691   5.443325
    14  H    3.063245   3.373736   5.378851   6.321455   4.386824
    15  H    1.294609   1.710974   5.539100   6.558078   4.419695
                    6          7          8          9         10
     6  C    0.000000
     7  O    1.203021   0.000000
     8  O    1.329705   2.248888   0.000000
     9  C    2.364225   2.694898   1.441419   0.000000
    10  C    3.143683   3.260017   2.443483   1.506765   0.000000
    11  H    3.181995   3.684517   2.003605   1.090978   2.148926
    12  H    2.522432   2.440624   2.074678   1.091277   2.164782
    13  H    4.144087   4.146669   3.382952   2.160846   1.089773
    14  H    3.393310   3.756472   2.619590   2.177393   1.089685
    15  H    3.138525   2.857249   2.954234   2.267738   1.227699
                   11         12         13         14         15
    11  H    0.000000
    12  H    1.778152   0.000000
    13  H    2.460720   2.589026   0.000000
    14  H    2.621217   3.074316   1.801867   0.000000
    15  H    3.178340   2.504894   1.810078   1.850505   0.000000
 Stoichiometry    C5H7O3(2)
 Framework group  C1[X(C5H7O3)]
 Deg. of freedom    39
 Full point group                 C1      NOp   1
 Largest Abelian subgroup         C1      NOp   1
 Largest concise Abelian subgroup C1      NOp   1
                         Standard orientation:                         
 ---------------------------------------------------------------------
 Center     Atomic      Atomic             Coordinates (Angstroms)
 Number     Number       Type             X           Y           Z
 ---------------------------------------------------------------------
      1          8           0        2.287998    1.692085   -0.321155
      2          1           0        1.477079    1.799762    0.205609
      3          6           0       -3.372916    0.214689   -0.506302
      4          1           0       -4.388877    0.287621   -0.817557
      5          6           0       -2.230756    0.132261   -0.155366
      6          6           0       -0.846356    0.085805    0.283171
      7          8           0       -0.284560    1.010611    0.808889
      8          8           0       -0.300655   -1.101403    0.036468
      9          6           0        1.066144   -1.293857    0.451814
     10          6           0        2.043703   -0.798234   -0.582147
     11          1           0        1.150251   -2.374836    0.572821
     12          1           0        1.218805   -0.812571    1.419257
     13          1           0        3.057061   -1.140902   -0.374084
     14          1           0        1.742370   -1.036571   -1.601856
     15          1           0        2.162125    0.423171   -0.544818
 ---------------------------------------------------------------------
 Rotational constants (GHZ):           3.3418708           1.1875049           0.9743691
 Standard basis: 6-311++G(d,p) (5D, 7F)
 There are   233 symmetry adapted cartesian basis functions of A   symmetry.
 There are   225 symmetry adapted basis functions of A   symmetry.
   225 basis functions,   351 primitive gaussians,   233 cartesian basis functions
    31 alpha electrons       30 beta electrons
       nuclear repulsion energy       353.4867150338 Hartrees.
 NAtoms=   15 NActive=   15 NUniq=   15 SFac= 1.00D+00 NAtFMM=   60 NAOKFM=F Big=F
 Integral buffers will be    131072 words long.
 Raffenetti 2 integral format.
 Two-electron integral symmetry is turned on.
 One-electron integrals computed using PRISM.
 NBasis=   225 RedAO= T EigKep=  7.24D-06  NBF=   225
 NBsUse=   224 1.00D-06 EigRej=  7.37D-07 NBFU=   224
 ExpMin= 3.60D-02 ExpMax= 8.59D+03 ExpMxC= 1.30D+03 IAcc=3 IRadAn=         5 AccDes= 0.00D+00
 Harris functional with IExCor=  205 and IRadAn=       5 diagonalized for initial guess.
 HarFok:  IExCor=  205 AccDes= 0.00D+00 IRadAn=         5 IDoV= 1 UseB2=F ITyADJ=14
 ICtDFT=  3500011 ScaDFX=  1.000000  1.000000  1.000000  1.000000
 FoFCou: FMM=F IPFlag=           0 FMFlag=      100000 FMFlg1=           0
         NFxFlg=           0 DoJE=T BraDBF=F KetDBF=T FulRan=T
         wScrn=  0.000000 ICntrl=       500 IOpCl=  0 I1Cent=   200000004 NGrid=           0
         NMat0=    1 NMatS0=      1 NMatT0=    0 NMatD0=    1 NMtDS0=    0 NMtDT0=    0
 Petite list used in FoFCou.
 Initial guess <Sx>= 0.0000 <Sy>= 0.0000 <Sz>= 0.5000 <S**2>= 0.7500 S= 0.5000
 Requested convergence on RMS density matrix=1.00D-08 within 128 cycles.
 Requested convergence on MAX density matrix=1.00D-06.
 Requested convergence on             energy=1.00D-06.
 No special actions if energy rises.
 Initial convergence to 1.0D-05 achieved.  Increase integral accuracy.
 Restarting incremental Fock formation.
 SCF Done:  E(UHF) =  -417.965356625     A.U. after   33 cycles
            NFock= 33  Conv=0.38D-08     -V/T= 2.0008
 <Sx>= 0.0000 <Sy>= 0.0000 <Sz>= 0.5000 <S**2>= 0.7852 S= 0.5174
 <L.S>=  0.00000000000    
 Annihilation of the first spin contaminant:
 S**2 before annihilation     0.7852,   after     0.7504
 ExpMin= 3.60D-02 ExpMax= 8.59D+03 ExpMxC= 1.30D+03 IAcc=3 IRadAn=         5 AccDes= 0.00D+00
 HarFok:  IExCor=  205 AccDes= 0.00D+00 IRadAn=         5 IDoV=-2 UseB2=F ITyADJ=14
 ICtDFT= 12500011 ScaDFX=  1.000000  1.000000  1.000000  1.000000
 Range of M.O.s used for correlation:     9   224
 NBasis=   225 NAE=    31 NBE=    30 NFC=     8 NFV=     0
 NROrb=    216 NOA=    23 NOB=    22 NVA=   193 NVB=   194

 **** Warning!!: The largest alpha MO coefficient is  0.10703627D+03


 **** Warning!!: The largest beta MO coefficient is  0.10778701D+03

 Semi-Direct transformation.
 ModeAB=           4 MOrb=            23 LenV=    1609184778
 LASXX=    107793295 LTotXX=   107793295 LenRXX=   218294035
 LTotAB=   110500740 MaxLAS=   127752120 LenRXY=           0
 NonZer=   326087330 LenScr=   491049984 LnRSAI=   127752120
 LnScr1=   192384000 LExtra=           0 Total=   1029480139
 MaxDsk=          -1 SrtSym=           T ITran=            4
 JobTyp=1 Pass  1:  I=   1 to  23.
 (rs|ai) integrals will be sorted in core.
 ModeAB=           4 MOrb=            22 LenV=    1609184778
 LASXX=    103454307 LTotXX=   103454307 LenRXX=   188091948
 LTotAB=    84637641 MaxLAS=   122197680 LenRXY=           0
 NonZer=   291546255 LenScr=   439034880 LnRSAI=   122197680
 LnScr1=   184041472 LExtra=           0 Total=    933365980
 MaxDsk=          -1 SrtSym=           T ITran=            4
 JobTyp=2 Pass  1:  I=   1 to  22.
 (rs|ai) integrals will be sorted in core.
 SymMOI:  orbitals are not symmetric.
 Spin components of T(2) and E(2):
     alpha-alpha T2 =       0.5342889020D-01 E2=     -0.1724673593D+00
     alpha-beta  T2 =       0.2929893536D+00 E2=     -0.9483043981D+00
     beta-beta   T2 =       0.5237117117D-01 E2=     -0.1609315224D+00
 ANorm=    0.1182704280D+01
 E2 =    -0.1281703280D+01 EUMP2 =    -0.41924705990522D+03
 (S**2,0)=  0.78515D+00           (S**2,1)=  0.76223D+00
 E(PUHF)=      -0.41797368808D+03        E(PMP2)=      -0.41925269580D+03
 Keep R2 and R3 ints in memory in canonical form, NReq=652883968.
 CIDS: In Core Option IDoMem=           1.
 Iterations=  50 Convergence= 0.100D-06
 Produce multiple copies of IABC intergrals
 Iteration Nr.   1
 **********************
 DD1Dir will call FoFMem   1 times, MxPair=      1496
 NAB=   506 NAA=   253 NBB=   231.
 E(PMP3)=      -0.41927286181D+03
 MP4(R+Q)=  0.25922102D-01
 E3=       -0.22519800D-01        EUMP3=      -0.41926957971D+03
 E4(DQ)=   -0.54841877D-02        UMP4(DQ)=   -0.41927506389D+03
 E4(SDQ)=  -0.25724212D-01        UMP4(SDQ)=  -0.41929530392D+03
 DE(Corr)=  -1.2776528     E(Corr)=     -419.24300947    
 NORM(A)=   0.11878255D+01
 Iteration Nr.   2
 **********************
 DD1Dir will call FoFMem   1 times, MxPair=      1496
 NAB=   506 NAA=   253 NBB=   231.
 DE(Corr)=  -1.3212828     E(CORR)=     -419.28663939     Delta=-4.36D-02
 NORM(A)=   0.12065462D+01
 Iteration Nr.   3
 **********************
 DD1Dir will call FoFMem   1 times, MxPair=      1496
 NAB=   506 NAA=   253 NBB=   231.
 DE(Corr)=  -1.3229608     E(CORR)=     -419.28831747     Delta=-1.68D-03
 NORM(A)=   0.12134870D+01
 Iteration Nr.   4
 **********************
 DD1Dir will call FoFMem   1 times, MxPair=      1496
 NAB=   506 NAA=   253 NBB=   231.
 DE(Corr)=  -1.3282708     E(CORR)=     -419.29362744     Delta=-5.31D-03
 NORM(A)=   0.12164675D+01
 Iteration Nr.   5
 **********************
 DD1Dir will call FoFMem   1 times, MxPair=      1496
 NAB=   506 NAA=   253 NBB=   231.
 DE(Corr)=  -1.3292237     E(CORR)=     -419.29458037     Delta=-9.53D-04
 NORM(A)=   0.12180323D+01
 Iteration Nr.   6
 **********************
 DD1Dir will call FoFMem   1 times, MxPair=      1496
 NAB=   506 NAA=   253 NBB=   231.
 DE(Corr)=  -1.3294912     E(CORR)=     -419.29484786     Delta=-2.67D-04
 NORM(A)=   0.12183991D+01
 Iteration Nr.   7
 **********************
 DD1Dir will call FoFMem   1 times, MxPair=      1496
 NAB=   506 NAA=   253 NBB=   231.
 DE(Corr)=  -1.3295519     E(CORR)=     -419.29490854     Delta=-6.07D-05
 NORM(A)=   0.12185109D+01
 Iteration Nr.   8
 **********************
 DD1Dir will call FoFMem   1 times, MxPair=      1496
 NAB=   506 NAA=   253 NBB=   231.
 DE(Corr)=  -1.3295369     E(CORR)=     -419.29489356     Delta= 1.50D-05
 NORM(A)=   0.12185624D+01
 Iteration Nr.   9
 **********************
 DD1Dir will call FoFMem   1 times, MxPair=      1496
 NAB=   506 NAA=   253 NBB=   231.
 DE(Corr)=  -1.3295540     E(CORR)=     -419.29491058     Delta=-1.70D-05
 NORM(A)=   0.12185763D+01
 Iteration Nr.  10
 **********************
 DD1Dir will call FoFMem   1 times, MxPair=      1496
 NAB=   506 NAA=   253 NBB=   231.
 DE(Corr)=  -1.3295542     E(CORR)=     -419.29491085     Delta=-2.70D-07
 NORM(A)=   0.12185889D+01
 Iteration Nr.  11
 **********************
 DD1Dir will call FoFMem   1 times, MxPair=      1496
 NAB=   506 NAA=   253 NBB=   231.
 DE(Corr)=  -1.3295649     E(CORR)=     -419.29492157     Delta=-1.07D-05
 NORM(A)=   0.12185993D+01
 Iteration Nr.  12
 **********************
 DD1Dir will call FoFMem   1 times, MxPair=      1496
 NAB=   506 NAA=   253 NBB=   231.
 DE(Corr)=  -1.3295662     E(CORR)=     -419.29492283     Delta=-1.25D-06
 NORM(A)=   0.12186069D+01
 Iteration Nr.  13
 **********************
 DD1Dir will call FoFMem   1 times, MxPair=      1496
 NAB=   506 NAA=   253 NBB=   231.
 DE(Corr)=  -1.3295688     E(CORR)=     -419.29492543     Delta=-2.61D-06
 NORM(A)=   0.12186119D+01
 Iteration Nr.  14
 **********************
 DD1Dir will call FoFMem   1 times, MxPair=      1496
 NAB=   506 NAA=   253 NBB=   231.
 DE(Corr)=  -1.3295698     E(CORR)=     -419.29492647     Delta=-1.04D-06
 NORM(A)=   0.12186154D+01
 Iteration Nr.  15
 **********************
 DD1Dir will call FoFMem   1 times, MxPair=      1496
 NAB=   506 NAA=   253 NBB=   231.
 DE(Corr)=  -1.3295702     E(CORR)=     -419.29492679     Delta=-3.19D-07
 NORM(A)=   0.12186181D+01
 Iteration Nr.  16
 **********************
 DD1Dir will call FoFMem   1 times, MxPair=      1496
 NAB=   506 NAA=   253 NBB=   231.
 DE(Corr)=  -1.3295709     E(CORR)=     -419.29492749     Delta=-7.01D-07
 NORM(A)=   0.12186197D+01
 Iteration Nr.  17
 **********************
 DD1Dir will call FoFMem   1 times, MxPair=      1496
 NAB=   506 NAA=   253 NBB=   231.
 DE(Corr)=  -1.3295710     E(CORR)=     -419.29492765     Delta=-1.56D-07
 NORM(A)=   0.12186205D+01
 Iteration Nr.  18
 **********************
 DD1Dir will call FoFMem   1 times, MxPair=      1496
 NAB=   506 NAA=   253 NBB=   231.
 DE(Corr)=  -1.3295712     E(CORR)=     -419.29492786     Delta=-2.11D-07
 NORM(A)=   0.12186207D+01
 Iteration Nr.  19
 **********************
 DD1Dir will call FoFMem   1 times, MxPair=      1496
 NAB=   506 NAA=   253 NBB=   231.
 DE(Corr)=  -1.3295713     E(CORR)=     -419.29492790     Delta=-4.55D-08
 NORM(A)=   0.12186208D+01
 Wavefunction amplitudes converged. E(Corr)=     -419.29492790    
 Largest amplitude= 4.23D-02
 Time for triples=    35076.44 seconds.
 T4(CCSD)= -0.58419861D-01
 T5(CCSD)=  0.37462257D-02
 CCSD(T)= -0.41934960154D+03

 S**2, projected HF & approx projected MPn energies after annihilation of
 unwanted spin states (see manual for definitions):

 spins       (S**2,0) (S**2,1)    PUHF        PMP2        PMP3        PMP4
 annihilated
 s+1         0.74973  0.75010 -417.973688 -419.252696 -419.272862
 s+1,s+2     0.75000  0.75000 -417.973628 -419.252643 -419.272817
 s+1 to s+3  0.75000  0.75000 -417.973628 -419.252643 -419.272817
 s+1 to s+4  0.75000  0.75000 -417.973628 -419.252643 -419.272817
 s+1 to s+5  0.75000  0.75000 -417.973628
 s+1 to s+6  0.75000  0.75000 -417.973628

 Discarding MO integrals.

 **********************************************************************

            Population analysis using the SCF density.

 **********************************************************************

 Orbital symmetries:
 Alpha Orbitals:
       Occupied  (A) (A) (A) (A) (A) (A) (A) (A) (A) (A) (A) (A)
                 (A) (A) (A) (A) (A) (A) (A) (A) (A) (A) (A) (A)
                 (A) (A) (A) (A) (A) (A) (A)
       Virtual   (A) (A) (A) (A) (A) (A) (A) (A) (A) (A) (A) (A)
                 (A) (A) (A) (A) (A) (A) (A) (A) (A) (A) (A) (A)
                 (A) (A) (A) (A) (A) (A) (A) (A) (A) (A) (A) (A)
                 (A) (A) (A) (A) (A) (A) (A) (A) (A) (A) (A) (A)
                 (A) (A) (A) (A) (A) (A) (A) (A) (A) (A) (A) (A)
                 (A) (A) (A) (A) (A) (A) (A) (A) (A) (A) (A) (A)
                 (A) (A) (A) (A) (A) (A) (A) (A) (A) (A) (A) (A)
                 (A) (A) (A) (A) (A) (A) (A) (A) (A) (A) (A) (A)
                 (A) (A) (A) (A) (A) (A) (A) (A) (A) (A) (A) (A)
                 (A) (A) (A) (A) (A) (A) (A) (A) (A) (A) (A) (A)
                 (A) (A) (A) (A) (A) (A) (A) (A) (A) (A) (A) (A)
                 (A) (A) (A) (A) (A) (A) (A) (A) (A) (A) (A) (A)
                 (A) (A) (A) (A) (A) (A) (A) (A) (A) (A) (A) (A)
                 (A) (A) (A) (A) (A) (A) (A) (A) (A) (A) (A) (A)
                 (A) (A) (A) (A) (A) (A) (A) (A) (A) (A) (A) (A)
                 (A) (A) (A) (A) (A) (A) (A) (A) (A) (A) (A) (A)
                 (A)
 Beta  Orbitals:
       Occupied  (A) (A) (A) (A) (A) (A) (A) (A) (A) (A) (A) (A)
                 (A) (A) (A) (A) (A) (A) (A) (A) (A) (A) (A) (A)
                 (A) (A) (A) (A) (A) (A)
       Virtual   (A) (A) (A) (A) (A) (A) (A) (A) (A) (A) (A) (A)
                 (A) (A) (A) (A) (A) (A) (A) (A) (A) (A) (A) (A)
                 (A) (A) (A) (A) (A) (A) (A) (A) (A) (A) (A) (A)
                 (A) (A) (A) (A) (A) (A) (A) (A) (A) (A) (A) (A)
                 (A) (A) (A) (A) (A) (A) (A) (A) (A) (A) (A) (A)
                 (A) (A) (A) (A) (A) (A) (A) (A) (A) (A) (A) (A)
                 (A) (A) (A) (A) (A) (A) (A) (A) (A) (A) (A) (A)
                 (A) (A) (A) (A) (A) (A) (A) (A) (A) (A) (A) (A)
                 (A) (A) (A) (A) (A) (A) (A) (A) (A) (A) (A) (A)
                 (A) (A) (A) (A) (A) (A) (A) (A) (A) (A) (A) (A)
                 (A) (A) (A) (A) (A) (A) (A) (A) (A) (A) (A) (A)
                 (A) (A) (A) (A) (A) (A) (A) (A) (A) (A) (A) (A)
                 (A) (A) (A) (A) (A) (A) (A) (A) (A) (A) (A) (A)
                 (A) (A) (A) (A) (A) (A) (A) (A) (A) (A) (A) (A)
                 (A) (A) (A) (A) (A) (A) (A) (A) (A) (A) (A) (A)
                 (A) (A) (A) (A) (A) (A) (A) (A) (A) (A) (A) (A)
                 (A) (A)
 The electronic state is 2-A.
 Alpha  occ. eigenvalues --  -20.62963 -20.60210 -20.57854 -11.43524 -11.30916
 Alpha  occ. eigenvalues --  -11.27744 -11.26904 -11.24504  -1.49979  -1.39907
 Alpha  occ. eigenvalues --   -1.37082  -1.09106  -1.05366  -0.94085  -0.85292
 Alpha  occ. eigenvalues --   -0.78027  -0.74027  -0.72454  -0.70868  -0.68235
 Alpha  occ. eigenvalues --   -0.64635  -0.62644  -0.58890  -0.56977  -0.54383
 Alpha  occ. eigenvalues --   -0.53055  -0.50390  -0.48784  -0.43777  -0.43588
 Alpha  occ. eigenvalues --   -0.43484
 Alpha virt. eigenvalues --    0.03518   0.04380   0.05982   0.06805   0.07371
 Alpha virt. eigenvalues --    0.07589   0.09432   0.10261   0.11075   0.11517
 Alpha virt. eigenvalues --    0.12231   0.13783   0.14199   0.15083   0.16250
 Alpha virt. eigenvalues --    0.17352   0.17702   0.18411   0.18582   0.19187
 Alpha virt. eigenvalues --    0.20468   0.21536   0.21810   0.23196   0.24136
 Alpha virt. eigenvalues --    0.24782   0.25691   0.27312   0.29045   0.31076
 Alpha virt. eigenvalues --    0.32114   0.32685   0.33480   0.34027   0.34521
 Alpha virt. eigenvalues --    0.35776   0.36304   0.37273   0.38323   0.39823
 Alpha virt. eigenvalues --    0.40620   0.41086   0.42003   0.42657   0.45292
 Alpha virt. eigenvalues --    0.45463   0.47123   0.49011   0.50407   0.52454
 Alpha virt. eigenvalues --    0.53285   0.57534   0.59991   0.60897   0.62175
 Alpha virt. eigenvalues --    0.64403   0.67209   0.70474   0.70859   0.74638
 Alpha virt. eigenvalues --    0.75271   0.77662   0.81037   0.82577   0.83680
 Alpha virt. eigenvalues --    0.85060   0.85718   0.87751   0.88677   0.89792
 Alpha virt. eigenvalues --    0.91294   0.92129   0.94252   0.96151   1.00404
 Alpha virt. eigenvalues --    1.04394   1.09117   1.15240   1.22484   1.23129
 Alpha virt. eigenvalues --    1.25468   1.27473   1.28915   1.30055   1.31890
 Alpha virt. eigenvalues --    1.33937   1.35774   1.36722   1.38680   1.39332
 Alpha virt. eigenvalues --    1.41034   1.42422   1.47924   1.50683   1.53201
 Alpha virt. eigenvalues --    1.55313   1.56014   1.58479   1.62956   1.63730
 Alpha virt. eigenvalues --    1.67757   1.70607   1.75060   1.77382   1.82123
 Alpha virt. eigenvalues --    1.83445   1.83758   1.85476   1.86897   1.89602
 Alpha virt. eigenvalues --    1.90572   1.91830   1.93836   1.95912   2.00025
 Alpha virt. eigenvalues --    2.05141   2.07217   2.08626   2.09227   2.16281
 Alpha virt. eigenvalues --    2.21241   2.26312   2.28701   2.32461   2.36143
 Alpha virt. eigenvalues --    2.40110   2.43640   2.48870   2.53262   2.59185
 Alpha virt. eigenvalues --    2.68227   2.71103   2.78232   2.81830   2.84793
 Alpha virt. eigenvalues --    2.89711   2.90672   2.92530   2.93355   2.94836
 Alpha virt. eigenvalues --    2.98047   3.01067   3.02617   3.06558   3.11453
 Alpha virt. eigenvalues --    3.13940   3.15902   3.22590   3.24598   3.26679
 Alpha virt. eigenvalues --    3.29792   3.33365   3.36236   3.38689   3.42967
 Alpha virt. eigenvalues --    3.47425   3.50168   3.52963   3.54441   3.58466
 Alpha virt. eigenvalues --    3.64598   3.67507   3.70564   3.76543   3.79879
 Alpha virt. eigenvalues --    3.92135   3.99616   4.07956   4.12398   4.20662
 Alpha virt. eigenvalues --    4.28876   4.34181   4.42959   4.49792   4.55161
 Alpha virt. eigenvalues --    4.68329   5.51524   5.57182   5.63011   5.76248
 Alpha virt. eigenvalues --    5.84753   5.89948   6.08027   6.21222   6.43709
 Alpha virt. eigenvalues --   24.68011  24.99128  25.01052  25.09088  26.28633
 Alpha virt. eigenvalues --   51.55487  51.58028  51.69723
  Beta  occ. eigenvalues --  -20.62961 -20.57865 -20.56667 -11.43527 -11.31012
  Beta  occ. eigenvalues --  -11.27748 -11.26901 -11.23256  -1.49980  -1.39895
  Beta  occ. eigenvalues --   -1.24468  -1.08856  -1.04204  -0.92602  -0.84168
  Beta  occ. eigenvalues --   -0.77928  -0.73975  -0.71880  -0.68635  -0.63691
  Beta  occ. eigenvalues --   -0.62572  -0.58662  -0.56638  -0.54254  -0.50900
  Beta  occ. eigenvalues --   -0.49399  -0.48666  -0.47077  -0.43707  -0.43568
  Beta virt. eigenvalues --    0.03523   0.04383   0.05724   0.06221   0.07013
  Beta virt. eigenvalues --    0.07383   0.07837   0.09996   0.10718   0.11084
  Beta virt. eigenvalues --    0.12218   0.12337   0.13827   0.14203   0.15287
  Beta virt. eigenvalues --    0.16350   0.17352   0.17813   0.18495   0.18757
  Beta virt. eigenvalues --    0.19298   0.20624   0.21614   0.21829   0.23257
  Beta virt. eigenvalues --    0.24193   0.24915   0.25749   0.27401   0.29334
  Beta virt. eigenvalues --    0.31389   0.32501   0.32907   0.33780   0.34559
  Beta virt. eigenvalues --    0.35077   0.35930   0.36538   0.37513   0.38448
  Beta virt. eigenvalues --    0.40120   0.40917   0.41253   0.42210   0.43203
  Beta virt. eigenvalues --    0.45503   0.45745   0.47295   0.49850   0.51079
  Beta virt. eigenvalues --    0.53100   0.56283   0.57697   0.60201   0.61027
  Beta virt. eigenvalues --    0.62984   0.64694   0.67457   0.70528   0.70871
  Beta virt. eigenvalues --    0.74678   0.75858   0.78291   0.81241   0.82876
  Beta virt. eigenvalues --    0.84066   0.85526   0.87128   0.87960   0.89081
  Beta virt. eigenvalues --    0.90078   0.91402   0.93087   0.94693   0.96280
  Beta virt. eigenvalues --    1.00436   1.04506   1.09158   1.16058   1.22760
  Beta virt. eigenvalues --    1.24116   1.26277   1.27877   1.29152   1.31283
  Beta virt. eigenvalues --    1.33887   1.35531   1.36246   1.38011   1.39394
  Beta virt. eigenvalues --    1.40768   1.41827   1.44031   1.48030   1.50930
  Beta virt. eigenvalues --    1.53924   1.55360   1.56225   1.58633   1.62993
  Beta virt. eigenvalues --    1.63760   1.68185   1.72003   1.75330   1.79713
  Beta virt. eigenvalues --    1.82441   1.83539   1.84605   1.85879   1.87106
  Beta virt. eigenvalues --    1.89775   1.90679   1.92153   1.94815   1.96265
  Beta virt. eigenvalues --    2.01414   2.05213   2.07537   2.08649   2.09407
  Beta virt. eigenvalues --    2.16350   2.21410   2.26469   2.29062   2.32695
  Beta virt. eigenvalues --    2.36555   2.41527   2.44223   2.49910   2.54824
  Beta virt. eigenvalues --    2.59660   2.70362   2.71662   2.78330   2.82004
  Beta virt. eigenvalues --    2.85099   2.89605   2.90712   2.92574   2.93689
  Beta virt. eigenvalues --    2.95262   2.98098   3.00473   3.02986   3.06660
  Beta virt. eigenvalues --    3.11514   3.13947   3.15958   3.22366   3.25265
  Beta virt. eigenvalues --    3.29788   3.32753   3.35483   3.36316   3.38699
  Beta virt. eigenvalues --    3.43117   3.47748   3.51838   3.53606   3.57810
  Beta virt. eigenvalues --    3.62111   3.64814   3.67895   3.70810   3.77041
  Beta virt. eigenvalues --    3.84384   3.92276   3.99662   4.08094   4.14290
  Beta virt. eigenvalues --    4.21207   4.29162   4.36751   4.45243   4.49962
  Beta virt. eigenvalues --    4.55187   4.69443   5.53571   5.57401   5.63037
  Beta virt. eigenvalues --    5.76295   5.89973   5.93014   6.11007   6.21426
  Beta virt. eigenvalues --    6.43740  24.68011  24.99131  25.01045  25.09929
  Beta virt. eigenvalues --   26.28632  51.57514  51.58029  51.69722
          Condensed to atoms (all electrons):
               1          2          3          4          5          6
     1  O    8.116114   0.300055   0.002654   0.000096  -0.006085   0.015486
     2  H    0.300055   0.405254  -0.005216  -0.000196   0.019158  -0.020126
     3  C    0.002654  -0.005216   6.398030   0.496102  -1.536282   1.501582
     4  H    0.000096  -0.000196   0.496102   0.406536  -0.156256   0.058132
     5  C   -0.006085   0.019158  -1.536282  -0.156256   9.943553  -3.251886
     6  C    0.015486  -0.020126   1.501582   0.058132  -3.251886   7.897656
     7  O   -0.003484   0.006723  -0.093306  -0.003067   0.089696   0.357695
     8  O   -0.003695   0.000607  -0.098330  -0.005515  -0.160180   0.182228
     9  C   -0.022588   0.030383   0.047627  -0.000806  -0.312606  -0.000907
    10  C    0.001424   0.000419  -0.020581  -0.000715   0.028098  -0.054740
    11  H   -0.000484   0.001468  -0.000377  -0.000048   0.000229  -0.017427
    12  H   -0.002732  -0.004795   0.002669   0.000038  -0.012482   0.015927
    13  H   -0.006684   0.001870   0.000415   0.000009  -0.004019   0.003186
    14  H    0.003691  -0.000473  -0.003837  -0.000199   0.017308  -0.006459
    15  H   -0.066495  -0.025483   0.008605   0.000260  -0.036987   0.003915
               7          8          9         10         11         12
     1  O   -0.003484  -0.003695  -0.022588   0.001424  -0.000484  -0.002732
     2  H    0.006723   0.000607   0.030383   0.000419   0.001468  -0.004795
     3  C   -0.093306  -0.098330   0.047627  -0.020581  -0.000377   0.002669
     4  H   -0.003067  -0.005515  -0.000806  -0.000715  -0.000048   0.000038
     5  C    0.089696  -0.160180  -0.312606   0.028098   0.000229  -0.012482
     6  C    0.357695   0.182228  -0.000907  -0.054740  -0.017427   0.015927
     7  O    8.118993  -0.113578   0.063495  -0.060316   0.004630  -0.024444
     8  O   -0.113578   8.229589   0.213432  -0.090140  -0.088582  -0.009785
     9  C    0.063495   0.213432   5.677081  -0.173269   0.471025   0.405717
    10  C   -0.060316  -0.090140  -0.173269   5.807751  -0.067060  -0.037761
    11  H    0.004630  -0.088582   0.471025  -0.067060   0.576774  -0.049777
    12  H   -0.024444  -0.009785   0.405717  -0.037761  -0.049777   0.523219
    13  H   -0.001288   0.012795  -0.018928   0.392747   0.001570  -0.006063
    14  H   -0.000048  -0.001841  -0.051172   0.400763  -0.011269   0.006364
    15  H    0.007624  -0.011826  -0.034201   0.294495   0.014064  -0.015987
              13         14         15
     1  O   -0.006684   0.003691  -0.066495
     2  H    0.001870  -0.000473  -0.025483
     3  C    0.000415  -0.003837   0.008605
     4  H    0.000009  -0.000199   0.000260
     5  C   -0.004019   0.017308  -0.036987
     6  C    0.003186  -0.006459   0.003915
     7  O   -0.001288  -0.000048   0.007624
     8  O    0.012795  -0.001841  -0.011826
     9  C   -0.018928  -0.051172  -0.034201
    10  C    0.392747   0.400763   0.294495
    11  H    0.001570  -0.011269   0.014064
    12  H   -0.006063   0.006364  -0.015987
    13  H    0.538917  -0.034206  -0.026588
    14  H   -0.034206   0.560993  -0.055644
    15  H   -0.026588  -0.055644   0.685225
          Atomic-Atomic Spin Densities.
               1          2          3          4          5          6
     1  O    0.812712  -0.011713  -0.000257  -0.000023  -0.001873  -0.012903
     2  H   -0.011713  -0.021082   0.000637   0.000002  -0.002810   0.003315
     3  C   -0.000257   0.000637   0.000753  -0.000261  -0.008243   0.008287
     4  H   -0.000023   0.000002  -0.000261  -0.000401  -0.000390   0.000921
     5  C   -0.001873  -0.002810  -0.008243  -0.000390  -0.013486  -0.003254
     6  C   -0.012903   0.003315   0.008287   0.000921  -0.003254  -0.006565
     7  O    0.004324  -0.000451  -0.001674  -0.000059   0.006560  -0.002547
     8  O    0.001266  -0.001256   0.000529   0.000022  -0.003223  -0.005801
     9  C    0.035593  -0.006170   0.001140   0.000408   0.020691   0.013545
    10  C   -0.080143   0.011902  -0.003735  -0.000144   0.004231  -0.018170
    11  H    0.001032   0.000433  -0.000171   0.000043   0.003477   0.007023
    12  H   -0.002605  -0.000412   0.000352  -0.000040  -0.005493  -0.006983
    13  H    0.005801  -0.001097  -0.000176  -0.000001   0.000810  -0.002760
    14  H   -0.000961  -0.001473   0.000675  -0.000016  -0.004345  -0.001836
    15  H    0.041580   0.014742  -0.000178   0.000048   0.012911   0.037473
               7          8          9         10         11         12
     1  O    0.004324   0.001266   0.035593  -0.080143   0.001032  -0.002605
     2  H   -0.000451  -0.001256  -0.006170   0.011902   0.000433  -0.000412
     3  C   -0.001674   0.000529   0.001140  -0.003735  -0.000171   0.000352
     4  H   -0.000059   0.000022   0.000408  -0.000144   0.000043  -0.000040
     5  C    0.006560  -0.003223   0.020691   0.004231   0.003477  -0.005493
     6  C   -0.002547  -0.005801   0.013545  -0.018170   0.007023  -0.006983
     7  O   -0.001444   0.000824  -0.004058   0.001133  -0.000426   0.001186
     8  O    0.000824   0.002700   0.016007  -0.013680  -0.001923  -0.000059
     9  C   -0.004058   0.016007  -0.061636  -0.055965  -0.011371   0.023050
    10  C    0.001133  -0.013680  -0.055965   0.653692   0.004762  -0.013088
    11  H   -0.000426  -0.001923  -0.011371   0.004762   0.023004   0.001060
    12  H    0.001186  -0.000059   0.023050  -0.013088   0.001060   0.000509
    13  H    0.000114   0.000436   0.010275  -0.021826  -0.000520  -0.000125
    14  H    0.000695  -0.000006   0.015917  -0.041039   0.000107  -0.001322
    15  H   -0.009141   0.004140  -0.072455   0.072108  -0.008337   0.014343
              13         14         15
     1  O    0.005801  -0.000961   0.041580
     2  H   -0.001097  -0.001473   0.014742
     3  C   -0.000176   0.000675  -0.000178
     4  H   -0.000001  -0.000016   0.000048
     5  C    0.000810  -0.004345   0.012911
     6  C   -0.002760  -0.001836   0.037473
     7  O    0.000114   0.000695  -0.009141
     8  O    0.000436  -0.000006   0.004140
     9  C    0.010275   0.015917  -0.072455
    10  C   -0.021826  -0.041039   0.072108
    11  H   -0.000520   0.000107  -0.008337
    12  H   -0.000125  -0.001322   0.014343
    13  H   -0.022722   0.002152   0.001499
    14  H    0.002152  -0.017924   0.028495
    15  H    0.001499   0.028495  -0.326285
 Mulliken charges and spin densities:
               1          2
     1  O   -0.327274   0.791831
     2  H    0.290351  -0.015435
     3  C   -0.699755  -0.002322
     4  H    0.205629   0.000107
     5  C    1.378741   0.005565
     6  C   -0.684261   0.009744
     7  O   -0.349326  -0.004966
     8  O   -0.055179  -0.000023
     9  C   -0.294283  -0.075028
    10  C   -0.421115   0.500039
    11  H    0.165264   0.018191
    12  H    0.209892   0.010372
    13  H    0.146265  -0.028139
    14  H    0.176027  -0.020880
    15  H    0.259023  -0.189057
 Sum of Mulliken charges =  -0.00000   1.00000
 Mulliken charges and spin densities with hydrogens summed into heavy atoms:
               1          2
     1  O   -0.036923   0.776396
     3  C   -0.494126  -0.002215
     5  C    1.378741   0.005565
     6  C   -0.684261   0.009744
     7  O   -0.349326  -0.004966
     8  O   -0.055179  -0.000023
     9  C    0.080874  -0.046465
    10  C    0.160200   0.261962
 Electronic spatial extent (au):  <R**2>=           1187.5239
 Charge=             -0.0000 electrons
 Dipole moment (field-independent basis, Debye):
    X=             -2.1016    Y=             -2.5505    Z=             -0.0296  Tot=              3.3050
 Quadrupole moment (field-independent basis, Debye-Ang):
   XX=            -39.7356   YY=            -50.8332   ZZ=            -48.1814
   XY=             -7.2469   XZ=              4.6229   YZ=             -1.0421
 Traceless Quadrupole moment (field-independent basis, Debye-Ang):
   XX=              6.5144   YY=             -4.5831   ZZ=             -1.9313
   XY=             -7.2469   XZ=              4.6229   YZ=             -1.0421
 Octapole moment (field-independent basis, Debye-Ang**2):
  XXX=            -64.0841  YYY=             -0.2055  ZZZ=              2.9442  XYY=              6.9930
  XXY=            -10.4506  XXZ=            -10.4162  XZZ=              3.8502  YZZ=             -2.1764
  YYZ=              4.5121  XYZ=              5.1551
 Hexadecapole moment (field-independent basis, Debye-Ang**3):
 XXXX=           -825.7931 YYYY=           -326.5384 ZZZZ=           -125.1978 XXXY=            -57.7172
 XXXZ=             76.1388 YYYX=              2.9484 YYYZ=              2.6158 ZZZX=             -1.9320
 ZZZY=              0.7941 XXYY=           -269.1726 XXZZ=           -201.5302 YYZZ=            -81.9928
 XXYZ=              0.0267 YYXZ=              8.1365 ZZXY=              1.1095
 N-N= 3.534867150338D+02 E-N=-1.689486392534D+03  KE= 4.176354270221D+02
 1\1\GINC-AJ\SP\UCCSD(T)-FC\6-311++G(d,p)\C5H7O3(2)\AAYUSH\21-Aug-2025\
 0\\# ccsd(t)/6-311++g(d,p) sp\\Title Card Required\\0,2\O,0,2.343092,1
 .667894,-0.331592\H,0,1.53214,1.775613,0.195113\C,0,-3.31751,0.189243,
 -0.516258\H,0,-4.33348,0.261838,-0.827563\C,0,-2.17534,0.107194,-0.165
 267\C,0,-0.790939,0.061203,0.273316\O,0,-0.229346,0.986337,0.798674\O,
 0,-0.244985,-1.12599,0.0271\C,0,1.121845,-1.317992,0.442551\C,0,2.0993
 22,-0.82258,-0.59159\H,0,1.206176,-2.398905,0.563993\H,0,1.274387,-0.8
 36286,1.409803\H,0,3.112747,-1.164953,-0.383369\H,0,1.798058,-1.061389
 ,-1.611209\H,0,2.217488,0.398864,-0.554748\\Version=ES64L-G16RevA.03\S
 tate=2-A\HF=-417.9653566\MP2=-419.2470599\MP3=-419.2695797\MP4D=-419.3
 00986\MP4DQ=-419.2750639\PUHF=-417.9736881\PMP2-0=-419.2526958\PMP3-0=
 -419.2728618\MP4SDQ=-419.2953039\CCSD=-419.2949279\CCSD(T)=-419.349601
 5\S2=0.785152\S2-1=0.762233\S2A=0.750448\RMSD=3.825e-09\PG=C01 [X(C5H7
 O3)]\\@


 GROWING OLD ISN'T SO BAD -- WHEN YOU CONSIDER THE ALTERNATIVE.

                     -- MAURICE CHEVALIER
 Job cpu time:       0 days 16 hours 10 minutes 15.7 seconds.
 Elapsed time:       0 days  0 hours 40 minutes 38.3 seconds.
 File lengths (MBytes):  RWF=  44258 Int=      0 D2E=      0 Chk=      7 Scr=      1
 Normal termination of Gaussian 16 at Thu Aug 21 10:51:42 2025.
