 Entering Gaussian System, Link 0=g16
 Initial command:
 /opt/g16/l1.exe "/home/aayush/scratches/g16/Gau-35769.inp" -scrdir="/home/aayush/scratches/g16/"
 Entering Link 1 = /opt/g16/l1.exe PID=     35772.
  
 Copyright (c) 1988,1990,1992,1993,1995,1998,2003,2009,2016,
            Gaussian, Inc.  All Rights Reserved.
  
 This is part of the Gaussian(R) 16 program.  It is based on
 the Gaussian(R) 09 system (copyright 2009, Gaussian, Inc.),
 the Gaussian(R) 03 system (copyright 2003, Gaussian, Inc.),
 the Gaussian(R) 98 system (copyright 1998, Gaussian, Inc.),
 the Gaussian(R) 94 system (copyright 1995, Gaussian, Inc.),
 the Gaussian 92(TM) system (copyright 1992, Gaussian, Inc.),
 the Gaussian 90(TM) system (copyright 1990, Gaussian, Inc.),
 the Gaussian 88(TM) system (copyright 1988, Gaussian, Inc.),
 the Gaussian 86(TM) system (copyright 1986, Carnegie Mellon
 University), and the Gaussian 82(TM) system (copyright 1983,
 Carnegie Mellon University). Gaussian is a federally registered
 trademark of Gaussian, Inc.
  
 This software contains proprietary and confidential information,
 including trade secrets, belonging to Gaussian, Inc.
  
 This software is provided under written license and may be
 used, copied, transmitted, or stored only in accord with that
 written license.
  
 The following legend is applicable only to US Government
 contracts under FAR:
  
                    RESTRICTED RIGHTS LEGEND
  
 Use, reproduction and disclosure by the US Government is
 subject to restrictions as set forth in subparagraphs (a)
 and (c) of the Commercial Computer Software - Restricted
 Rights clause in FAR 52.227-19.
  
 Gaussian, Inc.
 340 Quinnipiac St., Bldg. 40, Wallingford CT 06492
  
  
 ---------------------------------------------------------------
 Warning -- This program may not be used in any manner that
 competes with the business of Gaussian, Inc. or will provide
 assistance to any competitor of Gaussian, Inc.  The licensee
 of this program is prohibited from giving any competitor of
 Gaussian, Inc. access to this program.  By using this program,
 the user acknowledges that Gaussian, Inc. is engaged in the
 business of creating and licensing software in the field of
 computational chemistry and represents and warrants to the
 licensee that it is not a competitor of Gaussian, Inc. and that
 it will not use this program in any manner prohibited above.
 ---------------------------------------------------------------
  

 Cite this work as:
 Gaussian 16, Revision A.03,
 M. J. Frisch, G. W. Trucks, H. B. Schlegel, G. E. Scuseria, 
 M. A. Robb, J. R. Cheeseman, G. Scalmani, V. Barone, 
 G. A. Petersson, H. Nakatsuji, X. Li, M. Caricato, A. V. Marenich, 
 J. Bloino, B. G. Janesko, R. Gomperts, B. Mennucci, H. P. Hratchian, 
 J. V. Ortiz, A. F. Izmaylov, J. L. Sonnenberg, D. Williams-Young, 
 F. Ding, F. Lipparini, F. Egidi, J. Goings, B. Peng, A. Petrone, 
 T. Henderson, D. Ranasinghe, V. G. Zakrzewski, J. Gao, N. Rega, 
 G. Zheng, W. Liang, M. Hada, M. Ehara, K. Toyota, R. Fukuda, 
 J. Hasegawa, M. Ishida, T. Nakajima, Y. Honda, O. Kitao, H. Nakai, 
 T. Vreven, K. Throssell, J. A. Montgomery, Jr., J. E. Peralta, 
 F. Ogliaro, M. J. Bearpark, J. J. Heyd, E. N. Brothers, K. N. Kudin, 
 V. N. Staroverov, T. A. Keith, R. Kobayashi, J. Normand, 
 K. Raghavachari, A. P. Rendell, J. C. Burant, S. S. Iyengar, 
 J. Tomasi, M. Cossi, J. M. Millam, M. Klene, C. Adamo, R. Cammi, 
 J. W. Ochterski, R. L. Martin, K. Morokuma, O. Farkas, 
 J. B. Foresman, and D. J. Fox, Gaussian, Inc., Wallingford CT, 2016.
 
 ******************************************
 Gaussian 16:  ES64L-G16RevA.03 25-Dec-2016
                16-Aug-2025 
 ******************************************
 %chk=ethyl_propiolate.chk
 %nprocshared=24
 Will use up to   24 processors via shared memory.
 %mem=12GB
 --------------------------
 # freq 6-311++g(d,p) m062x
 --------------------------
 1/10=4,30=1,38=1/1,3;
 2/12=2,17=6,18=5,40=1/2;
 3/5=4,6=6,7=1111,11=2,25=1,30=1,71=2,74=-55,140=1/1,2,3;
 4//1;
 5/5=2,38=5,98=1/2;
 8/6=4,10=90,11=11/1;
 11/6=1,8=1,9=11,15=111,16=1/1,2,10;
 10/6=1/2;
 6/7=2,8=2,9=2,10=2,28=1/1;
 7/8=1,10=1,25=1/1,2,3,16;
 1/10=4,30=1/3;
 99//99;
 -------------------
 Title Card Required
 -------------------
 Symbolic Z-matrix:
 Charge =  0 Multiplicity = 2
 O                     2.34526   1.69758  -0.32568 
 H                     1.52574   1.77284   0.19962 
 C                    -3.31747   0.18931  -0.51622 
 H                    -4.33339   0.26151  -0.82768 
 C                    -2.17529   0.10752  -0.165 
 C                    -0.79011   0.05975   0.27287 
 O                    -0.22834   0.98725   0.79784 
 O                    -0.24632  -1.12497   0.0274 
 C                     1.12208  -1.32336   0.44415 
 C                     2.09977  -0.83751  -0.59709 
 H                     1.19625  -2.40247   0.5719 
 H                     1.27335  -0.83508   1.40792 
 H                     3.10291  -1.20831  -0.38348 
 H                     1.79914  -1.13408  -1.60264 
 H                     2.19494   0.27042  -0.61114 
 

 GradGradGradGradGradGradGradGradGradGradGradGradGradGradGradGradGradGrad
 Berny optimization.
 Initialization pass.
 Trust Radius=3.00D-01 FncErr=1.00D-07 GrdErr=1.00D-07 EigMax=2.50D+02 EigMin=1.00D-04
 Number of steps in this run=      2 maximum allowed number of steps=      2.
 GradGradGradGradGradGradGradGradGradGradGradGradGradGradGradGradGradGrad

                          Input orientation:                          
 ---------------------------------------------------------------------
 Center     Atomic      Atomic             Coordinates (Angstroms)
 Number     Number       Type             X           Y           Z
 ---------------------------------------------------------------------
      1          8           0        2.345259    1.697576   -0.325678
      2          1           0        1.525738    1.772835    0.199622
      3          6           0       -3.317465    0.189309   -0.516222
      4          1           0       -4.333394    0.261511   -0.827677
      5          6           0       -2.175291    0.107523   -0.165000
      6          6           0       -0.790113    0.059754    0.272866
      7          8           0       -0.228344    0.987246    0.797844
      8          8           0       -0.246318   -1.124974    0.027397
      9          6           0        1.122076   -1.323362    0.444148
     10          6           0        2.099766   -0.837511   -0.597088
     11          1           0        1.196254   -2.402469    0.571897
     12          1           0        1.273345   -0.835083    1.407923
     13          1           0        3.102906   -1.208305   -0.383480
     14          1           0        1.799139   -1.134077   -1.602640
     15          1           0        2.194938    0.270420   -0.611142
 ---------------------------------------------------------------------
                    Distance matrix (angstroms):
                    1          2          3          4          5
     1  O    0.000000
     2  H    0.976329   0.000000
     3  C    5.863243   5.145542   0.000000
     4  H    6.849722   6.137497   1.065049   0.000000
     5  C    4.794732   4.074780   1.197751   2.262800   0.000000
     6  C    3.587656   2.881523   2.650840   3.715742   1.453522
     7  O    2.896602   2.012914   3.450528   4.474421   2.343413
     8  O    3.848080   3.401050   3.384495   4.399737   2.297173
     9  C    3.348862   3.131960   4.787485   5.821642   3.645699
    10  C    2.561366   2.788935   5.514281   6.530434   4.399534
    11  H    4.351577   4.204796   5.317422   6.295443   4.267364
    12  H    3.250959   2.885295   5.082052   6.134814   3.905852
    13  H    3.003584   3.422669   6.572070   7.593170   5.444125
    14  H    3.153908   3.431185   5.395488   6.336892   4.405051
    15  H    1.463168   1.833690   5.513817   6.531928   4.395962
                    6          7          8          9         10
     6  C    0.000000
     7  O    1.204752   0.000000
     8  O    1.326480   2.248418   0.000000
     9  C    2.366181   2.699564   1.444140   0.000000
    10  C    3.148540   3.270423   2.444734   1.508675   0.000000
    11  H    3.177675   3.683843   2.002371   1.089171   2.152197
    12  H    2.519315   2.438883   2.073467   1.090945   2.168651
    13  H    4.146608   4.160913   3.375362   2.149859   1.090599
    14  H    3.412767   3.791177   2.615530   2.164159   1.090625
    15  H    3.120317   2.893333   2.883503   2.191988   1.112100
                   11         12         13         14         15
    11  H    0.000000
    12  H    1.778084   0.000000
    13  H    2.444196   2.587608   0.000000
    14  H    2.588610   3.070724   1.786524   0.000000
    15  H    3.088897   2.479535   1.750104   1.764182   0.000000
 Stoichiometry    C5H7O3(2)
 Framework group  C1[X(C5H7O3)]
 Deg. of freedom    39
 Full point group                 C1      NOp   1
 Largest Abelian subgroup         C1      NOp   1
 Largest concise Abelian subgroup C1      NOp   1
                         Standard orientation:                         
 ---------------------------------------------------------------------
 Center     Atomic      Atomic             Coordinates (Angstroms)
 Number     Number       Type             X           Y           Z
 ---------------------------------------------------------------------
      1          8           0        2.288834    1.724831   -0.321912
      2          1           0        1.469169    1.801450    0.202965
      3          6           0       -3.372605    0.211130   -0.507466
      4          1           0       -4.388545    0.281277   -0.819355
      5          6           0       -2.230419    0.131658   -0.155753
      6          6           0       -0.845271    0.086742    0.282509
      7          8           0       -0.284355    1.016734    0.803965
      8          8           0       -0.300453   -1.098478    0.041730
      9          6           0        1.068039   -1.294108    0.459459
     10          6           0        2.045489   -0.811494   -0.583506
     11          1           0        1.143093   -2.372648    0.591412
     12          1           0        1.218751   -0.801962    1.421353
     13          1           0        3.048903   -1.180622   -0.368305
     14          1           0        1.745267   -1.112215   -1.587945
     15          1           0        2.139743    0.296452   -0.601851
 ---------------------------------------------------------------------
 Rotational constants (GHZ):           3.2922387           1.1874268           0.9702348
 Standard basis: 6-311++G(d,p) (5D, 7F)
 There are   233 symmetry adapted cartesian basis functions of A   symmetry.
 There are   225 symmetry adapted basis functions of A   symmetry.
   225 basis functions,   351 primitive gaussians,   233 cartesian basis functions
    31 alpha electrons       30 beta electrons
       nuclear repulsion energy       352.8997650959 Hartrees.
 NAtoms=   15 NActive=   15 NUniq=   15 SFac= 1.00D+00 NAtFMM=   60 NAOKFM=F Big=F
 Integral buffers will be    131072 words long.
 Raffenetti 2 integral format.
 Two-electron integral symmetry is turned on.
 One-electron integrals computed using PRISM.
 NBasis=   225 RedAO= T EigKep=  7.22D-06  NBF=   225
 NBsUse=   224 1.00D-06 EigRej=  7.36D-07 NBFU=   224
 ExpMin= 3.60D-02 ExpMax= 8.59D+03 ExpMxC= 1.30D+03 IAcc=3 IRadAn=         5 AccDes= 0.00D+00
 Harris functional with IExCor= 1009 and IRadAn=       5 diagonalized for initial guess.
 HarFok:  IExCor= 1009 AccDes= 0.00D+00 IRadAn=         5 IDoV= 1 UseB2=F ITyADJ=14
 ICtDFT=  3500011 ScaDFX=  1.000000  1.000000  1.000000  1.000000
 FoFCou: FMM=F IPFlag=           0 FMFlag=      100000 FMFlg1=           0
         NFxFlg=           0 DoJE=T BraDBF=F KetDBF=T FulRan=T
         wScrn=  0.000000 ICntrl=       500 IOpCl=  0 I1Cent=   200000004 NGrid=           0
         NMat0=    1 NMatS0=      1 NMatT0=    0 NMatD0=    1 NMtDS0=    0 NMtDT0=    0
 Petite list used in FoFCou.
 Initial guess <Sx>= 0.0000 <Sy>= 0.0000 <Sz>= 0.5000 <S**2>= 0.7500 S= 0.5000
 Requested convergence on RMS density matrix=1.00D-08 within 128 cycles.
 Requested convergence on MAX density matrix=1.00D-06.
 Requested convergence on             energy=1.00D-06.
 No special actions if energy rises.
 SCF Done:  E(UM062X) =  -420.202658281     A.U. after   20 cycles
            NFock= 20  Conv=0.88D-08     -V/T= 2.0031
 <Sx>= 0.0000 <Sy>= 0.0000 <Sz>= 0.5000 <S**2>= 0.7561 S= 0.5031
 <L.S>=  0.00000000000    
 Annihilation of the first spin contaminant:
 S**2 before annihilation     0.7561,   after     0.7500
 DoSCS=F DFT=T ScalE2(SS,OS)=  1.000000  1.000000
 Range of M.O.s used for correlation:     1   224
 NBasis=   225 NAE=    31 NBE=    30 NFC=     0 NFV=     0
 NROrb=    224 NOA=    31 NOB=    30 NVA=   193 NVB=   194

 **** Warning!!: The largest alpha MO coefficient is  0.10222605D+03


 **** Warning!!: The largest beta MO coefficient is  0.96472357D+02

 Symmetrizing basis deriv contribution to polar:
 IMax=3 JMax=2 DiffMx= 0.00D+00
 G2DrvN: will do    16 centers at a time, making    1 passes.
 Calling FoFCou, ICntrl=  3107 FMM=F I1Cent=   0 AccDes= 0.00D+00.
 End of G2Drv F.D. properties file   721 does not exist.
 End of G2Drv F.D. properties file   722 does not exist.
 End of G2Drv F.D. properties file   788 does not exist.
          IDoAtm=111111111111111
          Differentiating once with respect to electric field.
                with respect to dipole field.
          Differentiating once with respect to nuclear coordinates.
 Keep R1 and R2 ints in memory in canonical form, NReq=671901989.
          There are    48 degrees of freedom in the 1st order CPHF.  IDoFFX=6 NUNeed=     3.
     45 vectors produced by pass  0 Test12= 2.46D-14 2.08D-09 XBig12= 9.58D+01 4.14D+00.
 AX will form    45 AO Fock derivatives at one time.
     45 vectors produced by pass  1 Test12= 2.46D-14 2.08D-09 XBig12= 2.05D+01 8.12D-01.
     45 vectors produced by pass  2 Test12= 2.46D-14 2.08D-09 XBig12= 7.70D-01 1.63D-01.
     45 vectors produced by pass  3 Test12= 2.46D-14 2.08D-09 XBig12= 1.08D-02 1.79D-02.
     45 vectors produced by pass  4 Test12= 2.46D-14 2.08D-09 XBig12= 8.69D-05 9.93D-04.
     45 vectors produced by pass  5 Test12= 2.46D-14 2.08D-09 XBig12= 5.53D-07 6.13D-05.
     45 vectors produced by pass  6 Test12= 2.46D-14 2.08D-09 XBig12= 3.47D-09 5.74D-06.
     17 vectors produced by pass  7 Test12= 2.46D-14 2.08D-09 XBig12= 1.84D-11 4.83D-07.
      3 vectors produced by pass  8 Test12= 2.46D-14 2.08D-09 XBig12= 1.40D-13 4.13D-08.
      2 vectors produced by pass  9 Test12= 2.46D-14 2.08D-09 XBig12= 1.31D-15 5.75D-09.
 InvSVY:  IOpt=1 It=  1 EMax= 7.11D-15
 Solved reduced A of dimension   337 with    48 vectors.
 Isotropic polarizability for W=    0.000000       72.68 Bohr**3.
 End of Minotr F.D. properties file   721 does not exist.
 End of Minotr F.D. properties file   722 does not exist.
 End of Minotr F.D. properties file   788 does not exist.

 **********************************************************************

            Population analysis using the SCF density.

 **********************************************************************

 Orbital symmetries:
 Alpha Orbitals:
       Occupied  (A) (A) (A) (A) (A) (A) (A) (A) (A) (A) (A) (A)
                 (A) (A) (A) (A) (A) (A) (A) (A) (A) (A) (A) (A)
                 (A) (A) (A) (A) (A) (A) (A)
       Virtual   (A) (A) (A) (A) (A) (A) (A) (A) (A) (A) (A) (A)
                 (A) (A) (A) (A) (A) (A) (A) (A) (A) (A) (A) (A)
                 (A) (A) (A) (A) (A) (A) (A) (A) (A) (A) (A) (A)
                 (A) (A) (A) (A) (A) (A) (A) (A) (A) (A) (A) (A)
                 (A) (A) (A) (A) (A) (A) (A) (A) (A) (A) (A) (A)
                 (A) (A) (A) (A) (A) (A) (A) (A) (A) (A) (A) (A)
                 (A) (A) (A) (A) (A) (A) (A) (A) (A) (A) (A) (A)
                 (A) (A) (A) (A) (A) (A) (A) (A) (A) (A) (A) (A)
                 (A) (A) (A) (A) (A) (A) (A) (A) (A) (A) (A) (A)
                 (A) (A) (A) (A) (A) (A) (A) (A) (A) (A) (A) (A)
                 (A) (A) (A) (A) (A) (A) (A) (A) (A) (A) (A) (A)
                 (A) (A) (A) (A) (A) (A) (A) (A) (A) (A) (A) (A)
                 (A) (A) (A) (A) (A) (A) (A) (A) (A) (A) (A) (A)
                 (A) (A) (A) (A) (A) (A) (A) (A) (A) (A) (A) (A)
                 (A) (A) (A) (A) (A) (A) (A) (A) (A) (A) (A) (A)
                 (A) (A) (A) (A) (A) (A) (A) (A) (A) (A) (A) (A)
                 (A)
 Beta  Orbitals:
       Occupied  (A) (A) (A) (A) (A) (A) (A) (A) (A) (A) (A) (A)
                 (A) (A) (A) (A) (A) (A) (A) (A) (A) (A) (A) (A)
                 (A) (A) (A) (A) (A) (A)
       Virtual   (A) (A) (A) (A) (A) (A) (A) (A) (A) (A) (A) (A)
                 (A) (A) (A) (A) (A) (A) (A) (A) (A) (A) (A) (A)
                 (A) (A) (A) (A) (A) (A) (A) (A) (A) (A) (A) (A)
                 (A) (A) (A) (A) (A) (A) (A) (A) (A) (A) (A) (A)
                 (A) (A) (A) (A) (A) (A) (A) (A) (A) (A) (A) (A)
                 (A) (A) (A) (A) (A) (A) (A) (A) (A) (A) (A) (A)
                 (A) (A) (A) (A) (A) (A) (A) (A) (A) (A) (A) (A)
                 (A) (A) (A) (A) (A) (A) (A) (A) (A) (A) (A) (A)
                 (A) (A) (A) (A) (A) (A) (A) (A) (A) (A) (A) (A)
                 (A) (A) (A) (A) (A) (A) (A) (A) (A) (A) (A) (A)
                 (A) (A) (A) (A) (A) (A) (A) (A) (A) (A) (A) (A)
                 (A) (A) (A) (A) (A) (A) (A) (A) (A) (A) (A) (A)
                 (A) (A) (A) (A) (A) (A) (A) (A) (A) (A) (A) (A)
                 (A) (A) (A) (A) (A) (A) (A) (A) (A) (A) (A) (A)
                 (A) (A) (A) (A) (A) (A) (A) (A) (A) (A) (A) (A)
                 (A) (A) (A) (A) (A) (A) (A) (A) (A) (A) (A) (A)
                 (A) (A)
 The electronic state is 2-A.
 Alpha  occ. eigenvalues --  -19.69786 -19.65859 -19.64782 -10.72319 -10.61790
 Alpha  occ. eigenvalues --  -10.57964 -10.57493 -10.54817  -1.27229  -1.17884
 Alpha  occ. eigenvalues --   -1.12347  -0.91608  -0.88053  -0.79444  -0.71842
 Alpha  occ. eigenvalues --   -0.65900  -0.62071  -0.60521  -0.58997  -0.56679
 Alpha  occ. eigenvalues --   -0.53929  -0.51605  -0.49158  -0.48228  -0.44975
 Alpha  occ. eigenvalues --   -0.41506  -0.40942  -0.40321  -0.38159  -0.37541
 Alpha  occ. eigenvalues --   -0.37313
 Alpha virt. eigenvalues --   -0.02839  -0.00378   0.00462   0.01745   0.02311
 Alpha virt. eigenvalues --    0.03008   0.03451   0.04926   0.05642   0.06422
 Alpha virt. eigenvalues --    0.06626   0.07379   0.07876   0.09323   0.10116
 Alpha virt. eigenvalues --    0.11342   0.11833   0.12473   0.12752   0.13172
 Alpha virt. eigenvalues --    0.14203   0.14585   0.14884   0.16208   0.16720
 Alpha virt. eigenvalues --    0.17601   0.17954   0.18812   0.19662   0.21653
 Alpha virt. eigenvalues --    0.22641   0.22757   0.23361   0.24702   0.26275
 Alpha virt. eigenvalues --    0.27104   0.27327   0.28547   0.29356   0.30479
 Alpha virt. eigenvalues --    0.31278   0.32014   0.32377   0.32937   0.34156
 Alpha virt. eigenvalues --    0.34353   0.37127   0.37936   0.40181   0.41135
 Alpha virt. eigenvalues --    0.42429   0.43893   0.47888   0.48533   0.49407
 Alpha virt. eigenvalues --    0.51420   0.54373   0.56787   0.56942   0.59719
 Alpha virt. eigenvalues --    0.61088   0.62665   0.65528   0.66713   0.67813
 Alpha virt. eigenvalues --    0.69704   0.70900   0.71959   0.73028   0.74388
 Alpha virt. eigenvalues --    0.75545   0.75776   0.78358   0.79834   0.84188
 Alpha virt. eigenvalues --    0.87828   0.91590   0.97226   1.04196   1.04657
 Alpha virt. eigenvalues --    1.07307   1.08265   1.10235   1.11177   1.14815
 Alpha virt. eigenvalues --    1.15071   1.16298   1.17967   1.19652   1.20842
 Alpha virt. eigenvalues --    1.21763   1.23045   1.28003   1.31209   1.33714
 Alpha virt. eigenvalues --    1.35290   1.36417   1.38265   1.43146   1.43398
 Alpha virt. eigenvalues --    1.46753   1.49025   1.52634   1.55246   1.59391
 Alpha virt. eigenvalues --    1.60251   1.61033   1.62604   1.63342   1.66211
 Alpha virt. eigenvalues --    1.67625   1.68003   1.70962   1.72069   1.80259
 Alpha virt. eigenvalues --    1.80533   1.83480   1.83992   1.85070   1.91201
 Alpha virt. eigenvalues --    1.95945   2.00114   2.02073   2.05347   2.10326
 Alpha virt. eigenvalues --    2.13437   2.18064   2.21777   2.29097   2.33456
 Alpha virt. eigenvalues --    2.40092   2.42341   2.48308   2.52179   2.54382
 Alpha virt. eigenvalues --    2.59462   2.59963   2.61378   2.64136   2.65128
 Alpha virt. eigenvalues --    2.66432   2.68803   2.71670   2.74439   2.80341
 Alpha virt. eigenvalues --    2.81126   2.84571   2.89706   2.91175   2.93132
 Alpha virt. eigenvalues --    2.97644   3.00595   3.03538   3.05625   3.10083
 Alpha virt. eigenvalues --    3.14324   3.18033   3.18544   3.20605   3.24662
 Alpha virt. eigenvalues --    3.29806   3.32314   3.35986   3.40950   3.43019
 Alpha virt. eigenvalues --    3.55601   3.64125   3.71478   3.78161   3.85070
 Alpha virt. eigenvalues --    3.92343   3.94814   4.04704   4.12344   4.17136
 Alpha virt. eigenvalues --    4.30066   5.07746   5.12469   5.17518   5.25334
 Alpha virt. eigenvalues --    5.31740   5.44201   5.58390   5.73147   5.95637
 Alpha virt. eigenvalues --   23.61561  23.92416  23.93099  24.06412  25.17053
 Alpha virt. eigenvalues --   49.97147  49.98174  50.09461
  Beta  occ. eigenvalues --  -19.69786 -19.64786 -19.64392 -10.72319 -10.61800
  Beta  occ. eigenvalues --  -10.57964 -10.57493 -10.54581  -1.27227  -1.17878
  Beta  occ. eigenvalues --   -1.05688  -0.91446  -0.87792  -0.78936  -0.71502
  Beta  occ. eigenvalues --   -0.65838  -0.62037  -0.60335  -0.58548  -0.54525
  Beta  occ. eigenvalues --   -0.51931  -0.49792  -0.47986  -0.46012  -0.42966
  Beta  occ. eigenvalues --   -0.40892  -0.39815  -0.38222  -0.37925  -0.37282
  Beta virt. eigenvalues --   -0.09153  -0.02817  -0.00334   0.00482   0.01821
  Beta virt. eigenvalues --    0.02542   0.03115   0.03463   0.05347   0.05714
  Beta virt. eigenvalues --    0.06532   0.06842   0.07514   0.07917   0.09536
  Beta virt. eigenvalues --    0.10341   0.11410   0.11954   0.12465   0.12711
  Beta virt. eigenvalues --    0.13278   0.14323   0.14721   0.15176   0.16312
  Beta virt. eigenvalues --    0.16835   0.17808   0.18048   0.19032   0.19861
  Beta virt. eigenvalues --    0.21795   0.22721   0.22891   0.23662   0.24553
  Beta virt. eigenvalues --    0.25987   0.27221   0.27495   0.28803   0.29289
  Beta virt. eigenvalues --    0.30476   0.31460   0.31975   0.32279   0.33078
  Beta virt. eigenvalues --    0.34328   0.34441   0.37239   0.38747   0.40602
  Beta virt. eigenvalues --    0.41604   0.42671   0.43981   0.48133   0.48552
  Beta virt. eigenvalues --    0.49606   0.51491   0.54434   0.56801   0.56990
  Beta virt. eigenvalues --    0.59731   0.61217   0.62879   0.65695   0.67070
  Beta virt. eigenvalues --    0.67933   0.70073   0.70936   0.72098   0.73208
  Beta virt. eigenvalues --    0.74416   0.75680   0.75994   0.78503   0.79978
  Beta virt. eigenvalues --    0.84200   0.87884   0.91640   0.97547   1.04368
  Beta virt. eigenvalues --    1.04946   1.07811   1.08688   1.10248   1.12281
  Beta virt. eigenvalues --    1.15123   1.15967   1.16403   1.18455   1.20570
  Beta virt. eigenvalues --    1.21048   1.22310   1.24272   1.28055   1.31353
  Beta virt. eigenvalues --    1.34040   1.35342   1.36504   1.38319   1.43382
  Beta virt. eigenvalues --    1.43522   1.47033   1.50429   1.53467   1.55755
  Beta virt. eigenvalues --    1.59498   1.60253   1.61364   1.62716   1.63418
  Beta virt. eigenvalues --    1.66264   1.67657   1.68105   1.71232   1.72271
  Beta virt. eigenvalues --    1.80161   1.81285   1.83487   1.83993   1.85486
  Beta virt. eigenvalues --    1.91194   1.95992   2.00159   2.02223   2.05349
  Beta virt. eigenvalues --    2.10295   2.14132   2.18217   2.22353   2.29242
  Beta virt. eigenvalues --    2.33582   2.40909   2.42701   2.48383   2.52402
  Beta virt. eigenvalues --    2.54510   2.59399   2.59994   2.61616   2.64187
  Beta virt. eigenvalues --    2.64957   2.66166   2.68621   2.71869   2.74446
  Beta virt. eigenvalues --    2.80389   2.81130   2.84553   2.89810   2.92703
  Beta virt. eigenvalues --    2.96412   2.97677   3.00673   3.03549   3.05631
  Beta virt. eigenvalues --    3.10140   3.14597   3.19870   3.20009   3.22675
  Beta virt. eigenvalues --    3.25254   3.29959   3.32624   3.36162   3.42051
  Beta virt. eigenvalues --    3.44692   3.55623   3.64159   3.71561   3.79375
  Beta virt. eigenvalues --    3.85334   3.92667   3.96879   4.05178   4.12371
  Beta virt. eigenvalues --    4.17138   4.30573   5.09549   5.12745   5.17572
  Beta virt. eigenvalues --    5.31249   5.32959   5.44242   5.60612   5.73299
  Beta virt. eigenvalues --    5.95660  23.61561  23.92417  23.93109  24.06523
  Beta virt. eigenvalues --   25.17052  49.96645  49.98174  50.09459
          Condensed to atoms (all electrons):
               1          2          3          4          5          6
     1  O    8.043816   0.270629   0.004924   0.000167  -0.017753   0.015495
     2  H    0.270629   0.452330  -0.005427  -0.000255   0.013652  -0.028302
     3  C    0.004924  -0.005427   6.387394   0.495810  -1.470742   1.394135
     4  H    0.000167  -0.000255   0.495810   0.436641  -0.162006   0.057707
     5  C   -0.017753   0.013652  -1.470742  -0.162006   9.717245  -2.894683
     6  C    0.015495  -0.028302   1.394135   0.057707  -2.894683   7.753510
     7  O   -0.003939   0.016037  -0.083366  -0.002305   0.057265   0.328498
     8  O   -0.003455   0.000377  -0.098851  -0.005366  -0.181679   0.169805
     9  C   -0.007695   0.044398   0.023334  -0.001688  -0.274219  -0.132423
    10  C   -0.008279  -0.006268  -0.015163  -0.000691   0.009369  -0.022040
    11  H    0.001016   0.002730  -0.004872  -0.000307   0.011515  -0.028451
    12  H   -0.005104  -0.006466   0.003179   0.000186  -0.005857   0.019947
    13  H   -0.007013   0.003256  -0.000206  -0.000009  -0.001819   0.001219
    14  H    0.003863  -0.000604  -0.002202  -0.000089   0.015877   0.003416
    15  H   -0.001088  -0.024922   0.010007   0.000380  -0.035534   0.023530
               7          8          9         10         11         12
     1  O   -0.003939  -0.003455  -0.007695  -0.008279   0.001016  -0.005104
     2  H    0.016037   0.000377   0.044398  -0.006268   0.002730  -0.006466
     3  C   -0.083366  -0.098851   0.023334  -0.015163  -0.004872   0.003179
     4  H   -0.002305  -0.005366  -0.001688  -0.000691  -0.000307   0.000186
     5  C    0.057265  -0.181679  -0.274219   0.009369   0.011515  -0.005857
     6  C    0.328498   0.169805  -0.132423  -0.022040  -0.028451   0.019947
     7  O    8.097200  -0.153883   0.113905  -0.082346   0.005933  -0.023334
     8  O   -0.153883   8.213411   0.186220  -0.047241  -0.094731  -0.002913
     9  C    0.113905   0.186220   5.886733  -0.126251   0.492266   0.337464
    10  C   -0.082346  -0.047241  -0.126251   5.671468  -0.088332  -0.005546
    11  H    0.005933  -0.094731   0.492266  -0.088332   0.561106  -0.051960
    12  H   -0.023334  -0.002913   0.337464  -0.005546  -0.051960   0.526473
    13  H    0.000300   0.012973  -0.002685   0.371561   0.001537  -0.006762
    14  H   -0.002437  -0.001613  -0.075530   0.429681  -0.016304   0.011159
    15  H    0.009392  -0.019953  -0.042234   0.360444   0.013405  -0.018132
              13         14         15
     1  O   -0.007013   0.003863  -0.001088
     2  H    0.003256  -0.000604  -0.024922
     3  C   -0.000206  -0.002202   0.010007
     4  H   -0.000009  -0.000089   0.000380
     5  C   -0.001819   0.015877  -0.035534
     6  C    0.001219   0.003416   0.023530
     7  O    0.000300  -0.002437   0.009392
     8  O    0.012973  -0.001613  -0.019953
     9  C   -0.002685  -0.075530  -0.042234
    10  C    0.371561   0.429681   0.360444
    11  H    0.001537  -0.016304   0.013405
    12  H   -0.006762   0.011159  -0.018132
    13  H    0.517476  -0.034252  -0.030738
    14  H   -0.034252   0.542485  -0.065134
    15  H   -0.030738  -0.065134   0.583678
          Atomic-Atomic Spin Densities.
               1          2          3          4          5          6
     1  O    0.913185  -0.000610  -0.000546  -0.000028  -0.001110  -0.016162
     2  H   -0.000610  -0.024499   0.000783   0.000029  -0.000233   0.006030
     3  C   -0.000546   0.000783  -0.027210  -0.002773   0.049210  -0.017147
     4  H   -0.000028   0.000029  -0.002773  -0.001164   0.004562  -0.000858
     5  C   -0.001110  -0.000233   0.049210   0.004562  -0.121680   0.048695
     6  C   -0.016162   0.006030  -0.017147  -0.000858   0.048695  -0.022691
     7  O    0.005891   0.000161  -0.001198  -0.000041   0.004207  -0.000848
     8  O    0.001394  -0.001153   0.001831   0.000042  -0.008961  -0.003447
     9  C    0.038217  -0.010644  -0.003936   0.000238   0.031211  -0.006258
    10  C   -0.077683   0.008694  -0.000269  -0.000054  -0.006747  -0.009467
    11  H    0.000286   0.000199  -0.000153   0.000036   0.003546   0.008403
    12  H   -0.001511   0.000058   0.000696  -0.000013  -0.005681  -0.004142
    13  H    0.006722  -0.001815   0.000013   0.000006  -0.000105  -0.002887
    14  H    0.001149  -0.000496   0.000150  -0.000027  -0.002192  -0.002920
    15  H   -0.031923   0.012899  -0.000662   0.000018   0.011911   0.028103
               7          8          9         10         11         12
     1  O    0.005891   0.001394   0.038217  -0.077683   0.000286  -0.001511
     2  H    0.000161  -0.001153  -0.010644   0.008694   0.000199   0.000058
     3  C   -0.001198   0.001831  -0.003936  -0.000269  -0.000153   0.000696
     4  H   -0.000041   0.000042   0.000238  -0.000054   0.000036  -0.000013
     5  C    0.004207  -0.008961   0.031211  -0.006747   0.003546  -0.005681
     6  C   -0.000848  -0.003447  -0.006258  -0.009467   0.008403  -0.004142
     7  O   -0.002212   0.001579  -0.002959   0.000949  -0.000697   0.000957
     8  O    0.001579   0.000926   0.012231  -0.005279  -0.000744  -0.000745
     9  C   -0.002959   0.012231  -0.029815  -0.003892  -0.013592   0.015646
    10  C    0.000949  -0.005279  -0.003892   0.266888   0.007418  -0.010445
    11  H   -0.000697  -0.000744  -0.013592   0.007418   0.007585   0.002634
    12  H    0.000957  -0.000745   0.015646  -0.010445   0.002634  -0.002921
    13  H    0.000340   0.000399   0.009834  -0.010951  -0.001508   0.000107
    14  H    0.000496   0.000048   0.012411  -0.022961   0.001123  -0.001376
    15  H   -0.008545   0.001460  -0.073116   0.090646  -0.005388   0.009380
              13         14         15
     1  O    0.006722   0.001149  -0.031923
     2  H   -0.001815  -0.000496   0.012899
     3  C    0.000013   0.000150  -0.000662
     4  H    0.000006  -0.000027   0.000018
     5  C   -0.000105  -0.002192   0.011911
     6  C   -0.002887  -0.002920   0.028103
     7  O    0.000340   0.000496  -0.008545
     8  O    0.000399   0.000048   0.001460
     9  C    0.009834   0.012411  -0.073116
    10  C   -0.010951  -0.022961   0.090646
    11  H   -0.001508   0.001123  -0.005388
    12  H    0.000107  -0.001376   0.009380
    13  H   -0.003149   0.003089  -0.007085
    14  H    0.003089  -0.002173   0.012031
    15  H   -0.007085   0.012031  -0.079441
 Mulliken charges and spin densities:
               1          2
     1  O   -0.285583   0.837271
     2  H    0.268835  -0.010598
     3  C   -0.637955  -0.001211
     4  H    0.181825  -0.000027
     5  C    1.219369   0.006633
     6  C   -0.661363   0.004405
     7  O   -0.276920  -0.001921
     8  O    0.026900  -0.000420
     9  C   -0.421595  -0.024424
    10  C   -0.440367   0.226846
    11  H    0.195446   0.009149
    12  H    0.227665   0.002646
    13  H    0.175161  -0.006991
    14  H    0.191684  -0.001645
    15  H    0.236898  -0.039711
 Sum of Mulliken charges =  -0.00000   1.00000
 Mulliken charges and spin densities with hydrogens summed into heavy atoms:
               1          2
     1  O   -0.016749   0.826673
     3  C   -0.456130  -0.001239
     5  C    1.219369   0.006633
     6  C   -0.661363   0.004405
     7  O   -0.276920  -0.001921
     8  O    0.026900  -0.000420
     9  C    0.001516  -0.012629
    10  C    0.163377   0.178499
 APT charges:
               1
     1  O   -0.230415
     2  H    0.382512
     3  C   -0.172328
     4  H    0.238014
     5  C   -0.314167
     6  C    1.478576
     7  O   -0.825718
     8  O   -0.922487
     9  C    0.469688
    10  C    0.155457
    11  H   -0.005818
    12  H   -0.002289
    13  H   -0.010088
    14  H   -0.016419
    15  H   -0.224517
 Sum of APT charges =   0.00000
 APT charges with hydrogens summed into heavy atoms:
               1
     1  O    0.152097
     3  C    0.065686
     5  C   -0.314167
     6  C    1.478576
     7  O   -0.825718
     8  O   -0.922487
     9  C    0.461581
    10  C   -0.095568
 Electronic spatial extent (au):  <R**2>=           1191.5091
 Charge=             -0.0000 electrons
 Dipole moment (field-independent basis, Debye):
    X=             -1.8742    Y=             -2.5849    Z=             -0.0041  Tot=              3.1929
 Quadrupole moment (field-independent basis, Debye-Ang):
   XX=            -40.3102   YY=            -50.2844   ZZ=            -48.0568
   XY=             -7.2341   XZ=              4.2169   YZ=             -0.8387
 Traceless Quadrupole moment (field-independent basis, Debye-Ang):
   XX=              5.9069   YY=             -4.0673   ZZ=             -1.8396
   XY=             -7.2341   XZ=              4.2169   YZ=             -0.8387
 Octapole moment (field-independent basis, Debye-Ang**2):
  XXX=            -60.9046  YYY=             -0.9895  ZZZ=              2.8952  XYY=              6.4464
  XXY=            -11.0167  XXZ=            -10.3051  XZZ=              3.3384  YZZ=             -2.3247
  YYZ=              4.3903  XYZ=              4.8063
 Hexadecapole moment (field-independent basis, Debye-Ang**3):
 XXXX=           -842.1921 YYYY=           -333.5972 ZZZZ=           -126.4505 XXXY=            -57.1647
 XXXZ=             70.4750 YYYX=              1.5426 YYYZ=              2.1979 ZZZX=             -2.1572
 ZZZY=              1.4415 XXYY=           -267.9020 XXZZ=           -202.0171 YYZZ=            -83.2520
 XXYZ=              0.4585 YYXZ=              7.4136 ZZXY=              0.3594
 N-N= 3.528997650959D+02 E-N=-1.690138078471D+03  KE= 4.189025667262D+02
  Exact polarizability:  93.053  -1.993  72.900   7.718   2.375  52.084
 Approx polarizability:  99.976   0.210  81.305  12.272   5.764  62.833
                          Isotropic Fermi Contact Couplings
        Atom                 a.u.       MegaHertz       Gauss      10(-4) cm-1
     1  O(17)              0.13028     -78.97331     -28.17964     -26.34266
     2  H(1)              -0.01412     -63.10267     -22.51660     -21.04879
     3  C(13)             -0.00004      -0.04202      -0.01499      -0.01402
     4  H(1)               0.00000       0.00840       0.00300       0.00280
     5  C(13)             -0.00010      -0.11297      -0.04031      -0.03768
     6  C(13)             -0.00012      -0.13590      -0.04849      -0.04533
     7  O(17)             -0.00504       3.05587       1.09041       1.01933
     8  O(17)              0.00111      -0.67381      -0.24043      -0.22476
     9  C(13)             -0.00671      -7.54688      -2.69292      -2.51737
    10  C(13)              0.10062     113.11880      40.36360      37.73237
    11  H(1)               0.00443      19.81156       7.06926       6.60843
    12  H(1)               0.00151       6.74117       2.40542       2.24861
    13  H(1)              -0.00207      -9.26663      -3.30657      -3.09102
    14  H(1)              -0.00014      -0.61262      -0.21860      -0.20435
    15  H(1)              -0.00960     -42.91464     -15.31301     -14.31478
 --------------------------------------------------------
       Center         ----  Spin Dipole Couplings  ----
                      3XX-RR        3YY-RR        3ZZ-RR
 --------------------------------------------------------
     1   Atom       -1.556197      3.176385     -1.620187
     2   Atom        0.076477     -0.039953     -0.036524
     3   Atom        0.001368     -0.000523     -0.000845
     4   Atom        0.000853     -0.000392     -0.000461
     5   Atom        0.002228     -0.000943     -0.001285
     6   Atom        0.005239     -0.001384     -0.003855
     7   Atom        0.003999     -0.002815     -0.001184
     8   Atom        0.003398     -0.000005     -0.003393
     9   Atom       -0.001300      0.006291     -0.004991
    10   Atom       -0.139235      0.279224     -0.139989
    11   Atom       -0.002033      0.003869     -0.001836
    12   Atom       -0.003654      0.000655      0.003000
    13   Atom        0.010403      0.007218     -0.017621
    14   Atom       -0.015714      0.003007      0.012708
    15   Atom       -0.089431      0.174513     -0.085082
 --------------------------------------------------------
                        XY            XZ            YZ
 --------------------------------------------------------
     1   Atom        0.764993      0.083381      0.485687
     2   Atom       -0.009608     -0.121393      0.020933
     3   Atom        0.000342      0.000171      0.000098
     4   Atom        0.000183      0.000086      0.000018
     5   Atom        0.000827     -0.000248     -0.000030
     6   Atom        0.002186     -0.001767     -0.000257
     7   Atom       -0.000955     -0.004539     -0.001614
     8   Atom        0.002699     -0.000097     -0.000292
     9   Atom        0.008940     -0.004852     -0.005761
    10   Atom        0.017366      0.001314      0.022116
    11   Atom        0.001917     -0.001904     -0.002795
    12   Atom        0.002677     -0.004296     -0.004722
    13   Atom       -0.012376      0.006659     -0.001304
    14   Atom        0.003589      0.009826      0.010245
    15   Atom        0.024539      0.002591      0.032796
 --------------------------------------------------------


 ---------------------------------------------------------------------------------
              Anisotropic Spin Dipole Couplings in Principal Axis System
 ---------------------------------------------------------------------------------

       Atom             a.u.   MegaHertz   Gauss  10(-4) cm-1        Axes

              Baa    -1.6807   121.612    43.394    40.565  0.8626 -0.0860 -0.4986
     1 O(17)  Bbb    -1.6652   120.492    42.995    40.192  0.4816 -0.1625  0.8612
              Bcc     3.3459  -242.104   -86.389   -80.757  0.1551  0.9830  0.0987
 
              Baa    -0.1160   -61.897   -22.086   -20.647  0.5202 -0.1649  0.8380
     2 H(1)   Bbb    -0.0398   -21.227    -7.574    -7.081  0.1716  0.9814  0.0866
              Bcc     0.1558    83.124    29.661    27.727  0.8366 -0.0987 -0.5388
 
              Baa    -0.0009    -0.117    -0.042    -0.039 -0.0385 -0.2320  0.9719
     3 C(13)  Bbb    -0.0006    -0.076    -0.027    -0.025 -0.1885  0.9569  0.2210
              Bcc     0.0014     0.194     0.069     0.065  0.9813  0.1747  0.0806
 
              Baa    -0.0005    -0.249    -0.089    -0.083 -0.0474 -0.1254  0.9910
     4 H(1)   Bbb    -0.0004    -0.223    -0.079    -0.074 -0.1493  0.9818  0.1171
              Bcc     0.0009     0.472     0.168     0.157  0.9877  0.1424  0.0653
 
              Baa    -0.0013    -0.175    -0.063    -0.058  0.1063 -0.1603  0.9813
     5 C(13)  Bbb    -0.0011    -0.153    -0.055    -0.051 -0.2219  0.9582  0.1806
              Bcc     0.0024     0.328     0.117     0.110  0.9692  0.2370 -0.0663
 
              Baa    -0.0042    -0.563    -0.201    -0.188  0.1981 -0.0645  0.9781
     6 C(13)  Bbb    -0.0020    -0.270    -0.096    -0.090 -0.2607  0.9584  0.1160
              Bcc     0.0062     0.833     0.297     0.278  0.9449  0.2780 -0.1731
 
              Baa    -0.0053     0.380     0.136     0.127  0.3990  0.6089  0.6856
     7 O(17)  Bbb    -0.0014     0.100     0.036     0.033 -0.3044  0.7933 -0.5274
              Bcc     0.0066    -0.480    -0.171    -0.160  0.8650 -0.0017 -0.5018
 
              Baa    -0.0034     0.248     0.088     0.083 -0.0284  0.1074  0.9938
     8 O(17)  Bbb    -0.0015     0.106     0.038     0.036 -0.4836  0.8687 -0.1077
              Bcc     0.0049    -0.354    -0.126    -0.118  0.8748  0.4836 -0.0273
 
              Baa    -0.0084    -1.123    -0.401    -0.374  0.6362 -0.0867  0.7666
     9 C(13)  Bbb    -0.0066    -0.892    -0.318    -0.297 -0.5624  0.6281  0.5377
              Bcc     0.0150     2.014     0.719     0.672  0.5282  0.7733 -0.3508
 
              Baa    -0.1413   -18.958    -6.765    -6.324 -0.2902 -0.0383  0.9562
    10 C(13)  Bbb    -0.1398   -18.764    -6.696    -6.259  0.9561 -0.0548  0.2879
              Bcc     0.2811    37.722    13.460    12.583  0.0414  0.9978  0.0525
 
              Baa    -0.0039    -2.080    -0.742    -0.694  0.6530  0.1086  0.7495
    11 H(1)   Bbb    -0.0019    -1.022    -0.365    -0.341  0.6923 -0.4868 -0.5327
              Bcc     0.0058     3.103     1.107     1.035  0.3070  0.8667 -0.3931
 
              Baa    -0.0058    -3.089    -1.102    -1.030  0.9126 -0.0862  0.3997
    12 H(1)   Bbb    -0.0030    -1.575    -0.562    -0.525 -0.1588  0.8260  0.5408
              Bcc     0.0087     4.664     1.664     1.556 -0.3768 -0.5570  0.7401
 
              Baa    -0.0192   -10.255    -3.659    -3.421 -0.2455 -0.0672  0.9671
    13 H(1)   Bbb    -0.0029    -1.570    -0.560    -0.524  0.6075  0.7667  0.2075
              Bcc     0.0222    11.825     4.219     3.944  0.7554 -0.6385  0.1474
 
              Baa    -0.0188   -10.025    -3.577    -3.344  0.9563 -0.0203 -0.2917
    14 H(1)   Bbb    -0.0032    -1.703    -0.608    -0.568 -0.1280  0.8678 -0.4801
              Bcc     0.0220    11.727     4.185     3.912  0.2629  0.4965  0.8273
 
              Baa    -0.0918   -48.960   -17.470   -16.331  0.9809 -0.1101  0.1601
    15 H(1)   Bbb    -0.0891   -47.530   -16.960   -15.854 -0.1717 -0.1059  0.9794
              Bcc     0.1808    96.490    34.430    32.185  0.0909  0.9883  0.1228
 

 ---------------------------------------------------------------------------------

 Calling FoFJK, ICntrl=    100127 FMM=F ISym2X=0 I1Cent= 0 IOpClX= 1 NMat=1 NMatS=1 NMatT=0.
 Full mass-weighted force constant matrix:
 Low frequencies --- -332.4883 -145.1650  -68.2921  -45.5459   -0.0007   -0.0006
 Low frequencies ---   -0.0005    6.7030   35.4414
 ******    3 imaginary frequencies (negative Signs) ****** 
 Diagonal vibrational polarizability:
      160.3273584      63.3928230      38.4601710
 Harmonic frequencies (cm**-1), IR intensities (KM/Mole), Raman scattering
 activities (A**4/AMU), depolarization ratios for plane and unpolarized
 incident light, reduced masses (AMU), force constants (mDyne/A),
 and normal coordinates:
                      1                      2                      3
                      A                      A                      A
 Frequencies --   -332.4695              -143.5427               -16.7889
 Red. masses --      1.7611                 2.1414                 4.2728
 Frc consts  --      0.1147                 0.0260                 0.0007
 IR Inten    --     50.5048                 1.7837                 1.5602
  Atom  AN      X      Y      Z        X      Y      Z        X      Y      Z
     1   8    -0.02  -0.16  -0.07    -0.09   0.19  -0.05    -0.22  -0.06  -0.20
     2   1    -0.01  -0.00  -0.09    -0.15   0.05  -0.12    -0.06  -0.08   0.04
     3   6    -0.00   0.00  -0.00     0.01   0.03   0.01     0.08   0.13  -0.10
     4   1    -0.00   0.00  -0.00     0.01   0.04   0.02     0.10   0.19  -0.16
     5   6    -0.00  -0.00  -0.00     0.02   0.03   0.00     0.05   0.05  -0.03
     6   6    -0.01   0.00   0.00     0.02  -0.00  -0.01     0.02  -0.01   0.07
     7   8    -0.01  -0.01   0.02     0.04  -0.02   0.01    -0.04  -0.09   0.26
     8   8     0.01   0.00  -0.01    -0.01  -0.00  -0.03     0.05   0.03  -0.08
     9   6    -0.00   0.01  -0.01    -0.03  -0.10   0.01     0.02  -0.00   0.01
    10   6     0.02   0.14   0.07     0.07  -0.12   0.07     0.08  -0.02   0.06
    11   1     0.03  -0.00  -0.12    -0.12  -0.11  -0.04     0.01  -0.00   0.02
    12   1    -0.02  -0.08   0.04    -0.05  -0.15   0.04    -0.03   0.00   0.01
    13   1    -0.01  -0.06  -0.12    -0.06  -0.57  -0.09     0.15   0.36   0.36
    14   1    -0.10   0.64  -0.04    -0.10   0.22   0.02     0.36  -0.37   0.09
    15   1     0.32   0.28   0.53     0.47  -0.21   0.40    -0.28   0.03  -0.24
                      4                      5                      6
                      A                      A                      A
 Frequencies --     65.4341                88.4368               141.2899
 Red. masses --      3.3774                 2.9463                 5.6028
 Frc consts  --      0.0085                 0.0136                 0.0659
 IR Inten    --      4.0775                 3.3845                 1.0349
  Atom  AN      X      Y      Z        X      Y      Z        X      Y      Z
     1   8     0.09   0.15  -0.10    -0.08  -0.00   0.02     0.29   0.06  -0.13
     2   1     0.16   0.37  -0.03    -0.09  -0.08   0.00     0.34   0.20  -0.07
     3   6     0.04   0.09  -0.06     0.11   0.01  -0.20    -0.01  -0.29  -0.12
     4   1     0.06   0.16  -0.10     0.15   0.01  -0.35     0.01  -0.56  -0.24
     5   6     0.02   0.00  -0.01     0.05   0.00  -0.01    -0.04   0.05   0.04
     6   6     0.01  -0.08   0.02     0.01  -0.00   0.10    -0.05   0.10   0.10
     7   8     0.09  -0.10  -0.03     0.00   0.02   0.08    -0.05   0.01   0.25
     8   8    -0.08  -0.14   0.10    -0.00  -0.02   0.18    -0.06   0.13  -0.08
     9   6    -0.05  -0.12   0.01     0.06   0.03   0.01    -0.11  -0.03  -0.05
    10   6    -0.13   0.16   0.07    -0.11  -0.02  -0.19    -0.04  -0.04   0.01
    11   1     0.04  -0.14  -0.18     0.09   0.04   0.06    -0.20  -0.04  -0.12
    12   1    -0.06  -0.28   0.10     0.19   0.09  -0.05    -0.09  -0.11  -0.01
    13   1    -0.04   0.44   0.10    -0.13  -0.27  -0.51    -0.08  -0.15   0.00
    14   1    -0.01   0.13   0.04    -0.45   0.17  -0.14    -0.04   0.03  -0.01
    15   1    -0.45   0.19   0.11     0.13  -0.04  -0.04     0.03  -0.08   0.07
                      7                      8                      9
                      A                      A                      A
 Frequencies --    191.1433               273.0578               334.8141
 Red. masses --      4.4430                 4.2774                 3.4552
 Frc consts  --      0.0956                 0.1879                 0.2282
 IR Inten    --      8.3839                 2.2433                12.6695
  Atom  AN      X      Y      Z        X      Y      Z        X      Y      Z
     1   8    -0.21  -0.07   0.07    -0.01  -0.01   0.01    -0.01   0.01   0.01
     2   1    -0.12  -0.06   0.20    -0.07  -0.05  -0.09    -0.05  -0.08  -0.03
     3   6     0.08  -0.22  -0.00     0.04   0.05  -0.18     0.01  -0.04  -0.04
     4   1     0.06  -0.51  -0.01     0.18   0.17  -0.61     0.04  -0.11  -0.15
     5   6     0.10   0.16   0.01    -0.15  -0.11   0.39    -0.03   0.08   0.12
     6   6     0.10   0.14  -0.02    -0.06  -0.02   0.12    -0.00  -0.05  -0.02
     7   8     0.22   0.09  -0.06     0.02   0.07  -0.12     0.19  -0.18  -0.01
     8   8    -0.06   0.06   0.01    -0.02   0.03  -0.02    -0.05  -0.05  -0.14
     9   6    -0.08  -0.12  -0.05     0.00  -0.04  -0.10    -0.07   0.23   0.10
    10   6    -0.07   0.02   0.03     0.12  -0.00   0.02    -0.06   0.03   0.02
    11   1    -0.15  -0.15  -0.26    -0.04  -0.05  -0.21     0.06   0.28   0.46
    12   1    -0.03  -0.31   0.04     0.02  -0.15  -0.05    -0.24   0.56  -0.06
    13   1    -0.02   0.24   0.15     0.10   0.06   0.23    -0.10  -0.13  -0.04
    14   1     0.09  -0.05   0.01     0.33  -0.06  -0.03    -0.19   0.01   0.06
    15   1    -0.31   0.06   0.01     0.06   0.00  -0.01     0.13   0.02  -0.06
                     10                     11                     12
                      A                      A                      A
 Frequencies --    415.5648               429.5912               563.0093
 Red. masses --      3.6466                 1.0558                 4.2339
 Frc consts  --      0.3710                 0.1148                 0.7907
 IR Inten    --      2.8327                93.9033                 1.5044
  Atom  AN      X      Y      Z        X      Y      Z        X      Y      Z
     1   8     0.01   0.01  -0.00    -0.02   0.02  -0.04    -0.01  -0.01   0.00
     2   1    -0.02  -0.23  -0.02     0.50  -0.26   0.81     0.02   0.19   0.01
     3   6    -0.11  -0.03  -0.02    -0.01   0.00  -0.01    -0.20  -0.00  -0.07
     4   1    -0.14  -0.20   0.04    -0.00   0.02  -0.02    -0.19  -0.27  -0.18
     5   6    -0.06   0.19  -0.09    -0.01  -0.01   0.01    -0.19   0.28   0.06
     6   6    -0.07  -0.01   0.03    -0.00   0.00  -0.01    -0.03  -0.02  -0.05
     7   8     0.05  -0.08   0.01    -0.00   0.00  -0.02     0.00  -0.06  -0.02
     8   8    -0.13  -0.09   0.19     0.00  -0.00   0.00     0.16   0.01  -0.02
     9   6     0.03   0.08  -0.13    -0.00   0.01   0.01     0.22  -0.13   0.14
    10   6     0.22   0.03  -0.05     0.01   0.00   0.01     0.01  -0.02   0.00
    11   1     0.11   0.08  -0.16     0.01   0.01  -0.00     0.11  -0.15   0.03
    12   1     0.13   0.03  -0.12    -0.01  -0.02   0.02     0.21  -0.19   0.17
    13   1     0.10  -0.08   0.33    -0.01  -0.07  -0.04     0.16   0.17  -0.39
    14   1     0.53  -0.06  -0.11    -0.05   0.05   0.01    -0.31   0.02   0.08
    15   1     0.40   0.01  -0.12     0.05  -0.00  -0.00    -0.27  -0.00   0.06
                     13                     14                     15
                      A                      A                      A
 Frequencies --    610.3854               685.8663               746.1352
 Red. masses --      7.1914                 1.1420                 1.3139
 Frc consts  --      1.5786                 0.3165                 0.4310
 IR Inten    --      9.8727               109.1211                38.8113
  Atom  AN      X      Y      Z        X      Y      Z        X      Y      Z
     1   8    -0.01  -0.01   0.01    -0.03  -0.02   0.01     0.00   0.00  -0.00
     2   1    -0.05  -0.05  -0.06     0.16   0.72   0.18    -0.00  -0.01  -0.00
     3   6    -0.25   0.03  -0.07    -0.02   0.00  -0.00     0.00  -0.14  -0.04
     4   1    -0.27   0.45   0.05    -0.01   0.02  -0.00    -0.02   0.94   0.28
     5   6    -0.20  -0.37  -0.19    -0.01  -0.02  -0.01    -0.00   0.07   0.02
     6   6    -0.02   0.14   0.03     0.00   0.02   0.01     0.00  -0.00  -0.00
     7   8     0.35  -0.09   0.08     0.02   0.01   0.00    -0.01   0.00  -0.00
     8   8     0.04   0.22   0.08    -0.01  -0.01   0.01    -0.00  -0.00  -0.00
     9   6     0.01   0.02   0.02     0.00  -0.01  -0.03     0.01  -0.00   0.00
    10   6    -0.01   0.00   0.01     0.03  -0.07  -0.04     0.00   0.00  -0.00
    11   1    -0.16  -0.03  -0.26    -0.04   0.03   0.31     0.00  -0.00   0.01
    12   1     0.14  -0.24   0.13     0.06   0.28  -0.19     0.00   0.00   0.00
    13   1    -0.01  -0.01  -0.03     0.07   0.07   0.03     0.01   0.01  -0.01
    14   1    -0.08  -0.08   0.05     0.17   0.15  -0.14    -0.00   0.00   0.00
    15   1    -0.01  -0.01  -0.08    -0.16  -0.01   0.30    -0.00   0.00   0.00
                     16                     17                     18
                      A                      A                      A
 Frequencies --    779.4901               789.8211               830.9687
 Red. masses --      1.4426                 5.7478                 1.2269
 Frc consts  --      0.5164                 2.1126                 0.4991
 IR Inten    --     18.4404                50.4933                72.9550
  Atom  AN      X      Y      Z        X      Y      Z        X      Y      Z
     1   8    -0.00  -0.00   0.00    -0.00   0.00  -0.00    -0.02  -0.04   0.00
     2   1     0.00   0.02   0.00     0.00  -0.11   0.02     0.11   0.64   0.10
     3   6     0.05   0.04  -0.14     0.02   0.02  -0.06     0.03  -0.00   0.01
     4   1    -0.29  -0.28   0.89    -0.22  -0.20   0.67     0.03  -0.01   0.01
     5   6    -0.03  -0.03   0.08     0.05   0.05  -0.16     0.02   0.02   0.01
     6   6     0.02   0.02  -0.07    -0.17  -0.18   0.52    -0.02  -0.03   0.00
     7   8    -0.01  -0.01   0.02     0.06   0.05  -0.14    -0.02  -0.04  -0.03
     8   8    -0.01  -0.01   0.02     0.04   0.05  -0.13     0.02   0.03   0.01
     9   6    -0.00   0.00  -0.00     0.01  -0.01   0.00    -0.00   0.09  -0.01
    10   6     0.00  -0.00  -0.00    -0.00  -0.00   0.02     0.00   0.01   0.02
    11   1     0.00   0.00  -0.01    -0.02  -0.01   0.08     0.01   0.03  -0.42
    12   1     0.01  -0.00   0.00    -0.06   0.05  -0.02    -0.02  -0.28   0.18
    13   1    -0.00  -0.00   0.01     0.03   0.04  -0.08    -0.10  -0.25   0.03
    14   1     0.01  -0.00  -0.00    -0.07   0.04   0.03    -0.15  -0.25   0.14
    15   1     0.01   0.00  -0.00    -0.09  -0.00   0.03     0.18  -0.01  -0.24
                     19                     20                     21
                      A                      A                      A
 Frequencies --    889.2088               935.7048              1082.5089
 Red. masses --      2.7345                 3.0403                 3.8821
 Frc consts  --      1.2739                 1.5684                 2.6803
 IR Inten    --     29.6502                13.9007                28.9205
  Atom  AN      X      Y      Z        X      Y      Z        X      Y      Z
     1   8     0.01   0.02  -0.00     0.01   0.01  -0.00     0.00   0.00  -0.00
     2   1    -0.01  -0.23   0.00    -0.02  -0.10  -0.02     0.01  -0.07   0.03
     3   6     0.02  -0.01   0.01     0.13  -0.01   0.04     0.07  -0.00   0.02
     4   1     0.03  -0.03  -0.00     0.14  -0.01   0.04     0.08   0.01   0.03
     5   6     0.01   0.06   0.02     0.08  -0.01   0.02     0.04  -0.03  -0.00
     6   6    -0.03  -0.08  -0.03    -0.15  -0.01  -0.06    -0.13   0.07  -0.02
     7   8    -0.03  -0.12  -0.05    -0.03  -0.15  -0.06     0.01  -0.02  -0.00
     8   8     0.17   0.14   0.09    -0.10   0.17   0.05    -0.21   0.04  -0.08
     9   6    -0.06   0.03  -0.09    -0.02  -0.01   0.09     0.36   0.01  -0.01
    10   6    -0.17  -0.05   0.01     0.16  -0.03  -0.05    -0.15  -0.03   0.09
    11   1    -0.16   0.03  -0.02    -0.42  -0.04   0.05     0.32  -0.00  -0.11
    12   1     0.32   0.08  -0.16     0.02  -0.08   0.11     0.57   0.07  -0.09
    13   1    -0.27  -0.04   0.53     0.37   0.33  -0.47    -0.22  -0.12   0.34
    14   1     0.35   0.12  -0.19    -0.11   0.19  -0.04     0.00  -0.13   0.09
    15   1    -0.02  -0.05   0.35    -0.30   0.02   0.06     0.00  -0.07   0.29
                     22                     23                     24
                      A                      A                      A
 Frequencies --   1109.9859              1167.2898              1297.5240
 Red. masses --      2.1550                 1.8447                 2.7973
 Frc consts  --      1.5644                 1.4809                 2.7747
 IR Inten    --     19.4387                 8.6257               447.0775
  Atom  AN      X      Y      Z        X      Y      Z        X      Y      Z
     1   8    -0.00  -0.01   0.00     0.00   0.01   0.00     0.00  -0.01  -0.00
     2   1     0.04   0.14   0.04    -0.01  -0.10  -0.01     0.00  -0.01   0.01
     3   6     0.01  -0.00   0.00    -0.02   0.00  -0.00    -0.07   0.00  -0.02
     4   1     0.01   0.00   0.00    -0.02   0.00  -0.00    -0.08  -0.01  -0.03
     5   6     0.00  -0.00   0.00    -0.01  -0.00  -0.00    -0.02   0.01  -0.00
     6   6    -0.01   0.00   0.00     0.04  -0.01   0.01     0.27  -0.21   0.02
     7   8     0.00  -0.00  -0.01     0.01   0.04   0.01    -0.03   0.02  -0.00
     8   8    -0.02   0.02  -0.05    -0.01  -0.08  -0.04    -0.12   0.08  -0.00
     9   6    -0.01  -0.10   0.22    -0.00   0.17   0.08     0.08   0.03  -0.00
    10   6    -0.03   0.09  -0.18    -0.01  -0.14  -0.07     0.00   0.05   0.02
    11   1    -0.06  -0.12   0.14    -0.08   0.10  -0.47    -0.86  -0.02   0.05
    12   1     0.04  -0.11   0.22     0.07  -0.34   0.34     0.24   0.07  -0.06
    13   1    -0.16  -0.03   0.31     0.11   0.29   0.09    -0.04  -0.08  -0.00
    14   1     0.51  -0.04  -0.30     0.12   0.19  -0.20    -0.04  -0.06   0.07
    15   1     0.53   0.08  -0.09    -0.21  -0.08   0.44    -0.02   0.01  -0.04
                     25                     26                     27
                      A                      A                      A
 Frequencies --   1342.6486              1366.1251              1400.6859
 Red. masses --      1.2917                 1.0775                 1.3369
 Frc consts  --      1.3720                 1.1848                 1.5453
 IR Inten    --    151.0518                 8.9993                60.6407
  Atom  AN      X      Y      Z        X      Y      Z        X      Y      Z
     1   8    -0.00  -0.00   0.00    -0.00   0.00   0.00     0.00  -0.01  -0.00
     2   1    -0.00   0.03  -0.01     0.02   0.01   0.03    -0.02  -0.07  -0.01
     3   6     0.01  -0.00   0.00     0.01  -0.00   0.00     0.01  -0.00   0.00
     4   1     0.01   0.00   0.01     0.01   0.00   0.00     0.01   0.00   0.01
     5   6     0.00  -0.00  -0.00     0.00  -0.00  -0.00     0.00  -0.00  -0.00
     6   6    -0.06   0.05   0.00    -0.03   0.02   0.00    -0.06   0.04  -0.01
     7   8     0.01   0.01   0.01     0.00   0.00   0.00     0.01   0.01   0.01
     8   8     0.03  -0.08  -0.03     0.02  -0.03   0.00     0.03  -0.05   0.00
     9   6    -0.06   0.02   0.02    -0.01   0.00  -0.04     0.02   0.01  -0.01
    10   6     0.01   0.02   0.05    -0.04  -0.00  -0.01     0.07   0.08  -0.09
    11   1    -0.38  -0.00   0.04    -0.29  -0.01   0.05    -0.38  -0.01   0.15
    12   1     0.80  -0.05  -0.07     0.10   0.02  -0.06    -0.12  -0.09   0.07
    13   1    -0.01  -0.11  -0.06     0.18   0.49  -0.09    -0.19  -0.38   0.32
    14   1     0.03   0.21  -0.03    -0.17  -0.42   0.18    -0.26  -0.31   0.14
    15   1    -0.05   0.03  -0.34     0.54   0.02   0.28    -0.38   0.07   0.39
                     28                     29                     30
                      A                      A                      A
 Frequencies --   1437.3982              1455.0098              1505.3709
 Red. masses --      1.4026                 1.0620                 1.1057
 Frc consts  --      1.7074                 1.3247                 1.4763
 IR Inten    --     29.2090                 1.6403                21.5276
  Atom  AN      X      Y      Z        X      Y      Z        X      Y      Z
     1   8     0.00   0.00  -0.00    -0.00   0.01   0.00     0.00   0.00   0.00
     2   1    -0.00  -0.04   0.00     0.00   0.03  -0.00    -0.00   0.00  -0.01
     3   6    -0.01   0.00  -0.00    -0.00   0.00  -0.00    -0.01   0.00  -0.00
     4   1    -0.02  -0.00  -0.01    -0.00  -0.00  -0.00    -0.01  -0.00  -0.00
     5   6    -0.00   0.00   0.00    -0.00  -0.00   0.00    -0.00   0.00   0.00
     6   6     0.06  -0.03   0.01     0.00   0.00   0.00     0.03  -0.01   0.01
     7   8    -0.01  -0.01  -0.01    -0.00  -0.00  -0.00    -0.01  -0.01  -0.01
     8   8    -0.03   0.04  -0.01    -0.00   0.01   0.00    -0.02   0.02  -0.01
     9   6    -0.12  -0.03   0.06     0.01  -0.02  -0.01    -0.02   0.04  -0.07
    10   6     0.07   0.02  -0.04     0.03  -0.05  -0.03    -0.00   0.00   0.00
    11   1     0.55  -0.01  -0.20    -0.02  -0.02   0.08     0.24   0.13   0.65
    12   1     0.55   0.17  -0.15    -0.05  -0.02   0.01     0.18  -0.62   0.26
    13   1     0.03  -0.01   0.11    -0.00   0.25   0.60     0.01   0.01  -0.04
    14   1    -0.28  -0.25   0.15    -0.56   0.38   0.02     0.01  -0.05   0.01
    15   1    -0.08   0.05   0.29     0.14   0.00  -0.26     0.01   0.00   0.03
                     31                     32                     33
                      A                      A                      A
 Frequencies --   1816.6568              2271.4124              2294.6736
 Red. masses --     11.5175                 5.7382                 1.1104
 Frc consts  --     22.3952                17.4429                 3.4448
 IR Inten    --    303.6408                86.2117               740.3446
  Atom  AN      X      Y      Z        X      Y      Z        X      Y      Z
     1   8    -0.00   0.01   0.00     0.00  -0.00  -0.00     0.00   0.02   0.00
     2   1     0.00  -0.06  -0.05    -0.00   0.01   0.00     0.01  -0.02  -0.02
     3   6    -0.07   0.00  -0.02    -0.36   0.02  -0.11    -0.00   0.00  -0.00
     4   1    -0.10   0.03  -0.02    -0.72   0.05  -0.22    -0.00  -0.00  -0.00
     5   6     0.03  -0.02   0.01     0.51  -0.03   0.16     0.00   0.00   0.00
     6   6     0.37   0.59   0.33    -0.09  -0.00  -0.03    -0.00  -0.01  -0.00
     7   8    -0.24  -0.38  -0.22     0.00   0.00   0.00     0.00   0.00   0.00
     8   8    -0.01  -0.07  -0.02    -0.00   0.00   0.00    -0.00   0.00   0.00
     9   6     0.04   0.01   0.02     0.00  -0.00  -0.00     0.01  -0.00  -0.00
    10   6    -0.01  -0.01  -0.00    -0.00   0.00   0.00    -0.01  -0.09   0.00
    11   1    -0.20  -0.03  -0.13     0.00  -0.00   0.00    -0.01  -0.03   0.00
    12   1    -0.12   0.14  -0.00    -0.00  -0.00   0.00    -0.01  -0.00  -0.00
    13   1    -0.04  -0.09   0.02     0.00   0.00   0.00     0.00  -0.10  -0.01
    14   1     0.04  -0.03  -0.01     0.00   0.00  -0.00     0.01  -0.09  -0.02
    15   1    -0.06   0.12   0.01     0.00  -0.01  -0.00     0.02   0.98  -0.05
                     34                     35                     36
                      A                      A                      A
 Frequencies --   3102.6258              3104.6208              3158.9871
 Red. masses --      1.0577                 1.0605                 1.1073
 Frc consts  --      5.9991                 6.0223                 6.5102
 IR Inten    --      8.2630                17.2576                 7.3825
  Atom  AN      X      Y      Z        X      Y      Z        X      Y      Z
     1   8    -0.00   0.00   0.00     0.00  -0.00  -0.00     0.00   0.00  -0.00
     2   1     0.00   0.00  -0.00    -0.00   0.00   0.00    -0.00   0.00   0.00
     3   6    -0.00  -0.00  -0.00     0.00  -0.00   0.00    -0.00   0.00  -0.00
     4   1     0.00  -0.00   0.00    -0.00  -0.00   0.00     0.00  -0.00   0.00
     5   6     0.00   0.00  -0.00    -0.00   0.00  -0.00     0.00   0.00   0.00
     6   6     0.00  -0.00  -0.00     0.00  -0.00  -0.00    -0.00  -0.00  -0.00
     7   8     0.00   0.00   0.00     0.00   0.00   0.00     0.00   0.00   0.00
     8   8    -0.00   0.00   0.00    -0.00   0.00  -0.00     0.00   0.00  -0.00
     9   6    -0.00   0.01  -0.01    -0.01   0.02  -0.06    -0.00  -0.08  -0.03
    10   6     0.04  -0.04  -0.04    -0.00   0.01   0.02     0.02  -0.01   0.01
    11   1     0.02  -0.21   0.02     0.04  -0.56   0.06    -0.05   0.77  -0.09
    12   1     0.01   0.05   0.09     0.11   0.37   0.69     0.07   0.24   0.48
    13   1    -0.63   0.23  -0.14     0.08  -0.02   0.01    -0.26   0.10  -0.05
    14   1     0.20   0.19   0.63    -0.06  -0.06  -0.19    -0.03  -0.04  -0.12
    15   1     0.01   0.01  -0.01    -0.00  -0.02   0.00     0.01   0.02   0.00
                     37                     38                     39
                      A                      A                      A
 Frequencies --   3169.2093              3490.2739              3717.9122
 Red. masses --      1.1050                 1.1715                 1.0666
 Frc consts  --      6.5393                 8.4081                 8.6865
 IR Inten    --      7.2627                63.2978               148.4284
  Atom  AN      X      Y      Z        X      Y      Z        X      Y      Z
     1   8     0.00   0.00   0.00    -0.00   0.00   0.00    -0.05   0.01   0.03
     2   1    -0.00  -0.00  -0.00     0.00  -0.00  -0.00     0.84  -0.09  -0.54
     3   6     0.00  -0.00   0.00    -0.11   0.01  -0.03     0.00  -0.00   0.00
     4   1     0.00  -0.00  -0.00     0.95  -0.07   0.29    -0.00  -0.00  -0.00
     5   6    -0.00   0.00  -0.00     0.03  -0.00   0.01     0.00   0.00   0.00
     6   6    -0.00  -0.00  -0.00    -0.00   0.00  -0.00    -0.00  -0.00  -0.00
     7   8     0.00   0.00   0.00     0.00  -0.00  -0.00     0.00   0.00   0.00
     8   8     0.00   0.00   0.00     0.00   0.00   0.00    -0.00   0.00   0.00
     9   6    -0.00  -0.02  -0.02    -0.00   0.00  -0.00     0.00  -0.00  -0.00
    10   6    -0.06   0.00  -0.06     0.00  -0.00   0.00     0.00   0.00  -0.00
    11   1    -0.01   0.18  -0.02     0.00  -0.00   0.00    -0.00   0.00   0.00
    12   1     0.03   0.11   0.21     0.00   0.00   0.00    -0.00   0.00   0.00
    13   1     0.61  -0.23   0.12     0.00  -0.00  -0.00    -0.00  -0.00   0.00
    14   1     0.18   0.20   0.62    -0.00   0.00  -0.00    -0.00  -0.00  -0.00
    15   1    -0.01   0.01  -0.01    -0.00   0.00   0.00    -0.00  -0.02   0.00

 -------------------
 - Thermochemistry -
 -------------------
 Temperature   298.150 Kelvin.  Pressure   1.00000 Atm.
 Atom     1 has atomic number  8 and mass  15.99491
 Atom     2 has atomic number  1 and mass   1.00783
 Atom     3 has atomic number  6 and mass  12.00000
 Atom     4 has atomic number  1 and mass   1.00783
 Atom     5 has atomic number  6 and mass  12.00000
 Atom     6 has atomic number  6 and mass  12.00000
 Atom     7 has atomic number  8 and mass  15.99491
 Atom     8 has atomic number  8 and mass  15.99491
 Atom     9 has atomic number  6 and mass  12.00000
 Atom    10 has atomic number  6 and mass  12.00000
 Atom    11 has atomic number  1 and mass   1.00783
 Atom    12 has atomic number  1 and mass   1.00783
 Atom    13 has atomic number  1 and mass   1.00783
 Atom    14 has atomic number  1 and mass   1.00783
 Atom    15 has atomic number  1 and mass   1.00783
 Molecular mass:   115.03952 amu.
 Principal axes and moments of inertia in atomic units:
                           1         2         3
     Eigenvalues --   548.180541519.875771860.10773
           X            0.99964  -0.02673   0.00292
           Y            0.02674   0.99963  -0.00390
           Z           -0.00281   0.00397   0.99999
 This molecule is an asymmetric top.
 Rotational symmetry number  1.
 Warning -- assumption of classical behavior for rotation
           may cause significant error
 Rotational temperatures (Kelvin)      0.15800     0.05699     0.04656
 Rotational constants (GHZ):           3.29224     1.18743     0.97023
    3 imaginary frequencies ignored.
 Zero-point vibrational energy     287467.7 (Joules/Mol)
                                   68.70642 (Kcal/Mol)
 Warning -- explicit consideration of  10 degrees of freedom as
           vibrations may cause significant error
 Vibrational temperatures:     94.15   127.24   203.28   275.01   392.87
          (Kelvin)            481.72   597.91   618.09   810.04   878.21
                              986.81  1073.52  1121.51  1136.38  1195.58
                             1279.37  1346.27  1557.49  1597.02  1679.47
                             1866.85  1931.77  1965.55  2015.27  2068.10
                             2093.43  2165.89  2613.76  3268.06  3301.52
                             4463.99  4466.86  4545.08  4559.79  5021.73
                             5349.25
 
 Zero-point correction=                           0.109491 (Hartree/Particle)
 Thermal correction to Energy=                    0.117540
 Thermal correction to Enthalpy=                  0.118484
 Thermal correction to Gibbs Free Energy=         0.075421
 Sum of electronic and zero-point Energies=           -420.093168
 Sum of electronic and thermal Energies=              -420.085118
 Sum of electronic and thermal Enthalpies=            -420.084174
 Sum of electronic and thermal Free Energies=         -420.127237
 
                     E (Thermal)             CV                S
                      KCal/Mol        Cal/Mol-Kelvin    Cal/Mol-Kelvin
 Total                   73.758             28.051             90.634
 Electronic               0.000              0.000              1.377
 Translational            0.889              2.981             40.136
 Rotational               0.889              2.981             28.829
 Vibrational             71.980             22.089             20.292
 Vibration     1          0.597              1.971              4.286
 Vibration     2          0.601              1.957              3.694
 Vibration     3          0.615              1.912              2.786
 Vibration     4          0.634              1.852              2.217
 Vibration     5          0.676              1.723              1.577
 Vibration     6          0.716              1.606              1.237
 Vibration     7          0.779              1.436              0.907
 Vibration     8          0.791              1.406              0.860
 Vibration     9          0.919              1.111              0.518
 Vibration    10          0.969              1.010              0.432
                       Q            Log10(Q)             Ln(Q)
 Total Bot       0.203578D-34        -34.691269        -79.879600
 Total V=0       0.468694D+16         15.670889         36.083556
 Vib (Bot)       0.470973D-48        -48.327004       -111.277040
 Vib (Bot)    1  0.315380D+01          0.498834          1.148608
 Vib (Bot)    2  0.232551D+01          0.366518          0.843938
 Vib (Bot)    3  0.143863D+01          0.157950          0.363694
 Vib (Bot)    4  0.104663D+01          0.019794          0.045577
 Vib (Bot)    5  0.706659D+00         -0.150790         -0.347207
 Vib (Bot)    6  0.556399D+00         -0.254614         -0.586270
 Vib (Bot)    7  0.423959D+00         -0.372676         -0.858118
 Vib (Bot)    8  0.405721D+00         -0.391773         -0.902090
 Vib (Bot)    9  0.275246D+00         -0.560278         -1.290088
 Vib (Bot)   10  0.242015D+00         -0.616158         -1.418756
 Vib (V=0)       0.108431D+03          2.035154          4.686116
 Vib (V=0)    1  0.369319D+01          0.567402          1.306490
 Vib (V=0)    2  0.287865D+01          0.459189          1.057322
 Vib (V=0)    3  0.202305D+01          0.306006          0.704604
 Vib (V=0)    4  0.165993D+01          0.220090          0.506776
 Vib (V=0)    5  0.136566D+01          0.135342          0.311638
 Vib (V=0)    6  0.124805D+01          0.096232          0.221583
 Vib (V=0)    7  0.115555D+01          0.062787          0.144573
 Vib (V=0)    8  0.114390D+01          0.058389          0.134445
 Vib (V=0)    9  0.107075D+01          0.029690          0.068363
 Vib (V=0)   10  0.105549D+01          0.023455          0.054007
 Electronic      0.200000D+01          0.301030          0.693147
 Translational   0.484981D+08          7.685724         17.697035
 Rotational      0.445636D+06          5.648981         13.007258
 ***** Axes restored to original set *****
 -------------------------------------------------------------------
 Center     Atomic                   Forces (Hartrees/Bohr)
 Number     Number              X              Y              Z
 -------------------------------------------------------------------
      1        8           0.000933353    0.015527277    0.003392300
      2        1          -0.000095755   -0.000002683    0.000132195
      3        6           0.000050470    0.000028808    0.000027875
      4        1           0.000005159   -0.000008913   -0.000002162
      5        6           0.000049126    0.000150363    0.000125151
      6        6           0.000277529   -0.000224342   -0.000109340
      7        8           0.000590957    0.000382318   -0.000599852
      8        8          -0.000557991    0.000242002    0.000180382
      9        6          -0.000255166   -0.001987273    0.000755862
     10        6          -0.000143677   -0.009094725   -0.002804841
     11        1          -0.000306023   -0.000133120    0.000344904
     12        1           0.000027181    0.000085309   -0.000079207
     13        1          -0.000162302   -0.000979404    0.000127125
     14        1           0.000041831   -0.002355053    0.000248253
     15        1          -0.000454691   -0.001630564   -0.001738644
 -------------------------------------------------------------------
 Cartesian Forces:  Max     0.015527277 RMS     0.002839701

 GradGradGradGradGradGradGradGradGradGradGradGradGradGradGradGradGradGrad
 Berny optimization.
 Search for a local minimum.
 Step number   1 out of a maximum of    2
 All quantities printed in internal units (Hartrees-Bohrs-Radians)
 Second derivative matrix not updated -- analytic derivatives used.
 ITU=  0
     Eigenvalues ---   -0.01760  -0.00316   0.00001   0.00050   0.00120
     Eigenvalues ---    0.00406   0.00907   0.00935   0.01477   0.02232
     Eigenvalues ---    0.02788   0.03325   0.03848   0.05219   0.06350
     Eigenvalues ---    0.07307   0.07782   0.09145   0.09521   0.09677
     Eigenvalues ---    0.10452   0.13270   0.16530   0.17205   0.19511
     Eigenvalues ---    0.27628   0.30020   0.43307   0.46838   0.60908
     Eigenvalues ---    0.68142   0.71898   0.79853   0.85786   0.90989
     Eigenvalues ---    0.91730   0.92961   1.68122   2.74229
 Eigenvalue     1 is  -1.76D-02 should be greater than     0.000000 Eigenvector:
                          Y1        Y15       Y14       Z15       Y13
   1                    0.60143  -0.42355  -0.40627  -0.26653  -0.20437
                          Z1        Y2        Y10       Z7        X15
   1                    0.19576   0.15887  -0.14560  -0.13864  -0.12391
 Eigenvalue     2 is  -3.16D-03 should be greater than     0.000000 Eigenvector:
                          Z15       Z1        X1        Y13       X15
   1                    0.36790  -0.34322  -0.33998  -0.29882   0.29642
                          Y1        Y12       X2        Z7        Y14
   1                    0.26551  -0.22185  -0.21066   0.17949   0.16062
 Quadratic step=1.145D+02 exceeds max=3.000D-01 adjusted using Lamda=-3.328D-02.
 Angle between NR and scaled steps=  84.08 degrees.
 Angle between quadratic step and forces=  32.98 degrees.
 Linear search not attempted -- first point.
 B after Tr=     0.001538    0.011903    0.001935
         Rot=    0.999998   -0.001412    0.000259   -0.001363 Ang=  -0.23 deg.
 Variable       Old X    -DE/DX   Delta X   Delta X   Delta X     New X
                                 (Linear)    (Quad)   (Total)
    X1        4.43190   0.00093   0.00000   0.02660   0.01907   4.45097
    Y1        3.20795   0.01553   0.00000   0.22262   0.24831   3.45627
    Z1       -0.61544   0.00339   0.00000   0.02651   0.04046  -0.57499
    X2        2.88323  -0.00010   0.00000  -0.00797  -0.01580   2.86742
    Y2        3.35017  -0.00000   0.00000   0.01229   0.03092   3.38110
    Z2        0.37723   0.00013   0.00000   0.00443   0.01736   0.39459
    X3       -6.26910   0.00005   0.00000   0.00011   0.00118  -6.26792
    Y3        0.35774   0.00003   0.00000   0.00524   0.00281   0.36055
    Z3       -0.97552   0.00003   0.00000   0.00241   0.00211  -0.97341
    X4       -8.18893   0.00001   0.00000   0.00062   0.00163  -8.18730
    Y4        0.49418  -0.00001   0.00000   0.00485  -0.00115   0.49304
    Z4       -1.56408  -0.00000   0.00000  -0.00087  -0.00179  -1.56587
    X5       -4.11070   0.00005   0.00000  -0.00049   0.00066  -4.11005
    Y5        0.20319   0.00015   0.00000   0.00193   0.00350   0.20668
    Z5       -0.31180   0.00013   0.00000   0.00491   0.00529  -0.30652
    X6       -1.49310   0.00028   0.00000   0.00375   0.00475  -1.48834
    Y6        0.11292  -0.00022   0.00000  -0.01140  -0.00501   0.10791
    Z6        0.51564  -0.00011   0.00000  -0.00379  -0.00234   0.51330
    X7       -0.43151   0.00059   0.00000   0.02201   0.01772  -0.41379
    Y7        1.86562   0.00038   0.00000  -0.00659  -0.00001   1.86562
    Z7        1.50771  -0.00060   0.00000  -0.02562  -0.01866   1.48905
    X8       -0.46547  -0.00056   0.00000  -0.01612  -0.00876  -0.47424
    Y8       -2.12589   0.00024   0.00000  -0.01956  -0.00914  -2.13503
    Z8        0.05177   0.00018   0.00000   0.01233   0.00795   0.05972
    X9        2.12042  -0.00026   0.00000  -0.01039  -0.00237   2.11805
    Y9       -2.50079  -0.00199   0.00000  -0.03790  -0.02261  -2.52341
    Z9        0.83932   0.00076   0.00000   0.00465   0.00052   0.83984
   X10        3.96798  -0.00014   0.00000  -0.00429   0.00230   3.97028
   Y10       -1.58267  -0.00909   0.00000  -0.05794  -0.03200  -1.61466
   Z10       -1.12833  -0.00280   0.00000  -0.01444  -0.01506  -1.14340
   X11        2.26059  -0.00031   0.00000  -0.02500  -0.01157   2.24903
   Y11       -4.54001  -0.00013   0.00000  -0.03172  -0.01680  -4.55681
   Z11        1.08073   0.00034   0.00000   0.01989   0.01007   1.09080
   X12        2.40627   0.00003   0.00000  -0.00368   0.00084   2.40711
   Y12       -1.57808   0.00009   0.00000  -0.01582  -0.00485  -1.58293
   Z12        2.66059  -0.00008   0.00000  -0.00618  -0.00751   2.65308
   X13        5.86364  -0.00016   0.00000  -0.01172  -0.00341   5.86024
   Y13       -2.28337  -0.00098   0.00000  -0.07153  -0.04160  -2.32497
   Z13       -0.72467   0.00013   0.00000  -0.00402  -0.00568  -0.73035
   X14        3.39988   0.00004   0.00000  -0.00732   0.00182   3.40170
   Y14       -2.14309  -0.00236   0.00000  -0.07892  -0.04918  -2.19228
   Z14       -3.02855   0.00025   0.00000  -0.00357  -0.00613  -3.03468
   X15        4.14783  -0.00045   0.00000  -0.00916  -0.00807   4.13977
   Y15        0.51102  -0.00163   0.00000  -0.12973  -0.10320   0.40782
   Z15       -1.15489  -0.00174   0.00000  -0.03176  -0.02659  -1.18148
         Item               Value     Threshold  Converged?
 Maximum Force            0.015527     0.000450     NO 
 RMS     Force            0.002840     0.000300     NO 
 Maximum Displacement     0.248314     0.001800     NO 
 RMS     Displacement     0.043255     0.001200     NO 
 Predicted change in Energy=-5.322163D-03
 GradGradGradGradGradGradGradGradGradGradGradGradGradGradGradGradGradGrad


 ----------------------------------------------------------------------

 Electric dipole moment (input orientation):
 (Debye = 10**-18 statcoulomb cm , SI units = C m)
                  (au)            (Debye)         (10**-30 SI)
   Tot        0.125618D+01      0.319290D+01      0.106504D+02
   x         -0.738226D+00     -0.187638D+01     -0.625894D+01
   y         -0.101636D+01     -0.258333D+01     -0.861706D+01
   z         -0.546206D-02     -0.138832D-01     -0.463093D-01

 Dipole polarizability, Alpha (input orientation).
 (esu units = cm**3 , SI units = C**2 m**2 J**-1)
 Alpha(0;0):
               (au)            (10**-24 esu)      (10**-40 SI)
   iso        0.726787D+02      0.107699D+02      0.119831D+02
   aniso      0.382948D+02      0.567471D+01      0.631396D+01
   xx         0.930516D+02      0.137888D+02      0.153421D+02
   yx        -0.203898D+01     -0.302146D+00     -0.336183D+00
   yy         0.728843D+02      0.108003D+02      0.120170D+02
   zx         0.770618D+01      0.114194D+01      0.127058D+01
   zy         0.244989D+01      0.363036D+00      0.403933D+00
   zz         0.521002D+02      0.772045D+01      0.859015D+01

 ----------------------------------------------------------------------

 Dipole orientation:
     8          1.00095279         -1.51563037         -5.19734616
     1          0.50491974          0.07581641         -4.40661609
     6         -4.83867060          2.32709930          3.39898649
     1         -6.50361188          2.81445834          4.41938562
     6         -2.96510087          1.78040892          2.25271352
     6         -0.72608302          1.16891245          0.78385179
     8         -0.28672967          2.06494893         -1.26242037
     8          0.74164218         -0.46398512          1.99335164
     6          3.07242143         -1.19011002          0.77359181
     6          2.68433018         -3.34994671         -1.04646206
     1          4.27968463         -1.76020479          2.34006577
     1          3.88879048          0.46299091         -0.14887270
     1          4.49428751         -4.16863757         -1.59532197
     1          1.46421140         -4.80804433         -0.25090548
     1          1.78633626         -2.74019067         -2.84601123

 Electric dipole moment (dipole orientation):
 (Debye = 10**-18 statcoulomb cm , SI units = C m)
                  (au)            (Debye)         (10**-30 SI)
   Tot        0.125618D+01      0.319290D+01      0.106504D+02
   x          0.000000D+00      0.000000D+00      0.000000D+00
   y          0.000000D+00      0.000000D+00      0.000000D+00
   z          0.125618D+01      0.319290D+01      0.106504D+02

 Dipole polarizability, Alpha (dipole orientation).
 (esu units = cm**3 , SI units = C**2 m**2 J**-1)
 Alpha(0;0):
               (au)            (10**-24 esu)      (10**-40 SI)
   iso        0.726787D+02      0.107699D+02      0.119831D+02
   aniso      0.382948D+02      0.567471D+01      0.631396D+01
   xx         0.801218D+02      0.118728D+02      0.132103D+02
   yx        -0.156378D+02     -0.231728D+01     -0.257833D+01
   yy         0.599478D+02      0.888334D+01      0.988405D+01
   zx        -0.110255D+02     -0.163381D+01     -0.181786D+01
   zy         0.100080D+00      0.148303D-01      0.165009D-01
   zz         0.779665D+02      0.115535D+02      0.128549D+02

 ----------------------------------------------------------------------
 1\1\GINC-AJ\Freq\UM062X\6-311++G(d,p)\C5H7O3(2)\AAYUSH\16-Aug-2025\0\\
 # freq 6-311++g(d,p) m062x\\Title Card Required\\0,2\O,2.345259,1.6975
 76,-0.325678\H,1.525738,1.772835,0.199622\C,-3.317465,0.189309,-0.5162
 22\H,-4.333394,0.261511,-0.827677\C,-2.175291,0.107523,-0.165\C,-0.790
 113,0.059754,0.272866\O,-0.228344,0.987246,0.797844\O,-0.246318,-1.124
 974,0.027397\C,1.122076,-1.323362,0.444148\C,2.099766,-0.837511,-0.597
 088\H,1.196254,-2.402469,0.571897\H,1.273345,-0.835083,1.407923\H,3.10
 2906,-1.208305,-0.38348\H,1.799139,-1.134077,-1.60264\H,2.194938,0.270
 42,-0.611142\\Version=ES64L-G16RevA.03\State=2-A\HF=-420.2026583\S2=0.
 756147\S2-1=0.\S2A=0.750024\RMSD=8.792e-09\RMSF=2.840e-03\ZeroPoint=0.
 1094907\Thermal=0.1175402\Dipole=-0.7382264,-1.0163599,-0.0054621\Dipo
 leDeriv=-0.4095925,0.032699,-0.0395152,0.0182213,0.0809783,0.0615521,-
 0.0006676,0.1049297,-0.3626308,0.4229353,0.014586,0.0248441,0.1163417,
 0.4391564,-0.0043448,-0.0112182,0.0413559,0.2854436,-0.2278366,0.00443
 26,-0.0143511,0.01202,-0.1498617,-0.0015397,-0.0208842,-0.0048417,-0.1
 392855,0.276537,-0.0060958,0.0182891,-0.0055247,0.2239732,0.0047088,0.
 0211677,0.0043497,0.2135308,-0.6825824,0.0407148,-0.1540196,0.0596583,
 -0.1185596,0.0020983,-0.1892998,0.0067131,-0.1413576,2.0817172,-0.1831
 397,0.3926027,-0.5757601,1.6886237,0.3778221,0.3201957,0.4217609,0.665
 3876,-1.0027352,-0.2464199,-0.2181842,-0.1239539,-0.9316077,-0.24666,-
 0.1487823,-0.2999402,-0.5428108,-1.3804188,0.461998,-0.0249401,0.70206
 7,-1.0224313,-0.1084264,-0.0520261,-0.0836268,-0.3646111,0.9462243,-0.
 1427372,0.0019279,-0.1663656,0.175054,-0.0355636,0.0907076,-0.1007273,
 0.287785,-0.0521539,0.0960598,0.0062128,0.0985575,0.5452001,0.0650443,
 0.0089037,-0.0248831,-0.0266763,-0.0199511,-0.0505862,0.0126945,0.0316
 114,-0.0752485,0.0470296,0.0032255,0.0486013,0.077746,-0.0250806,0.025
 2647,0.0327675,-0.014406,0.0580189,-0.0769865,-0.0198031,-0.0026485,-0
 .0398055,-0.0756033,0.0362067,-0.0108356,0.0401087,-0.0192224,0.021656
 9,-0.0183537,0.0125164,0.0645603,0.0565588,-0.0272556,-0.0508716,-0.05
 68537,-0.0529776,-0.0490125,0.0046363,0.0011831,-0.0528374,0.0919818,-
 0.0557271,0.0233788,-0.1357219,-0.8410959,-0.0573784,0.0121985,-0.1247
 425,0.0755619\Polar=93.0515845,-2.0389847,72.8843227,7.7061788,2.44989
 14,52.1001526\Quadrupole=4.3836569,-3.0100727,-1.3735842,-5.396759,3.1
 127737,-0.6316978\PG=C01 [X(C5H7O3)]\NImag=3\\0.35469183,-0.02540517,0
 .02107197,-0.22603744,0.01927342,0.14405848,-0.34825849,0.03610195,0.2
 2185407,0.35078306,0.02463033,-0.01875598,-0.01836177,-0.03213024,0.02
 326847,0.21871668,-0.02561113,-0.14709699,-0.22062528,0.02473371,0.149
 58207,-0.00019626,-0.00009887,0.00015216,0.00037056,0.00041956,-0.0001
 7486,1.43584045,-0.00003058,0.00001892,-0.00009557,0.00005195,-0.00009
 944,0.00012748,-0.09711786,0.06427486,-0.00004586,-0.00004332,0.000132
 81,0.00007935,0.00006878,-0.00019567,0.42232909,-0.03139061,0.19098896
 ,0.00009557,0.00001007,-0.00001006,-0.00014479,-0.00007614,-0.00000152
 ,-0.38838565,0.02526669,-0.10987591,0.37870877,0.00003209,0.00002334,0
 .00000996,-0.00005242,0.00002548,0.00001584,0.02531582,-0.02927078,0.0
 0865019,-0.02553250,0.01869465,0.00004558,0.00003499,-0.00004969,-0.00
 007666,-0.00004577,0.00006244,-0.10979375,0.00865201,-0.06368209,0.110
 61971,-0.00820182,0.05197902,-0.00050952,-0.00009746,0.00045349,0.0010
 0114,0.00060607,-0.00056332,-1.04689567,0.07229086,-0.31098461,0.00975
 227,0.00017191,0.00056359,1.36755176,-0.00026393,-0.00036125,0.0003136
 5,0.00044977,0.00016626,-0.00074087,0.07064600,-0.03963299,0.02204290,
 -0.00004864,0.00509471,-0.00104716,-0.09127337,0.11242937,-0.00063662,
 -0.00037892,0.00023854,0.00102555,0.00080580,-0.00022977,-0.31148596,0
 .02256391,-0.13032331,0.00055304,-0.00095097,0.00777578,0.40040658,-0.
 01275328,0.19076471,0.00104973,0.00017907,-0.00032478,-0.00335181,-0.0
 0340383,-0.00047744,0.00584554,-0.00144053,0.00048634,-0.00104202,0.00
 011850,-0.00222510,-0.25592916,0.01051060,-0.05551688,0.70333109,0.007
 37360,0.00489916,-0.00125465,-0.01283912,-0.00244735,0.00350216,-0.001
 43810,0.00325113,-0.00032690,0.00088353,0.00550251,0.00016298,0.020187
 07,-0.06182353,0.01143739,0.10500469,0.78290069,0.00327841,0.00208318,
 -0.00138377,-0.00574121,-0.00137212,0.00236540,0.00025947,-0.00039957,
 0.00255133,-0.00196562,-0.00001834,0.00519007,-0.05207572,0.00750126,-
 0.08842346,0.20120473,0.24012942,0.36607947,-0.00696068,-0.00516557,0.
 00255992,-0.00002138,0.00181651,0.00060683,-0.00285051,0.00110283,-0.0
 0067029,0.00054240,0.00129891,0.00099842,-0.03648799,-0.03733861,-0.03
 295566,-0.25879325,-0.23053864,-0.14138161,0.26868618,-0.00733306,-0.0
 0331039,0.00204776,0.00692482,0.00054920,-0.00208047,0.00210448,0.0008
 7602,0.00086450,-0.00007414,-0.00010192,0.00032988,-0.03092930,-0.0020
 7172,-0.01906883,-0.22614490,-0.45928990,-0.21156101,0.26604626,0.5589
 2936,0.00122492,0.00059111,0.00158042,0.00301615,0.00016335,-0.0041253
 5,-0.00005363,0.00049343,0.00053940,0.00045629,0.00071062,-0.00060284,
 -0.03007948,-0.02001503,0.00413111,-0.14142177,-0.21813978,-0.20631407
 ,0.16888042,0.27693312,0.19460976,0.00228459,0.00159586,0.00031469,-0.
 00415034,0.00063714,0.00106469,-0.00452520,-0.00011489,-0.00163087,0.0
 0072768,-0.00134030,-0.00010755,-0.04096532,0.04602704,-0.00101121,-0.
 15729716,0.08830256,0.00303013,0.03711330,0.00151123,-0.00039109,0.424
 43031,-0.00321670,-0.00255049,0.00038319,0.00647713,0.00019404,-0.0022
 0360,-0.00013972,0.00028142,-0.00014323,-0.00050729,-0.00004180,-0.000
 06266,0.02717509,-0.01104754,0.00119783,0.06970528,-0.25765147,-0.0487
 7718,-0.00260182,-0.09916329,-0.04507852,-0.13794561,0.44536920,-0.000
 60420,-0.00060967,0.00042920,0.00120273,-0.00014482,-0.00077072,-0.001
 68402,-0.00011269,-0.00012239,0.00018243,-0.00033400,-0.00043892,-0.00
 729877,0.00740305,0.01128577,-0.00550161,-0.03952261,-0.08323820,-0.00
 065524,-0.04599060,0.01449281,0.06985152,0.08777861,0.14064792,-0.0016
 8079,-0.00054869,-0.00032739,0.00391595,-0.00091548,-0.00097777,0.0015
 6686,0.00003899,0.00050681,-0.00038493,0.00010227,-0.00002311,0.004467
 88,-0.00123250,-0.00023653,-0.03028092,0.04439233,0.00349830,-0.006022
 93,-0.01958478,-0.00677167,-0.16857438,0.01049671,-0.03869341,0.427445
 37,0.00056632,0.00505989,0.00125819,-0.00166273,0.00063826,0.00113370,
 0.00019491,0.00024554,0.00028269,0.00010027,0.00009889,0.00018761,0.00
 206964,-0.00271835,-0.00296124,0.04316507,-0.01563004,0.01190182,0.002
 56804,0.00304251,0.00325523,-0.00748624,-0.08324545,-0.01022468,0.0034
 5853,0.63063374,-0.00061913,-0.00207558,-0.00089977,0.00038610,0.00018
 999,0.00102589,0.00068963,0.00015625,0.00006307,-0.00000103,0.00015483
 ,-0.00024624,-0.00019024,-0.00340041,0.00534978,0.00452312,0.01569916,
 0.00663983,-0.00249967,-0.00357688,-0.00739243,-0.04678049,-0.00453420
 ,-0.08669799,-0.00465360,0.03546364,0.57268911,-0.00109559,-0.01254794
 ,-0.00044744,0.00052456,0.00284454,-0.00147114,-0.00023386,-0.00004318
 ,-0.00004418,0.00003346,-0.00004846,0.00007627,-0.00035187,0.00117291,
 -0.00134045,-0.00023876,-0.00634287,-0.00058227,0.00050514,0.00130009,
 0.00218249,-0.04440729,-0.00505153,0.02155153,-0.12192066,-0.02978077,
 0.05609600,0.54642525,-0.01121951,-0.07785689,-0.01308741,0.00510507,0
 .00029120,-0.00296550,0.00027238,-0.00008468,0.00007759,-0.00005853,0.
 00009544,-0.00002061,0.00015646,-0.00085449,0.00015965,0.00077217,0.01
 198143,0.00290614,-0.00471658,-0.00533861,-0.00031914,0.01320654,-0.00
 106435,-0.00840810,-0.03702647,-0.09328979,0.03660178,-0.01222556,0.49
 055621,0.00127709,0.00396626,0.00252103,-0.00177251,-0.00087384,-0.000
 16254,-0.00031238,-0.00003911,0.00001919,0.00003737,-0.00001419,0.0000
 4334,0.00017058,0.00060325,-0.00097015,0.00000086,-0.00492844,-0.00063
 611,0.00068863,0.00195431,0.00111416,-0.01076135,-0.00151631,0.0117904
 4,0.06721800,0.03683083,-0.15939033,0.04065817,0.00942034,0.54395655,0
 .00031301,0.00100193,0.00018268,-0.00066582,0.00034021,0.00034861,-0.0
 0042768,-0.00007004,-0.00014108,0.00005611,-0.00004353,-0.00004276,-0.
 00105748,0.00112745,0.00070201,-0.00405760,-0.00356388,-0.00529481,0.0
 0196225,0.00140437,0.00107459,-0.02121235,0.04299619,-0.00589279,-0.04
 256590,0.00374480,-0.00091404,0.00083916,-0.02089230,0.00249997,0.0660
 4290,-0.00007696,-0.00091170,-0.00020177,0.00006671,0.00026201,-0.0000
 9725,0.00010234,-0.00000061,-0.00001213,-0.00002663,0.00000519,-0.0000
 0764,0.00021260,-0.00019157,0.00018000,-0.00111820,0.00115059,0.000656
 44,0.00079620,0.00007384,0.00044149,0.00507225,-0.00351747,-0.00033552
 ,0.01761350,-0.32226435,0.02757533,-0.00196646,-0.00955002,0.00139953,
 -0.01949205,0.34342675,0.00003486,-0.00022250,0.00010357,0.00020506,-0
 .00012071,-0.00042714,-0.00007577,-0.00001079,-0.00006401,0.00000709,-
 0.00000422,-0.00001856,-0.00039217,0.00022816,0.00041119,-0.00176324,-
 0.00292745,-0.00222059,0.00206193,-0.00014536,0.00123873,-0.00714890,0
 .01378671,-0.00083261,-0.00100401,0.02469171,-0.05555546,0.00101380,0.
 02461569,-0.00283915,0.00307115,-0.03314360,0.05509047,0.00002261,0.00
 065473,-0.00027542,-0.00007034,-0.00001249,0.00022247,-0.00008799,0.00
 004130,0.00000680,0.00005360,-0.00000840,-0.00003141,-0.00048634,-0.00
 002092,0.00054396,0.00151921,-0.00756522,-0.00373611,0.00115140,0.0029
 5763,0.00163805,-0.02317111,-0.00927349,-0.03480252,-0.05297612,-0.010
 75700,-0.02202262,0.00630638,0.01002035,0.02041907,0.00164115,0.000049
 13,0.00235068,0.06847066,-0.00001911,0.00045372,-0.00045944,0.00031173
 ,-0.00046222,0.00045296,-0.00007062,0.00001309,0.00003234,-0.00000502,
 0.00000362,0.00003286,-0.00008949,0.00005359,-0.00077448,0.00208222,0.
 00210003,0.00199315,0.00045145,-0.00238957,0.00031330,0.00129405,0.002
 67551,0.00771243,-0.01740232,-0.10957354,-0.11377865,0.00168912,0.0061
 6718,0.01261143,-0.00375455,-0.01186158,-0.02753193,0.01649558,0.11241
 113,0.00005115,0.00006081,0.00045246,-0.00012686,0.00054056,-0.0004138
 8,0.00003405,0.00000221,0.00008301,0.00000487,-0.00001667,-0.00000662,
 -0.00004408,0.00028656,-0.00019445,0.00004630,-0.00524064,-0.00083609,
 0.00274037,0.00063692,0.00135595,-0.00994343,-0.00009343,-0.00720204,-
 0.03046612,-0.10665341,-0.25905113,-0.00125886,-0.00943320,-0.01903532
 ,0.00168468,0.00175535,0.00592343,0.03447034,0.11750360,0.27983827,0.0
 0085886,0.00153944,0.00027608,-0.00040017,-0.00044376,0.00016594,-0.00
 010539,0.00000902,-0.00000651,0.00003301,-0.00001101,0.00001514,-0.000
 17741,0.00024406,-0.00029752,0.00066583,-0.00321099,-0.00062277,0.0006
 1126,0.00096926,0.00050090,-0.00419915,0.00041799,0.00407577,-0.015996
 10,0.00827244,-0.00763426,-0.27906302,0.08803884,-0.04873694,0.0005642
 5,-0.00037890,-0.00044141,0.00010210,0.00008136,0.00055916,0.30171976,
 0.00066208,0.00589897,0.00020186,-0.00075211,-0.00034822,0.00109820,-0
 .00003997,0.00001614,-0.00005624,0.00000306,-0.00002305,0.00001159,-0.
 00008051,0.00026954,0.00005021,-0.00063390,-0.00314170,-0.00066445,0.0
 0125370,0.00131219,0.00010394,-0.00502240,0.00192918,0.00230690,-0.009
 17386,0.00212231,-0.00361017,0.09268178,-0.07099092,0.02158449,0.00000
 688,0.00048490,-0.00065865,0.00016802,0.00011368,0.00004366,-0.0955968
 4,0.07770573,0.00039294,0.00097055,-0.00001738,0.00004209,-0.00019520,
 -0.00004665,0.00012855,0.00001419,0.00001542,-0.00000760,0.00001500,-0
 .00001678,0.00004581,-0.00036894,0.00034305,0.00020842,0.00195691,0.00
 016702,-0.00025948,-0.00053938,-0.00045042,0.00589335,0.00032208,-0.00
 276494,0.01830756,-0.00951693,0.00661766,-0.05033782,0.02042072,-0.059
 82217,-0.00043474,0.00009908,0.00119055,-0.00097538,-0.00058370,-0.000
 21031,0.05296139,-0.02315730,0.05865605,-0.00029993,-0.00121383,0.0001
 5138,0.00012025,0.00019081,0.00007309,0.00002344,-0.00001048,-0.000029
 03,-0.00002140,0.00000880,-0.00000089,0.00005007,-0.00005750,0.0000978
 3,-0.00034338,0.00151556,0.00054947,-0.00031305,-0.00045969,-0.0003994
 8,0.00345029,-0.00018595,-0.00095542,0.00436199,0.00732751,0.02305671,
 -0.06947922,-0.02257273,-0.07325581,0.00041853,0.00011851,-0.00080640,
 -0.00298902,-0.00174083,0.00321062,-0.00549592,-0.00971704,-0.02611920
 ,0.07124650,0.00119637,0.00510538,0.00162744,-0.00151457,0.00043666,0.
 00033480,-0.00002092,0.00000755,-0.00000406,0.00002097,-0.00000952,-0.
 00000755,-0.00005930,0.00009619,0.00014059,0.00020223,-0.00162252,-0.0
 0094145,0.00077228,0.00107687,0.00009648,0.00002688,0.00081832,-0.0005
 8103,0.00525209,0.00352333,0.01204887,-0.02383301,-0.06147975,-0.07458
 720,0.00042545,0.00032359,-0.00023020,-0.00195633,-0.00028974,0.001078
 60,0.00262345,0.00294133,0.01196450,0.02562257,0.06549142,-0.00011146,
 -0.00199446,0.00011140,0.00019836,0.00015677,-0.00022581,0.00004652,-0
 .00000555,0.00002110,-0.00000127,-0.00000070,0.00000130,0.00006724,-0.
 00001040,-0.00006635,0.00008501,-0.00038446,-0.00035049,0.00015440,0.0
 0008387,0.00027125,-0.00118122,-0.00033562,0.00279031,-0.00703408,-0.0
 0729835,-0.02180757,-0.07028247,-0.07082593,-0.27857561,0.00006722,0.0
 0019248,0.00040486,0.00295956,0.00241742,-0.00143517,-0.00031315,-0.00
 143938,-0.00306103,0.07555698,0.07695881,0.30222368,-0.00031495,0.0039
 9446,0.00147803,0.00034762,0.00549678,0.00309304,0.00006136,0.00002592
 ,0.00001993,-0.00002408,-0.00001168,-0.00001749,0.00003764,0.00005766,
 0.00015186,-0.00107732,-0.00216052,-0.00042038,0.00087785,0.00130772,0
 .00014332,0.00049614,0.00165371,-0.00077601,-0.00135532,-0.02178080,0.
 00056351,-0.03784369,-0.00886013,0.00186925,-0.00185052,-0.00097205,0.
 00288734,0.00051381,0.00067643,-0.00096218,0.00088208,0.02624110,0.000
 15410,-0.00072916,-0.00875819,-0.00021163,0.03997854,0.01310422,0.0612
 1534,0.00834513,-0.00653794,-0.00371836,0.00229998,-0.00012941,0.00010
 386,-0.00004249,0.00004431,-0.00009677,-0.00001870,-0.00034029,0.00059
 176,0.00035235,0.00100151,-0.01017904,-0.00343727,0.00425503,0.0058054
 1,0.00045040,-0.00576410,0.00701419,0.00106273,0.00452967,-0.01864295,
 0.00308603,-0.00784867,-0.18858196,-0.00641135,-0.00323093,0.00257043,
 0.00167313,-0.00079290,0.00058510,-0.00047092,-0.00255437,-0.01829010,
 -0.00140157,0.00117427,-0.01641911,0.00248550,0.00308959,0.17804221,0.
 00303307,0.00395527,-0.00018029,0.00033306,-0.00554472,0.00065870,-0.0
 0005910,0.00004442,-0.00002682,0.00000222,-0.00001554,0.00000981,-0.00
 007891,-0.00004274,-0.00009243,0.00067605,-0.00016308,0.00040966,-0.00
 026897,0.00011217,-0.00044850,-0.00119825,-0.00072367,0.00063137,0.000
 65703,0.02164920,-0.00134444,0.00418634,0.01085801,-0.03801334,0.00308
 930,0.00149820,-0.00240528,-0.00076747,0.00005871,0.00073189,-0.000501
 82,0.00418535,-0.00060008,-0.00112986,-0.02789862,-0.00030186,-0.00797
 269,-0.00797295,0.04097162\\-0.00093335,-0.01552728,-0.00339230,0.0000
 9575,0.00000268,-0.00013220,-0.00005047,-0.00002881,-0.00002787,-0.000
 00516,0.00000891,0.00000216,-0.00004913,-0.00015036,-0.00012515,-0.000
 27753,0.00022434,0.00010934,-0.00059096,-0.00038232,0.00059985,0.00055
 799,-0.00024200,-0.00018038,0.00025517,0.00198727,-0.00075586,0.000143
 68,0.00909472,0.00280484,0.00030602,0.00013312,-0.00034490,-0.00002718
 ,-0.00008531,0.00007921,0.00016230,0.00097940,-0.00012713,-0.00004183,
 0.00235505,-0.00024825,0.00045469,0.00163056,0.00173864\\\@


 Life may have no meaning.  Or even worse, it may have a
 meaning of which I disapprove.
                                 -- Ashleigh Brilliant
 Job cpu time:       0 days  0 hours 53 minutes 48.6 seconds.
 Elapsed time:       0 days  0 hours  2 minutes 14.6 seconds.
 File lengths (MBytes):  RWF=    153 Int=      0 D2E=      0 Chk=      5 Scr=      1
 Normal termination of Gaussian 16 at Sat Aug 16 16:07:20 2025.
