 Entering Gaussian System, Link 0=g16
 Initial command:
 /opt/g16/l1.exe "/home/aayush/scratches/g16/Gau-8316.inp" -scrdir="/home/aayush/scratches/g16/"
 Entering Link 1 = /opt/g16/l1.exe PID=      8319.
  
 Copyright (c) 1988,1990,1992,1993,1995,1998,2003,2009,2016,
            Gaussian, Inc.  All Rights Reserved.
  
 This is part of the Gaussian(R) 16 program.  It is based on
 the Gaussian(R) 09 system (copyright 2009, Gaussian, Inc.),
 the Gaussian(R) 03 system (copyright 2003, Gaussian, Inc.),
 the Gaussian(R) 98 system (copyright 1998, Gaussian, Inc.),
 the Gaussian(R) 94 system (copyright 1995, Gaussian, Inc.),
 the Gaussian 92(TM) system (copyright 1992, Gaussian, Inc.),
 the Gaussian 90(TM) system (copyright 1990, Gaussian, Inc.),
 the Gaussian 88(TM) system (copyright 1988, Gaussian, Inc.),
 the Gaussian 86(TM) system (copyright 1986, Carnegie Mellon
 University), and the Gaussian 82(TM) system (copyright 1983,
 Carnegie Mellon University). Gaussian is a federally registered
 trademark of Gaussian, Inc.
  
 This software contains proprietary and confidential information,
 including trade secrets, belonging to Gaussian, Inc.
  
 This software is provided under written license and may be
 used, copied, transmitted, or stored only in accord with that
 written license.
  
 The following legend is applicable only to US Government
 contracts under FAR:
  
                    RESTRICTED RIGHTS LEGEND
  
 Use, reproduction and disclosure by the US Government is
 subject to restrictions as set forth in subparagraphs (a)
 and (c) of the Commercial Computer Software - Restricted
 Rights clause in FAR 52.227-19.
  
 Gaussian, Inc.
 340 Quinnipiac St., Bldg. 40, Wallingford CT 06492
  
  
 ---------------------------------------------------------------
 Warning -- This program may not be used in any manner that
 competes with the business of Gaussian, Inc. or will provide
 assistance to any competitor of Gaussian, Inc.  The licensee
 of this program is prohibited from giving any competitor of
 Gaussian, Inc. access to this program.  By using this program,
 the user acknowledges that Gaussian, Inc. is engaged in the
 business of creating and licensing software in the field of
 computational chemistry and represents and warrants to the
 licensee that it is not a competitor of Gaussian, Inc. and that
 it will not use this program in any manner prohibited above.
 ---------------------------------------------------------------
  

 Cite this work as:
 Gaussian 16, Revision A.03,
 M. J. Frisch, G. W. Trucks, H. B. Schlegel, G. E. Scuseria, 
 M. A. Robb, J. R. Cheeseman, G. Scalmani, V. Barone, 
 G. A. Petersson, H. Nakatsuji, X. Li, M. Caricato, A. V. Marenich, 
 J. Bloino, B. G. Janesko, R. Gomperts, B. Mennucci, H. P. Hratchian, 
 J. V. Ortiz, A. F. Izmaylov, J. L. Sonnenberg, D. Williams-Young, 
 F. Ding, F. Lipparini, F. Egidi, J. Goings, B. Peng, A. Petrone, 
 T. Henderson, D. Ranasinghe, V. G. Zakrzewski, J. Gao, N. Rega, 
 G. Zheng, W. Liang, M. Hada, M. Ehara, K. Toyota, R. Fukuda, 
 J. Hasegawa, M. Ishida, T. Nakajima, Y. Honda, O. Kitao, H. Nakai, 
 T. Vreven, K. Throssell, J. A. Montgomery, Jr., J. E. Peralta, 
 F. Ogliaro, M. J. Bearpark, J. J. Heyd, E. N. Brothers, K. N. Kudin, 
 V. N. Staroverov, T. A. Keith, R. Kobayashi, J. Normand, 
 K. Raghavachari, A. P. Rendell, J. C. Burant, S. S. Iyengar, 
 J. Tomasi, M. Cossi, J. M. Millam, M. Klene, C. Adamo, R. Cammi, 
 J. W. Ochterski, R. L. Martin, K. Morokuma, O. Farkas, 
 J. B. Foresman, and D. J. Fox, Gaussian, Inc., Wallingford CT, 2016.
 
 ******************************************
 Gaussian 16:  ES64L-G16RevA.03 25-Dec-2016
                24-Apr-2025 
 ******************************************
 %chk=ethyl_propiolate.chk
 %nprocshared=24
 Will use up to   24 processors via shared memory.
 %mem=12GB
 --------------------------
 # ccsd(t)/6-311++g(d,p) sp
 --------------------------
 1/38=1,172=1/1;
 2/12=2,17=6,18=5,40=1/2;
 3/5=4,6=6,7=1111,11=9,25=1,30=1/1,2,3;
 4//1;
 5/5=2,38=5/2;
 8/6=4,9=120000,10=2/1,4;
 9/5=7,14=2/13;
 6/7=2,8=2,9=2,10=2/1;
 99/5=1,9=1/99;
 -------------------
 Title Card Required
 -------------------
 Symbolic Z-matrix:
 Charge =  0 Multiplicity = 2
 C                    -2.51506   0.20474  -1.14345 
 H                    -3.40507   0.46447  -1.67031 
 C                    -1.54829   0.0797   -0.36181 
 C                    -0.25897  -0.5897   -0.0265 
 O                    -0.18592  -1.66179   0.50063 
 O                     0.76044   0.20405  -0.31953 
 C                     2.05318  -0.25613   0.12428 
 C                     3.05825   0.8026   -0.26261 
 H                     2.0071   -0.40942   1.20434 
 H                     2.25928  -1.21862  -0.34817 
 H                     3.0683    0.94726  -1.34358 
 H                     2.81577   1.75255   0.21473 
 H                     4.05562   0.49565   0.05658 
 O                    -1.69093   1.10333   1.09587 
 H                    -2.47854   0.72058   1.50549 
 
                          Input orientation:                          
 ---------------------------------------------------------------------
 Center     Atomic      Atomic             Coordinates (Angstroms)
 Number     Number       Type             X           Y           Z
 ---------------------------------------------------------------------
      1          6           0       -2.515061    0.204738   -1.143452
      2          1           0       -3.405070    0.464471   -1.670307
      3          6           0       -1.548293    0.079703   -0.361807
      4          6           0       -0.258968   -0.589700   -0.026495
      5          8           0       -0.185917   -1.661786    0.500625
      6          8           0        0.760439    0.204049   -0.319533
      7          6           0        2.053179   -0.256125    0.124281
      8          6           0        3.058247    0.802604   -0.262607
      9          1           0        2.007097   -0.409419    1.204338
     10          1           0        2.259281   -1.218618   -0.348173
     11          1           0        3.068301    0.947262   -1.343576
     12          1           0        2.815769    1.752547    0.214733
     13          1           0        4.055615    0.495647    0.056581
     14          8           0       -1.690926    1.103332    1.095865
     15          1           0       -2.478537    0.720575    1.505485
 ---------------------------------------------------------------------
                    Distance matrix (angstroms):
                    1          2          3          4          5
     1  C    0.000000
     2  H    1.066374   0.000000
     3  C    1.249497   2.303875   0.000000
     4  C    2.639826   3.702884   1.490937   0.000000
     5  O    3.407611   4.426834   2.373319   1.196896   0.000000
     6  O    3.377535   4.386784   2.312465   1.324802   2.247129
     7  C    4.763230   5.790707   3.649611   2.340946   2.670406
     8  C    5.674072   6.623475   4.663972   3.605298   4.144918
     9  H    5.132175   6.190220   3.915718   2.585054   2.621630
    10  H    5.045072   6.055221   4.022865   2.615453   2.625995
    11  H    5.636073   6.499567   4.798903   3.894570   4.560498
    12  H    5.714729   6.626564   4.709123   3.872766   4.555164
    13  H    6.685693   7.657998   5.634877   4.449776   4.779360
    14  O    2.549747   3.316344   1.786888   2.485267   3.203941
    15  H    2.698942   3.318088   2.182396   2.998378   3.455647
                    6          7          8          9         10
     6  O    0.000000
     7  C    1.442189   0.000000
     8  C    2.375170   1.510216   0.000000
     9  H    2.062203   1.091854   2.173901   0.000000
    10  H    2.066719   1.091826   2.175088   1.768810   0.000000
    11  H    2.631968   2.152491   1.090652   3.075484   2.517216
    12  H    2.628244   2.150462   1.090431   2.511447   3.074795
    13  H    3.329366   2.139975   1.091259   2.516529   2.515819
    14  O    2.970059   4.100051   4.948791   3.996943   4.804252
    15  H    3.753459   4.837160   5.812818   4.635568   5.444579
                   11         12         13         14         15
    11  H    0.000000
    12  H    1.772169   0.000000
    13  H    1.771774   1.772577   0.000000
    14  O    5.350278   4.637691   5.871297   0.000000
    15  H    6.239868   5.546231   6.696645   0.966759   0.000000
 Stoichiometry    C5H7O3(2)
 Framework group  C1[X(C5H7O3)]
 Deg. of freedom    39
 Full point group                 C1      NOp   1
 Largest Abelian subgroup         C1      NOp   1
 Largest concise Abelian subgroup C1      NOp   1
                         Standard orientation:                         
 ---------------------------------------------------------------------
 Center     Atomic      Atomic             Coordinates (Angstroms)
 Number     Number       Type             X           Y           Z
 ---------------------------------------------------------------------
      1          6           0        2.583411   -0.264528   -1.122555
      2          1           0        3.473490   -0.561367   -1.629308
      3          6           0        1.616153   -0.084318   -0.352373
      4          6           0        0.327531    0.608515   -0.065445
      5          8           0        0.255611    1.714619    0.386133
      6          8           0       -0.692796   -0.202169   -0.303822
      7          6           0       -1.985237    0.289453    0.105827
      8          6           0       -2.991536   -0.792092   -0.207820
      9          1           0       -1.939863    0.517074    1.172727
     10          1           0       -2.189506    1.217225   -0.432315
     11          1           0       -3.000869   -1.011213   -1.276193
     12          1           0       -2.750877   -1.707058    0.334362
     13          1           0       -3.988724   -0.462365    0.088392
     14          8           0        1.756010   -1.004794    1.172794
     15          1           0        2.543832   -0.595718    1.555698
 ---------------------------------------------------------------------
 Rotational constants (GHZ):           3.7188502           1.1575433           1.0769423
 Standard basis: 6-311++G(d,p) (5D, 7F)
 There are   233 symmetry adapted cartesian basis functions of A   symmetry.
 There are   225 symmetry adapted basis functions of A   symmetry.
   225 basis functions,   351 primitive gaussians,   233 cartesian basis functions
    31 alpha electrons       30 beta electrons
       nuclear repulsion energy       358.1519733454 Hartrees.
 NAtoms=   15 NActive=   15 NUniq=   15 SFac= 1.00D+00 NAtFMM=   60 NAOKFM=F Big=F
 Integral buffers will be    131072 words long.
 Raffenetti 2 integral format.
 Two-electron integral symmetry is turned on.
 One-electron integrals computed using PRISM.
 NBasis=   225 RedAO= T EigKep=  6.94D-06  NBF=   225
 NBsUse=   225 1.00D-06 EigRej= -1.00D+00 NBFU=   225
 ExpMin= 3.60D-02 ExpMax= 8.59D+03 ExpMxC= 1.30D+03 IAcc=3 IRadAn=         5 AccDes= 0.00D+00
 Harris functional with IExCor=  205 and IRadAn=       5 diagonalized for initial guess.
 HarFok:  IExCor=  205 AccDes= 0.00D+00 IRadAn=         5 IDoV= 1 UseB2=F ITyADJ=14
 ICtDFT=  3500011 ScaDFX=  1.000000  1.000000  1.000000  1.000000
 FoFCou: FMM=F IPFlag=           0 FMFlag=      100000 FMFlg1=           0
         NFxFlg=           0 DoJE=T BraDBF=F KetDBF=T FulRan=T
         wScrn=  0.000000 ICntrl=       500 IOpCl=  0 I1Cent=   200000004 NGrid=           0
         NMat0=    1 NMatS0=      1 NMatT0=    0 NMatD0=    1 NMtDS0=    0 NMtDT0=    0
 Petite list used in FoFCou.
 Initial guess <Sx>= 0.0000 <Sy>= 0.0000 <Sz>= 0.5000 <S**2>= 0.7500 S= 0.5000
 Requested convergence on RMS density matrix=1.00D-08 within 128 cycles.
 Requested convergence on MAX density matrix=1.00D-06.
 Requested convergence on             energy=1.00D-06.
 No special actions if energy rises.
 Initial convergence to 1.0D-05 achieved.  Increase integral accuracy.
 SCF Done:  E(UHF) =  -417.980290212     A.U. after   30 cycles
            NFock= 30  Conv=0.39D-08     -V/T= 2.0009
 <Sx>= 0.0000 <Sy>= 0.0000 <Sz>= 0.5000 <S**2>= 1.0860 S= 0.6559
 <L.S>=  0.00000000000    
 Annihilation of the first spin contaminant:
 S**2 before annihilation     1.0860,   after     0.8291
 ExpMin= 3.60D-02 ExpMax= 8.59D+03 ExpMxC= 1.30D+03 IAcc=3 IRadAn=         5 AccDes= 0.00D+00
 HarFok:  IExCor=  205 AccDes= 0.00D+00 IRadAn=         5 IDoV=-2 UseB2=F ITyADJ=14
 ICtDFT= 12500011 ScaDFX=  1.000000  1.000000  1.000000  1.000000
 Range of M.O.s used for correlation:     9   225
 NBasis=   225 NAE=    31 NBE=    30 NFC=     8 NFV=     0
 NROrb=    217 NOA=    23 NOB=    22 NVA=   194 NVB=   195

 **** Warning!!: The largest alpha MO coefficient is  0.11218292D+03


 **** Warning!!: The largest beta MO coefficient is  0.11150449D+03

 Semi-Direct transformation.
 ModeAB=           4 MOrb=            23 LenV=    1609177933
 LASXX=    109339976 LTotXX=   109339976 LenRXX=   221407890
 LTotAB=   112067914 MaxLAS=   127240554 LenRXY=           0
 NonZer=   330747866 LenScr=   498067456 LnRSAI=   127240554
 LnScr1=   191639552 LExtra=           0 Total=   1038355452
 MaxDsk=          -1 SrtSym=           T ITran=            4
 JobTyp=1 Pass  1:  I=   1 to  23.
 (rs|ai) integrals will be sorted in core.
 ModeAB=           4 MOrb=            22 LenV=    1609177933
 LASXX=    104936601 LTotXX=   104936601 LenRXX=   190867446
 LTotAB=    85930845 MaxLAS=   121708356 LenRXY=           0
 NonZer=   295804047 LenScr=   445446144 LnRSAI=   121708356
 LnScr1=   183307264 LExtra=           0 Total=    941329210
 MaxDsk=          -1 SrtSym=           T ITran=            4
 JobTyp=2 Pass  1:  I=   1 to  22.
 (rs|ai) integrals will be sorted in core.
 SymMOI:  orbitals are not symmetric.
 Spin components of T(2) and E(2):
     alpha-alpha T2 =       0.5194707663D-01 E2=     -0.1700962654D+00
     alpha-beta  T2 =       0.2798219202D+00 E2=     -0.9302707848D+00
     beta-beta   T2 =       0.5003101852D-01 E2=     -0.1594426578D+00
 ANorm=    0.1175499900D+01
 E2 =    -0.1259809708D+01 EUMP2 =    -0.41924009991979D+03
 (S**2,0)=  0.10860D+01           (S**2,1)=  0.99107D+00
 E(PUHF)=      -0.41800932559D+03        E(PMP2)=      -0.41926553386D+03
 Keep R2 and R3 ints in memory in canonical form, NReq=652884060.
 CIDS: In Core Option IDoMem=           1.
 Iterations=  50 Convergence= 0.100D-06
 Produce multiple copies of IABC intergrals
 Iteration Nr.   1
 **********************
 DD1Dir will call FoFMem   1 times, MxPair=      1496
 NAB=   506 NAA=   253 NBB=   231.
 E(PMP3)=      -0.41928905865D+03
 MP4(R+Q)=  0.24318205D-01
 E3=       -0.29359532D-01        EUMP3=      -0.41926945945D+03
 E4(DQ)=   -0.65852629D-02        UMP4(DQ)=   -0.41927604471D+03
 E4(SDQ)=  -0.29092351D-01        UMP4(SDQ)=  -0.41929855180D+03
 DE(Corr)=  -1.2646648     E(Corr)=     -419.24495505    
 NORM(A)=   0.11864353D+01
 Iteration Nr.   2
 **********************
 DD1Dir will call FoFMem   1 times, MxPair=      1496
 NAB=   506 NAA=   253 NBB=   231.
 DE(Corr)=  -1.3096682     E(CORR)=     -419.28995837     Delta=-4.50D-02
 NORM(A)=   0.12100859D+01
 Iteration Nr.   3
 **********************
 DD1Dir will call FoFMem   1 times, MxPair=      1496
 NAB=   506 NAA=   253 NBB=   231.
 DE(Corr)=  -1.3139479     E(CORR)=     -419.29423816     Delta=-4.28D-03
 NORM(A)=   0.12255659D+01
 Iteration Nr.   4
 **********************
 DD1Dir will call FoFMem   1 times, MxPair=      1496
 NAB=   506 NAA=   253 NBB=   231.
 DE(Corr)=  -1.3228703     E(CORR)=     -419.30316051     Delta=-8.92D-03
 NORM(A)=   0.12357347D+01
 Iteration Nr.   5
 **********************
 DD1Dir will call FoFMem   1 times, MxPair=      1496
 NAB=   506 NAA=   253 NBB=   231.
 DE(Corr)=  -1.3255940     E(CORR)=     -419.30588421     Delta=-2.72D-03
 NORM(A)=   0.12400535D+01
 Iteration Nr.   6
 **********************
 DD1Dir will call FoFMem   1 times, MxPair=      1496
 NAB=   506 NAA=   253 NBB=   231.
 DE(Corr)=  -1.3263383     E(CORR)=     -419.30662850     Delta=-7.44D-04
 NORM(A)=   0.12406448D+01
 Iteration Nr.   7
 **********************
 DD1Dir will call FoFMem   1 times, MxPair=      1496
 NAB=   506 NAA=   253 NBB=   231.
 DE(Corr)=  -1.3264330     E(CORR)=     -419.30672320     Delta=-9.47D-05
 NORM(A)=   0.12407900D+01
 Iteration Nr.   8
 **********************
 DD1Dir will call FoFMem   1 times, MxPair=      1496
 NAB=   506 NAA=   253 NBB=   231.
 DE(Corr)=  -1.3264095     E(CORR)=     -419.30669974     Delta= 2.35D-05
 NORM(A)=   0.12408203D+01
 Iteration Nr.   9
 **********************
 DD1Dir will call FoFMem   1 times, MxPair=      1496
 NAB=   506 NAA=   253 NBB=   231.
 DE(Corr)=  -1.3264310     E(CORR)=     -419.30672125     Delta=-2.15D-05
 NORM(A)=   0.12408175D+01
 Iteration Nr.  10
 **********************
 DD1Dir will call FoFMem   1 times, MxPair=      1496
 NAB=   506 NAA=   253 NBB=   231.
 DE(Corr)=  -1.3264201     E(CORR)=     -419.30671031     Delta= 1.09D-05
 NORM(A)=   0.12408276D+01
 Iteration Nr.  11
 **********************
 DD1Dir will call FoFMem   1 times, MxPair=      1496
 NAB=   506 NAA=   253 NBB=   231.
 DE(Corr)=  -1.3264385     E(CORR)=     -419.30672873     Delta=-1.84D-05
 NORM(A)=   0.12408653D+01
 Iteration Nr.  12
 **********************
 DD1Dir will call FoFMem   1 times, MxPair=      1496
 NAB=   506 NAA=   253 NBB=   231.
 DE(Corr)=  -1.3264416     E(CORR)=     -419.30673181     Delta=-3.08D-06
 NORM(A)=   0.12409171D+01
 Iteration Nr.  13
 **********************
 DD1Dir will call FoFMem   1 times, MxPair=      1496
 NAB=   506 NAA=   253 NBB=   231.
 DE(Corr)=  -1.3264532     E(CORR)=     -419.30674341     Delta=-1.16D-05
 NORM(A)=   0.12409595D+01
 Iteration Nr.  14
 **********************
 DD1Dir will call FoFMem   1 times, MxPair=      1496
 NAB=   506 NAA=   253 NBB=   231.
 DE(Corr)=  -1.3264616     E(CORR)=     -419.30675181     Delta=-8.41D-06
 NORM(A)=   0.12409868D+01
 Iteration Nr.  15
 **********************
 DD1Dir will call FoFMem   1 times, MxPair=      1496
 NAB=   506 NAA=   253 NBB=   231.
 DE(Corr)=  -1.3264655     E(CORR)=     -419.30675571     Delta=-3.89D-06
 NORM(A)=   0.12410016D+01
 Iteration Nr.  16
 **********************
 DD1Dir will call FoFMem   1 times, MxPair=      1496
 NAB=   506 NAA=   253 NBB=   231.
 DE(Corr)=  -1.3264691     E(CORR)=     -419.30675935     Delta=-3.64D-06
 NORM(A)=   0.12410078D+01
 Iteration Nr.  17
 **********************
 DD1Dir will call FoFMem   1 times, MxPair=      1496
 NAB=   506 NAA=   253 NBB=   231.
 DE(Corr)=  -1.3264699     E(CORR)=     -419.30676007     Delta=-7.23D-07
 NORM(A)=   0.12410102D+01
 Iteration Nr.  18
 **********************
 DD1Dir will call FoFMem   1 times, MxPair=      1496
 NAB=   506 NAA=   253 NBB=   231.
 DE(Corr)=  -1.3264704     E(CORR)=     -419.30676059     Delta=-5.19D-07
 NORM(A)=   0.12410107D+01
 Iteration Nr.  19
 **********************
 DD1Dir will call FoFMem   1 times, MxPair=      1496
 NAB=   506 NAA=   253 NBB=   231.
 DE(Corr)=  -1.3264704     E(CORR)=     -419.30676061     Delta=-2.36D-08
 NORM(A)=   0.12410108D+01
 Wavefunction amplitudes converged. E(Corr)=     -419.30676061    
 Largest amplitude= 6.26D-02
 Time for triples=    38130.49 seconds.
 T4(CCSD)= -0.59186445D-01
 T5(CCSD)=  0.42617759D-02
 CCSD(T)= -0.41936168528D+03

 S**2, projected HF & approx projected MPn energies after annihilation of
 unwanted spin states (see manual for definitions):

 spins       (S**2,0) (S**2,1)    PUHF        PMP2        PMP3        PMP4
 annihilated
 s+1         0.70331  0.73224 -418.009326 -419.265534 -419.289059
 s+1,s+2     0.75093  0.74982 -418.006211 -419.262561 -419.286277
 s+1 to s+3  0.74999  0.75001 -418.006287 -419.262615 -419.286299
 s+1 to s+4  0.75000  0.75000 -418.006287 -419.262615 -419.286299
 s+1 to s+5  0.75000  0.75000 -418.006287
 s+1 to s+6  0.75000  0.75000 -418.006287

 Discarding MO integrals.

 **********************************************************************

            Population analysis using the SCF density.

 **********************************************************************

 Orbital symmetries:
 Alpha Orbitals:
       Occupied  (A) (A) (A) (A) (A) (A) (A) (A) (A) (A) (A) (A)
                 (A) (A) (A) (A) (A) (A) (A) (A) (A) (A) (A) (A)
                 (A) (A) (A) (A) (A) (A) (A)
       Virtual   (A) (A) (A) (A) (A) (A) (A) (A) (A) (A) (A) (A)
                 (A) (A) (A) (A) (A) (A) (A) (A) (A) (A) (A) (A)
                 (A) (A) (A) (A) (A) (A) (A) (A) (A) (A) (A) (A)
                 (A) (A) (A) (A) (A) (A) (A) (A) (A) (A) (A) (A)
                 (A) (A) (A) (A) (A) (A) (A) (A) (A) (A) (A) (A)
                 (A) (A) (A) (A) (A) (A) (A) (A) (A) (A) (A) (A)
                 (A) (A) (A) (A) (A) (A) (A) (A) (A) (A) (A) (A)
                 (A) (A) (A) (A) (A) (A) (A) (A) (A) (A) (A) (A)
                 (A) (A) (A) (A) (A) (A) (A) (A) (A) (A) (A) (A)
                 (A) (A) (A) (A) (A) (A) (A) (A) (A) (A) (A) (A)
                 (A) (A) (A) (A) (A) (A) (A) (A) (A) (A) (A) (A)
                 (A) (A) (A) (A) (A) (A) (A) (A) (A) (A) (A) (A)
                 (A) (A) (A) (A) (A) (A) (A) (A) (A) (A) (A) (A)
                 (A) (A) (A) (A) (A) (A) (A) (A) (A) (A) (A) (A)
                 (A) (A) (A) (A) (A) (A) (A) (A) (A) (A) (A) (A)
                 (A) (A) (A) (A) (A) (A) (A) (A) (A) (A) (A) (A)
                 (A) (A)
 Beta  Orbitals:
       Occupied  (A) (A) (A) (A) (A) (A) (A) (A) (A) (A) (A) (A)
                 (A) (A) (A) (A) (A) (A) (A) (A) (A) (A) (A) (A)
                 (A) (A) (A) (A) (A) (A)
       Virtual   (A) (A) (A) (A) (A) (A) (A) (A) (A) (A) (A) (A)
                 (A) (A) (A) (A) (A) (A) (A) (A) (A) (A) (A) (A)
                 (A) (A) (A) (A) (A) (A) (A) (A) (A) (A) (A) (A)
                 (A) (A) (A) (A) (A) (A) (A) (A) (A) (A) (A) (A)
                 (A) (A) (A) (A) (A) (A) (A) (A) (A) (A) (A) (A)
                 (A) (A) (A) (A) (A) (A) (A) (A) (A) (A) (A) (A)
                 (A) (A) (A) (A) (A) (A) (A) (A) (A) (A) (A) (A)
                 (A) (A) (A) (A) (A) (A) (A) (A) (A) (A) (A) (A)
                 (A) (A) (A) (A) (A) (A) (A) (A) (A) (A) (A) (A)
                 (A) (A) (A) (A) (A) (A) (A) (A) (A) (A) (A) (A)
                 (A) (A) (A) (A) (A) (A) (A) (A) (A) (A) (A) (A)
                 (A) (A) (A) (A) (A) (A) (A) (A) (A) (A) (A) (A)
                 (A) (A) (A) (A) (A) (A) (A) (A) (A) (A) (A) (A)
                 (A) (A) (A) (A) (A) (A) (A) (A) (A) (A) (A) (A)
                 (A) (A) (A) (A) (A) (A) (A) (A) (A) (A) (A) (A)
                 (A) (A) (A) (A) (A) (A) (A) (A) (A) (A) (A) (A)
                 (A) (A) (A)
 The electronic state is 2-A.
 Alpha  occ. eigenvalues --  -20.61161 -20.60538 -20.55724 -11.41144 -11.29570
 Alpha  occ. eigenvalues --  -11.29200 -11.28118 -11.22747  -1.48219  -1.37831
 Alpha  occ. eigenvalues --   -1.36229  -1.08581  -1.04914  -0.92124  -0.83487
 Alpha  occ. eigenvalues --   -0.77640  -0.72881  -0.69985  -0.68810  -0.66707
 Alpha  occ. eigenvalues --   -0.62531  -0.59174  -0.58467  -0.55676  -0.53286
 Alpha  occ. eigenvalues --   -0.51957  -0.51138  -0.47908  -0.46312  -0.43783
 Alpha  occ. eigenvalues --   -0.42036
 Alpha virt. eigenvalues --    0.03653   0.04482   0.05988   0.06547   0.07087
 Alpha virt. eigenvalues --    0.08134   0.09938   0.10691   0.11219   0.12493
 Alpha virt. eigenvalues --    0.12897   0.13828   0.14591   0.15274   0.16602
 Alpha virt. eigenvalues --    0.17102   0.17155   0.18384   0.18740   0.19615
 Alpha virt. eigenvalues --    0.20367   0.20734   0.21374   0.21579   0.22048
 Alpha virt. eigenvalues --    0.23628   0.24365   0.25998   0.26492   0.29590
 Alpha virt. eigenvalues --    0.29972   0.31263   0.31965   0.32602   0.33466
 Alpha virt. eigenvalues --    0.34205   0.34254   0.37024   0.37714   0.38700
 Alpha virt. eigenvalues --    0.40141   0.41183   0.43215   0.43290   0.44780
 Alpha virt. eigenvalues --    0.45194   0.46367   0.46673   0.47675   0.50511
 Alpha virt. eigenvalues --    0.52747   0.54983   0.57094   0.58425   0.59747
 Alpha virt. eigenvalues --    0.62715   0.67222   0.68316   0.68587   0.69845
 Alpha virt. eigenvalues --    0.71979   0.73838   0.78439   0.80569   0.81708
 Alpha virt. eigenvalues --    0.83009   0.85838   0.86994   0.87122   0.87404
 Alpha virt. eigenvalues --    0.89625   0.90192   0.91774   0.95068   0.97107
 Alpha virt. eigenvalues --    0.99613   1.03181   1.07796   1.09549   1.14131
 Alpha virt. eigenvalues --    1.19027   1.22657   1.24103   1.26277   1.29862
 Alpha virt. eigenvalues --    1.35151   1.37727   1.38986   1.40949   1.43132
 Alpha virt. eigenvalues --    1.45553   1.47097   1.49190   1.50521   1.51093
 Alpha virt. eigenvalues --    1.53491   1.55097   1.60760   1.63620   1.67506
 Alpha virt. eigenvalues --    1.70284   1.71843   1.73151   1.76819   1.79347
 Alpha virt. eigenvalues --    1.80560   1.82170   1.83228   1.85707   1.86926
 Alpha virt. eigenvalues --    1.89394   1.90929   1.93263   1.95765   1.98050
 Alpha virt. eigenvalues --    2.00888   2.01533   2.08838   2.13203   2.13727
 Alpha virt. eigenvalues --    2.16702   2.18081   2.28222   2.30129   2.35162
 Alpha virt. eigenvalues --    2.37565   2.41555   2.42328   2.47829   2.55033
 Alpha virt. eigenvalues --    2.57796   2.65040   2.70252   2.79453   2.80215
 Alpha virt. eigenvalues --    2.82244   2.85570   2.87689   2.89050   2.92961
 Alpha virt. eigenvalues --    2.95699   2.95883   2.96867   2.99700   3.04041
 Alpha virt. eigenvalues --    3.09196   3.12516   3.16429   3.17931   3.21061
 Alpha virt. eigenvalues --    3.26337   3.30799   3.33439   3.37639   3.38916
 Alpha virt. eigenvalues --    3.44224   3.47828   3.49633   3.50658   3.54488
 Alpha virt. eigenvalues --    3.61930   3.64220   3.68936   3.70929   3.80290
 Alpha virt. eigenvalues --    3.81806   3.91635   4.02411   4.14010   4.20503
 Alpha virt. eigenvalues --    4.22028   4.22260   4.26508   4.42618   4.50469
 Alpha virt. eigenvalues --    4.54224   4.70671   5.58013   5.59492   5.60305
 Alpha virt. eigenvalues --    5.65532   5.78125   5.92853   6.06791   6.22160
 Alpha virt. eigenvalues --    6.43145  24.66490  25.00073  25.01572  25.14184
 Alpha virt. eigenvalues --   25.91067  51.56191  51.61554  51.71109
  Beta  occ. eigenvalues --  -20.61166 -20.57702 -20.56057 -11.40777 -11.31457
  Beta  occ. eigenvalues --  -11.29573 -11.25220 -11.22747  -1.48339  -1.38361
  Beta  occ. eigenvalues --   -1.27206  -1.07610  -1.03676  -0.90461  -0.82674
  Beta  occ. eigenvalues --   -0.77018  -0.71560  -0.69842  -0.69043  -0.64462
  Beta  occ. eigenvalues --   -0.60212  -0.58588  -0.55774  -0.52857  -0.52020
  Beta  occ. eigenvalues --   -0.49752  -0.48674  -0.47197  -0.46733  -0.42304
  Beta virt. eigenvalues --    0.03762   0.04264   0.04503   0.06521   0.07059
  Beta virt. eigenvalues --    0.07513   0.08250   0.09872   0.10491   0.12256
  Beta virt. eigenvalues --    0.12896   0.13089   0.14089   0.15409   0.16416
  Beta virt. eigenvalues --    0.17159   0.17444   0.17888   0.18514   0.18783
  Beta virt. eigenvalues --    0.19994   0.20563   0.20888   0.21611   0.22160
  Beta virt. eigenvalues --    0.22656   0.23358   0.24676   0.25923   0.26759
  Beta virt. eigenvalues --    0.29410   0.29967   0.30990   0.32091   0.32781
  Beta virt. eigenvalues --    0.34029   0.35047   0.36654   0.37123   0.37862
  Beta virt. eigenvalues --    0.38723   0.40211   0.41249   0.43144   0.43384
  Beta virt. eigenvalues --    0.44626   0.45767   0.46408   0.46837   0.48128
  Beta virt. eigenvalues --    0.50526   0.53168   0.54734   0.57201   0.58524
  Beta virt. eigenvalues --    0.60882   0.63045   0.67369   0.68359   0.69048
  Beta virt. eigenvalues --    0.71528   0.74506   0.75042   0.80482   0.81031
  Beta virt. eigenvalues --    0.82529   0.85062   0.85866   0.87004   0.87117
  Beta virt. eigenvalues --    0.87551   0.87887   0.89835   0.91500   0.95233
  Beta virt. eigenvalues --    0.97104   0.99431   1.03736   1.08224   1.09802
  Beta virt. eigenvalues --    1.14152   1.19002   1.22436   1.24049   1.26616
  Beta virt. eigenvalues --    1.31490   1.36395   1.37993   1.41729   1.42149
  Beta virt. eigenvalues --    1.43267   1.46208   1.48902   1.49251   1.51076
  Beta virt. eigenvalues --    1.53108   1.57056   1.57721   1.61899   1.64620
  Beta virt. eigenvalues --    1.68930   1.71260   1.71906   1.73784   1.77398
  Beta virt. eigenvalues --    1.79880   1.80616   1.82511   1.83667   1.85992
  Beta virt. eigenvalues --    1.86198   1.89306   1.90850   1.93265   1.95587
  Beta virt. eigenvalues --    1.98443   2.00821   2.01345   2.09166   2.13228
  Beta virt. eigenvalues --    2.13829   2.17243   2.18387   2.28533   2.30163
  Beta virt. eigenvalues --    2.35698   2.38373   2.41585   2.42709   2.47831
  Beta virt. eigenvalues --    2.54806   2.57719   2.65042   2.70374   2.79453
  Beta virt. eigenvalues --    2.80900   2.82266   2.85577   2.87821   2.89103
  Beta virt. eigenvalues --    2.92988   2.95956   2.96443   2.97201   2.99855
  Beta virt. eigenvalues --    3.04611   3.11601   3.13655   3.17161   3.20248
  Beta virt. eigenvalues --    3.22584   3.26775   3.30806   3.32827   3.38647
  Beta virt. eigenvalues --    3.42692   3.45041   3.48657   3.51511   3.52473
  Beta virt. eigenvalues --    3.58162   3.62032   3.64096   3.68768   3.71260
  Beta virt. eigenvalues --    3.79992   3.83676   3.93142   4.02301   4.13722
  Beta virt. eigenvalues --    4.20503   4.22027   4.22250   4.28900   4.42439
  Beta virt. eigenvalues --    4.50371   4.54153   4.70656   5.58317   5.60330
  Beta virt. eigenvalues --    5.65016   5.68918   5.78093   5.92824   6.08558
  Beta virt. eigenvalues --    6.22073   6.43082  24.66355  25.00328  25.01584
  Beta virt. eigenvalues --   25.14184  25.91558  51.57424  51.61908  51.70932
          Condensed to atoms (all electrons):
               1          2          3          4          5          6
     1  C    9.712448   0.456438  -1.578388  -2.173293  -0.094691  -0.087100
     2  H    0.456438   0.400369  -0.069122  -0.019654  -0.001856  -0.002484
     3  C   -1.578388  -0.069122   9.347174  -1.846717   0.112434  -0.129965
     4  C   -2.173293  -0.019654  -1.846717  10.037048   0.402293   0.040306
     5  O   -0.094691  -0.001856   0.112434   0.402293   8.050617  -0.116845
     6  O   -0.087100  -0.002484  -0.129965   0.040306  -0.116845   8.417114
     7  C   -0.016554   0.000089  -0.274456  -0.049887  -0.043634   0.163860
     8  C    0.012420   0.000213  -0.131562   0.126116   0.026274  -0.162205
     9  H    0.019471   0.000023   0.029304  -0.065425  -0.011372  -0.035539
    10  H   -0.024993  -0.000313  -0.020578   0.050819  -0.012550  -0.039863
    11  H    0.005172  -0.000021   0.007173  -0.010156  -0.001049  -0.007435
    12  H   -0.005286   0.000041   0.002125   0.009975  -0.000949  -0.008759
    13  H   -0.002448  -0.000018  -0.001199   0.004941   0.001430   0.021710
    14  O   -0.148123  -0.001407   0.298185  -0.255313  -0.008974   0.010791
    15  H   -0.049144  -0.002189   0.056394   0.013600  -0.000192  -0.000525
               7          8          9         10         11         12
     1  C   -0.016554   0.012420   0.019471  -0.024993   0.005172  -0.005286
     2  H    0.000089   0.000213   0.000023  -0.000313  -0.000021   0.000041
     3  C   -0.274456  -0.131562   0.029304  -0.020578   0.007173   0.002125
     4  C   -0.049887   0.126116  -0.065425   0.050819  -0.010156   0.009975
     5  O   -0.043634   0.026274  -0.011372  -0.012550  -0.001049  -0.000949
     6  O    0.163860  -0.162205  -0.035539  -0.039863  -0.007435  -0.008759
     7  C    5.498081   0.015689   0.443977   0.423365  -0.030775  -0.044566
     8  C    0.015689   5.607576  -0.056555  -0.054397   0.397424   0.402992
     9  H    0.443977  -0.056555   0.554002  -0.054675   0.004603  -0.005516
    10  H    0.423365  -0.054397  -0.054675   0.560766  -0.006482   0.005028
    11  H   -0.030775   0.397424   0.004603  -0.006482   0.566338  -0.040201
    12  H   -0.044566   0.402992  -0.005516   0.005028  -0.040201   0.559021
    13  H   -0.043778   0.406906  -0.004854  -0.003754  -0.034876  -0.033165
    14  O   -0.001844  -0.002457   0.001499  -0.000774   0.000147   0.000168
    15  H   -0.001282  -0.000631  -0.000749   0.000286  -0.000036   0.000042
              13         14         15
     1  C   -0.002448  -0.148123  -0.049144
     2  H   -0.000018  -0.001407  -0.002189
     3  C   -0.001199   0.298185   0.056394
     4  C    0.004941  -0.255313   0.013600
     5  O    0.001430  -0.008974  -0.000192
     6  O    0.021710   0.010791  -0.000525
     7  C   -0.043778  -0.001844  -0.001282
     8  C    0.406906  -0.002457  -0.000631
     9  H   -0.004854   0.001499  -0.000749
    10  H   -0.003754  -0.000774   0.000286
    11  H   -0.034876   0.000147  -0.000036
    12  H   -0.033165   0.000168   0.000042
    13  H    0.551469  -0.000110   0.000080
    14  O   -0.000110   8.077311   0.252414
    15  H    0.000080   0.252414   0.475647
          Atomic-Atomic Spin Densities.
               1          2          3          4          5          6
     1  C    1.873699   0.009788  -0.403752   0.314599   0.000007  -0.025198
     2  H    0.009788  -0.087627  -0.018863  -0.002538   0.000042  -0.000865
     3  C   -0.403752  -0.018863  -0.855041   0.020681   0.018058   0.041896
     4  C    0.314599  -0.002538   0.020681  -0.295326   0.000925  -0.022100
     5  O    0.000007   0.000042   0.018058   0.000925  -0.090142   0.001565
     6  O   -0.025198  -0.000865   0.041896  -0.022100   0.001565   0.006609
     7  C   -0.017040  -0.000269  -0.018263   0.042048   0.003093  -0.002867
     8  C    0.007309  -0.000035  -0.003229  -0.012094  -0.001416   0.002095
     9  H   -0.000114  -0.000011   0.000600  -0.000023   0.000434  -0.000228
    10  H    0.000784  -0.000015   0.004800  -0.007091  -0.000701   0.001151
    11  H    0.000411  -0.000000   0.001297  -0.001106   0.000071   0.000016
    12  H   -0.001481  -0.000027  -0.000344   0.001552  -0.000075   0.000112
    13  H   -0.000295  -0.000002  -0.000010   0.000554   0.000056  -0.000002
    14  O   -0.302454  -0.005984   0.090757   0.174659   0.001233   0.000985
    15  H    0.033025   0.000744  -0.014789  -0.019484  -0.000089   0.000486
               7          8          9         10         11         12
     1  C   -0.017040   0.007309  -0.000114   0.000784   0.000411  -0.001481
     2  H   -0.000269  -0.000035  -0.000011  -0.000015  -0.000000  -0.000027
     3  C   -0.018263  -0.003229   0.000600   0.004800   0.001297  -0.000344
     4  C    0.042048  -0.012094  -0.000023  -0.007091  -0.001106   0.001552
     5  O    0.003093  -0.001416   0.000434  -0.000701   0.000071  -0.000075
     6  O   -0.002867   0.002095  -0.000228   0.001151   0.000016   0.000112
     7  C   -0.000933  -0.000909  -0.001012   0.001118   0.000054  -0.000681
     8  C   -0.000909   0.006055   0.001302  -0.000879  -0.000105   0.000452
     9  H   -0.001012   0.001302  -0.000253  -0.000187  -0.000080   0.000013
    10  H    0.001118  -0.000879  -0.000187   0.000253  -0.000094   0.000190
    11  H    0.000054  -0.000105  -0.000080  -0.000094  -0.000240  -0.000055
    12  H   -0.000681   0.000452   0.000013   0.000190  -0.000055   0.000252
    13  H    0.000049  -0.000220  -0.000113   0.000098  -0.000066  -0.000125
    14  O   -0.004853   0.001973  -0.000339   0.000942  -0.000022   0.000117
    15  H    0.000328  -0.000119   0.000068  -0.000059   0.000002  -0.000033
              13         14         15
     1  C   -0.000295  -0.302454   0.033025
     2  H   -0.000002  -0.005984   0.000744
     3  C   -0.000010   0.090757  -0.014789
     4  C    0.000554   0.174659  -0.019484
     5  O    0.000056   0.001233  -0.000089
     6  O   -0.000002   0.000985   0.000486
     7  C    0.000049  -0.004853   0.000328
     8  C   -0.000220   0.001973  -0.000119
     9  H   -0.000113  -0.000339   0.000068
    10  H    0.000098   0.000942  -0.000059
    11  H   -0.000066  -0.000022   0.000002
    12  H   -0.000125   0.000117  -0.000033
    13  H    0.000135  -0.000053   0.000008
    14  O   -0.000053   0.676940   0.009215
    15  H    0.000008   0.009215  -0.032188
 Mulliken charges and spin densities:
               1          2
     1  C   -0.025930   1.489286
     2  H    0.239892  -0.105662
     3  C    0.199198  -1.136200
     4  C   -0.264655   0.195255
     5  O   -0.300936  -0.066939
     6  O   -0.063060   0.003654
     7  C   -0.038284  -0.000136
     8  C   -0.587804   0.000180
     9  H    0.181806   0.000056
    10  H    0.178115   0.000311
    11  H    0.150173   0.000084
    12  H    0.159048  -0.000134
    13  H    0.137665   0.000013
    14  O   -0.221512   0.643117
    15  H    0.256283  -0.022885
 Sum of Mulliken charges =  -0.00000   1.00000
 Mulliken charges and spin densities with hydrogens summed into heavy atoms:
               1          2
     1  C    0.213963   1.383624
     3  C    0.199198  -1.136200
     4  C   -0.264655   0.195255
     5  O   -0.300936  -0.066939
     6  O   -0.063060   0.003654
     7  C    0.321637   0.000231
     8  C   -0.140918   0.000143
    14  O    0.034771   0.620232
 Electronic spatial extent (au):  <R**2>=           1160.7319
 Charge=             -0.0000 electrons
 Dipole moment (field-independent basis, Debye):
    X=              0.4412    Y=             -0.7379    Z=             -1.1320  Tot=              1.4215
 Quadrupole moment (field-independent basis, Debye-Ang):
   XX=            -30.2504   YY=            -56.1361   ZZ=            -44.7759
   XY=             -1.6278   XZ=             -2.3658   YZ=             -0.1949
 Traceless Quadrupole moment (field-independent basis, Debye-Ang):
   XX=             13.4704   YY=            -12.4153   ZZ=             -1.0551
   XY=             -1.6278   XZ=             -2.3658   YZ=             -0.1949
 Octapole moment (field-independent basis, Debye-Ang**2):
  XXX=             32.0117  YYY=             -7.1757  ZZZ=              7.1850  XYY=             -7.6872
  XXY=             -4.5104  XXZ=             -2.8718  XZZ=             11.2513  YZZ=             -0.2765
  YYZ=             -3.1605  XYZ=              3.8912
 Hexadecapole moment (field-independent basis, Debye-Ang**3):
 XXXX=           -915.8444 YYYY=           -274.2521 ZZZZ=           -167.6588 XXXY=            -39.4649
 XXXZ=            -19.4630 YYYX=             -2.5749 YYYZ=             -6.0252 ZZZX=             13.9074
 ZZZY=             -0.0874 XXYY=           -234.0131 XXZZ=           -166.0282 YYZZ=            -73.2851
 XXYZ=             10.4112 YYXZ=             -0.5264 ZZXY=             -8.6974
 N-N= 3.581519733454D+02 E-N=-1.699302120486D+03  KE= 4.176069694510D+02
 1\1\GINC-AJ\SP\UCCSD(T)-FC\6-311++G(d,p)\C5H7O3(2)\AAYUSH\24-Apr-2025\
 0\\# ccsd(t)/6-311++g(d,p) sp\\Title Card Required\\0,2\C,0,-2.515061,
 0.204738,-1.143452\H,0,-3.40507,0.464471,-1.670307\C,0,-1.548293,0.079
 703,-0.361807\C,0,-0.258968,-0.5897,-0.026495\O,0,-0.185917,-1.661786,
 0.500625\O,0,0.760439,0.204049,-0.319533\C,0,2.053179,-0.256125,0.1242
 81\C,0,3.058247,0.802604,-0.262607\H,0,2.007097,-0.409419,1.204338\H,0
 ,2.259281,-1.218618,-0.348173\H,0,3.068301,0.947262,-1.343576\H,0,2.81
 5769,1.752547,0.214733\H,0,4.055615,0.495647,0.056581\O,0,-1.690926,1.
 103332,1.095865\H,0,-2.478537,0.720575,1.505485\\Version=ES64L-G16RevA
 .03\State=2-A\HF=-417.9802902\MP2=-419.2400999\MP3=-419.2694595\MP4D=-
 419.3003629\MP4DQ=-419.2760447\PUHF=-418.0093256\PMP2-0=-419.2655339\P
 MP3-0=-419.2890586\MP4SDQ=-419.2985518\CCSD=-419.3067606\CCSD(T)=-419.
 3616853\S2=1.086006\S2-1=0.991071\S2A=0.829082\RMSD=3.877e-09\PG=C01 [
 X(C5H7O3)]\\@


 MY GROUP MEETINGS AREN'T VERY STRUCTURED.
     -- PROF. M. S. GORDON, OCT. 5, 1984
 Job cpu time:       0 days 17 hours 54 minutes 30.3 seconds.
 Elapsed time:       0 days  0 hours 45 minutes 51.0 seconds.
 File lengths (MBytes):  RWF=  44733 Int=      0 D2E=      0 Chk=      7 Scr=      1
 Normal termination of Gaussian 16 at Thu Apr 24 06:52:30 2025.
