 Entering Link 1 = C:\G09W\l1.exe PID=      6796.
  
 Copyright (c) 1988,1990,1992,1993,1995,1998,2003,2009,2013,
            Gaussian, Inc.  All Rights Reserved.
  
 This is part of the Gaussian(R) 09 program.  It is based on
 the Gaussian(R) 03 system (copyright 2003, Gaussian, Inc.),
 the Gaussian(R) 98 system (copyright 1998, Gaussian, Inc.),
 the Gaussian(R) 94 system (copyright 1995, Gaussian, Inc.),
 the Gaussian 92(TM) system (copyright 1992, Gaussian, Inc.),
 the Gaussian 90(TM) system (copyright 1990, Gaussian, Inc.),
 the Gaussian 88(TM) system (copyright 1988, Gaussian, Inc.),
 the Gaussian 86(TM) system (copyright 1986, Carnegie Mellon
 University), and the Gaussian 82(TM) system (copyright 1983,
 Carnegie Mellon University). Gaussian is a federally registered
 trademark of Gaussian, Inc.
  
 This software contains proprietary and confidential information,
 including trade secrets, belonging to Gaussian, Inc.
  
 This software is provided under written license and may be
 used, copied, transmitted, or stored only in accord with that
 written license.
  
 The following legend is applicable only to US Government
 contracts under FAR:
  
                    RESTRICTED RIGHTS LEGEND
  
 Use, reproduction and disclosure by the US Government is
 subject to restrictions as set forth in subparagraphs (a)
 and (c) of the Commercial Computer Software - Restricted
 Rights clause in FAR 52.227-19.
  
 Gaussian, Inc.
 340 Quinnipiac St., Bldg. 40, Wallingford CT 06492
  
  
 ---------------------------------------------------------------
 Warning -- This program may not be used in any manner that
 competes with the business of Gaussian, Inc. or will provide
 assistance to any competitor of Gaussian, Inc.  The licensee
 of this program is prohibited from giving any competitor of
 Gaussian, Inc. access to this program.  By using this program,
 the user acknowledges that Gaussian, Inc. is engaged in the
 business of creating and licensing software in the field of
 computational chemistry and represents and warrants to the
 licensee that it is not a competitor of Gaussian, Inc. and that
 it will not use this program in any manner prohibited above.
 ---------------------------------------------------------------
  

 Cite this work as:
 Gaussian 09, Revision D.01,
 M. J. Frisch, G. W. Trucks, H. B. Schlegel, G. E. Scuseria, 
 M. A. Robb, J. R. Cheeseman, G. Scalmani, V. Barone, B. Mennucci, 
 G. A. Petersson, H. Nakatsuji, M. Caricato, X. Li, H. P. Hratchian, 
 A. F. Izmaylov, J. Bloino, G. Zheng, J. L. Sonnenberg, M. Hada, 
 M. Ehara, K. Toyota, R. Fukuda, J. Hasegawa, M. Ishida, T. Nakajima, 
 Y. Honda, O. Kitao, H. Nakai, T. Vreven, J. A. Montgomery, Jr., 
 J. E. Peralta, F. Ogliaro, M. Bearpark, J. J. Heyd, E. Brothers, 
 K. N. Kudin, V. N. Staroverov, T. Keith, R. Kobayashi, J. Normand, 
 K. Raghavachari, A. Rendell, J. C. Burant, S. S. Iyengar, J. Tomasi, 
 M. Cossi, N. Rega, J. M. Millam, M. Klene, J. E. Knox, J. B. Cross, 
 V. Bakken, C. Adamo, J. Jaramillo, R. Gomperts, R. E. Stratmann, 
 O. Yazyev, A. J. Austin, R. Cammi, C. Pomelli, J. W. Ochterski, 
 R. L. Martin, K. Morokuma, V. G. Zakrzewski, G. A. Voth, 
 P. Salvador, J. J. Dannenberg, S. Dapprich, A. D. Daniels, 
 O. Farkas, J. B. Foresman, J. V. Ortiz, J. Cioslowski, 
 and D. J. Fox, Gaussian, Inc., Wallingford CT, 2013.
 
 ******************************************
 Gaussian 09:  IA32W-G09RevD.01 24-Apr-2013
                27-Mar-2025 
 ******************************************
 %chk=ethyl_propiolate.chk
 %nprocshared=4
 Will use up to    4 processors via shared memory.
 %mem=1700MB
 --------------------------
 # freq 6-311++g(d,p) m062x
 --------------------------
 1/10=4,30=1,38=1/1,3;
 2/12=2,17=6,18=5,40=1/2;
 3/5=4,6=6,7=1111,11=2,16=1,25=1,30=1,71=2,74=-55,140=1/1,2,3;
 4//1;
 5/5=2,38=5,98=1/2;
 8/6=4,10=90,11=11/1;
 11/6=1,8=1,9=11,15=111,16=1/1,2,10;
 10/6=1/2;
 6/7=2,8=2,9=2,10=2,18=1,28=1/1;
 7/8=1,10=1,25=1/1,2,3,16;
 1/10=4,30=1/3;
 99//99;
 -------------------
 Title Card Required
 -------------------
 Symbolic Z-matrix:
 Charge =  0 Multiplicity = 2
 C                     2.17428  -0.40836  -0.06053 
 H                     3.61493  -0.97911  -0.20157 
 C                     1.06898   0.0715   -0.0163 
 C                    -0.2826    0.61416  -0.0046 
 O                    -0.51739   1.78961   0.01225 
 O                    -1.19328  -0.35426  -0.01021 
 C                    -2.56653   0.08424   0.00858 
 C                    -3.42727  -1.15722  -0.0041 
 H                    -2.72364   0.68909   0.904 
 H                    -2.73928   0.71851  -0.86329 
 H                    -3.23716  -1.74627  -0.90202 
 H                    -3.22006  -1.77608   0.86965 
 H                    -4.48104  -0.87398   0.01062 
 O                     4.5026   -0.60306   0.09138 
 H                     4.59208   0.23233  -0.38432 
 

 GradGradGradGradGradGradGradGradGradGradGradGradGradGradGradGradGradGrad
 Berny optimization.
 Initialization pass.
 Trust Radius=3.00D-01 FncErr=1.00D-07 GrdErr=1.00D-07
 Number of steps in this run=      2 maximum allowed number of steps=      2.
 GradGradGradGradGradGradGradGradGradGradGradGradGradGradGradGradGradGrad

                          Input orientation:                          
 ---------------------------------------------------------------------
 Center     Atomic      Atomic             Coordinates (Angstroms)
 Number     Number       Type             X           Y           Z
 ---------------------------------------------------------------------
      1          6           0        2.174282   -0.408355   -0.060534
      2          1           0        3.614928   -0.979111   -0.201565
      3          6           0        1.068984    0.071496   -0.016298
      4          6           0       -0.282602    0.614156   -0.004597
      5          8           0       -0.517394    1.789611    0.012249
      6          8           0       -1.193278   -0.354260   -0.010206
      7          6           0       -2.566529    0.084241    0.008576
      8          6           0       -3.427269   -1.157219   -0.004097
      9          1           0       -2.723638    0.689088    0.903998
     10          1           0       -2.739284    0.718513   -0.863294
     11          1           0       -3.237157   -1.746274   -0.902024
     12          1           0       -3.220063   -1.776083    0.869650
     13          1           0       -4.481044   -0.873980    0.010620
     14          8           0        4.502602   -0.603062    0.091384
     15          1           0        4.592081    0.232328   -0.384322
 ---------------------------------------------------------------------
                    Distance matrix (angstroms):
                    1          2          3          4          5
     1  C    0.000000
     2  H    1.555993   0.000000
     3  C    1.205777   2.760422   0.000000
     4  C    2.661754   4.215215   1.456503   0.000000
     5  O    3.475841   4.978717   2.338660   1.198793   0.000000
     6  O    3.368370   4.852412   2.301985   1.329358   2.248001
     7  C    4.766835   6.275770   3.635620   2.344633   2.665943
     8  C    5.651668   7.047216   4.661135   3.609252   4.141431
     9  H    5.111196   6.646998   3.951246   2.605728   2.621808
    10  H    5.104644   6.610282   3.954610   2.604522   2.617369
    11  H    5.637535   6.930386   4.757273   3.886695   4.553624
    12  H    5.642241   6.964177   4.753354   3.886673   4.555626
    13  H    6.671974   8.099434   5.630050   4.454402   4.775483
    14  O    2.341381   1.007570   3.500908   4.938523   5.561610
    15  H    2.522115   1.567103   3.545916   4.904337   5.356224
                    6          7          8          9         10
     6  O    0.000000
     7  C    1.441685   0.000000
     8  C    2.373920   1.510714   0.000000
     9  H    2.065513   1.091927   2.174530   0.000000
    10  H    2.066092   1.091926   2.174836   1.767606   0.000000
    11  H    2.628780   2.151678   1.090597   3.075127   2.514866
    12  H    2.627467   2.151595   1.090578   2.514893   3.075265
    13  H    3.328656   2.140925   1.091276   2.515906   2.516642
    14  O    5.702216   7.102947   7.949784   7.385698   7.423132
    15  H    5.827043   7.170913   8.147723   7.442321   7.363063
                   11         12         13         14         15
    11  H    0.000000
    12  H    1.772007   0.000000
    13  H    1.772307   1.772511   0.000000
    14  O    7.886549   7.849919   8.988093   0.000000
    15  H    8.091962   8.163073   9.148852   0.965494   0.000000
 Stoichiometry    C5H7O3(2)
 Framework group  C1[X(C5H7O3)]
 Deg. of freedom    39
 Full point group                 C1      NOp   1
 Largest Abelian subgroup         C1      NOp   1
 Largest concise Abelian subgroup C1      NOp   1
                         Standard orientation:                         
 ---------------------------------------------------------------------
 Center     Atomic      Atomic             Coordinates (Angstroms)
 Number     Number       Type             X           Y           Z
 ---------------------------------------------------------------------
      1          6           0        2.241142   -0.376126   -0.054835
      2          1           0        3.682326   -0.945773   -0.194855
      3          6           0        1.135417    0.102813   -0.011414
      4          6           0       -0.216640    0.644318   -0.000668
      5          8           0       -0.452451    1.819586    0.014987
      6          8           0       -1.126479   -0.324888   -0.005656
      7          6           0       -2.500114    0.112447    0.012262
      8          6           0       -3.359779   -1.129766    0.000485
      9          1           0       -2.658037    0.718006    0.907059
     10          1           0       -2.673131    0.745743   -0.860265
     11          1           0       -3.168866   -1.719508   -0.896821
     12          1           0       -3.152326   -1.747623    0.874886
     13          1           0       -4.413803   -0.847422    0.014590
     14          8           0        4.569579   -0.568682    0.098027
     15          1           0        4.658494    0.266334   -0.378441
 ---------------------------------------------------------------------
 Rotational constants (GHZ):      5.3632841      0.6856277      0.6131145
 Standard basis: 6-311++G(d,p) (5D, 7F)
 There are   233 symmetry adapted cartesian basis functions of A   symmetry.
 There are   225 symmetry adapted basis functions of A   symmetry.
   225 basis functions,   351 primitive gaussians,   233 cartesian basis functions
    31 alpha electrons       30 beta electrons
       nuclear repulsion energy       330.9599795292 Hartrees.
 NAtoms=   15 NActive=   15 NUniq=   15 SFac= 1.00D+00 NAtFMM=   60 NAOKFM=F Big=F
 Integral buffers will be    262144 words long.
 Raffenetti 2 integral format.
 Two-electron integral symmetry is turned on.
 One-electron integrals computed using PRISM.
 NBasis=   225 RedAO= T EigKep=  4.03D-06  NBF=   225
 NBsUse=   224 1.00D-06 EigRej=  3.36D-07 NBFU=   224
 ExpMin= 3.60D-02 ExpMax= 8.59D+03 ExpMxC= 1.30D+03 IAcc=3 IRadAn=         5 AccDes= 0.00D+00
 Harris functional with IExCor= 1009 and IRadAn=       5 diagonalized for initial guess.
 HarFok:  IExCor= 1009 AccDes= 0.00D+00 IRadAn=         5 IDoV= 1 UseB2=F ITyADJ=14
 ICtDFT=  3500011 ScaDFX=  1.000000  1.000000  1.000000  1.000000
 FoFCou: FMM=F IPFlag=           0 FMFlag=      100000 FMFlg1=           0
         NFxFlg=           0 DoJE=T BraDBF=F KetDBF=T FulRan=T
         wScrn=  0.000000 ICntrl=     500 IOpCl=  0 I1Cent=   200000004 NGrid=           0
         NMat0=    1 NMatS0=      1 NMatT0=    0 NMatD0=    1 NMtDS0=    0 NMtDT0=    0
 Petite list used in FoFCou.
 Initial guess <Sx>= 0.0000 <Sy>= 0.0000 <Sz>= 0.5000 <S**2>= 0.7500 S= 0.5000
 Requested convergence on RMS density matrix=1.00D-08 within 128 cycles.
 Requested convergence on MAX density matrix=1.00D-06.
 Requested convergence on             energy=1.00D-06.
 No special actions if energy rises.
 Restarting incremental Fock formation.
 SCF Done:  E(UM062X) =  -420.175329443     A.U. after   24 cycles
            NFock= 24  Conv=0.31D-08     -V/T= 2.0032
 <Sx>= 0.0000 <Sy>= 0.0000 <Sz>= 0.5000 <S**2>= 0.7700 S= 0.5099
 <L.S>= 0.000000000000E+00
 Annihilation of the first spin contaminant:
 S**2 before annihilation     0.7700,   after     0.7503
 DoSCS=F DFT=T ScalE2(SS,OS)=  1.000000  1.000000
 Range of M.O.s used for correlation:     1   224
 NBasis=   225 NAE=    31 NBE=    30 NFC=     0 NFV=     0
 NROrb=    224 NOA=    31 NOB=    30 NVA=   193 NVB=   194

 **** Warning!!: The largest alpha MO coefficient is  0.14268667D+03


 **** Warning!!: The largest beta MO coefficient is  0.14743062D+03

 Symmetrizing basis deriv contribution to polar:
 IMax=3 JMax=2 DiffMx= 0.00D+00
 G2DrvN: will do    16 centers at a time, making    1 passes.
 Calling FoFCou, ICntrl=  3107 FMM=F I1Cent=   0 AccDes= 0.00D+00.
 End of G2Drv F.D. properties file   721 does not exist.
 End of G2Drv F.D. properties file   722 does not exist.
 End of G2Drv F.D. properties file   788 does not exist.
          IDoAtm=111111111111111
          Differentiating once with respect to electric field.
                with respect to dipole field.
          Differentiating once with respect to nuclear coordinates.
          There are    48 degrees of freedom in the 1st order CPHF.  IDoFFX=6 NUNeed=     3.
     47 vectors produced by pass  0 Test12= 2.46D-14 2.08D-09 XBig12= 1.34D+02 4.23D+00.
 AX will form    47 AO Fock derivatives at one time.
     45 vectors produced by pass  1 Test12= 2.46D-14 2.08D-09 XBig12= 2.79D+01 1.15D+00.
     45 vectors produced by pass  2 Test12= 2.46D-14 2.08D-09 XBig12= 1.43D+00 1.70D-01.
     45 vectors produced by pass  3 Test12= 2.46D-14 2.08D-09 XBig12= 2.41D-02 3.42D-02.
     45 vectors produced by pass  4 Test12= 2.46D-14 2.08D-09 XBig12= 4.49D-04 3.72D-03.
     45 vectors produced by pass  5 Test12= 2.46D-14 2.08D-09 XBig12= 5.41D-06 3.11D-04.
     39 vectors produced by pass  6 Test12= 2.46D-14 2.08D-09 XBig12= 5.19D-08 1.82D-05.
     21 vectors produced by pass  7 Test12= 2.46D-14 2.08D-09 XBig12= 3.97D-10 1.99D-06.
      6 vectors produced by pass  8 Test12= 2.46D-14 2.08D-09 XBig12= 4.00D-12 1.98D-07.
      6 vectors produced by pass  9 Test12= 2.46D-14 2.08D-09 XBig12= 7.41D-14 3.54D-08.
      6 vectors produced by pass 10 Test12= 2.46D-14 2.08D-09 XBig12= 3.06D-14 3.21D-08.
      5 vectors produced by pass 11 Test12= 2.46D-14 2.08D-09 XBig12= 2.04D-15 5.09D-09.
      5 vectors produced by pass 12 Test12= 2.46D-14 2.08D-09 XBig12= 1.13D-15 4.32D-09.
      5 vectors produced by pass 13 Test12= 2.46D-14 2.08D-09 XBig12= 7.09D-16 3.72D-09.
      5 vectors produced by pass 14 Test12= 2.46D-14 2.08D-09 XBig12= 7.48D-16 3.89D-09.
      3 vectors produced by pass 15 Test12= 2.46D-14 2.08D-09 XBig12= 5.05D-16 2.91D-09.
      1 vectors produced by pass 16 Test12= 2.46D-14 2.08D-09 XBig12= 5.71D-16 2.30D-09.
 InvSVY:  IOpt=1 It=  1 EMax= 8.88D-15
 Solved reduced A of dimension   374 with    48 vectors.
 Isotropic polarizability for W=    0.000000       85.67 Bohr**3.
 End of Minotr F.D. properties file   721 does not exist.
 End of Minotr F.D. properties file   722 does not exist.
 End of Minotr F.D. properties file   788 does not exist.

 **********************************************************************

            Population analysis using the SCF density.

 **********************************************************************

 Orbital symmetries:
 Alpha Orbitals:
       Occupied  (A) (A) (A) (A) (A) (A) (A) (A) (A) (A) (A) (A)
                 (A) (A) (A) (A) (A) (A) (A) (A) (A) (A) (A) (A)
                 (A) (A) (A) (A) (A) (A) (A)
       Virtual   (A) (A) (A) (A) (A) (A) (A) (A) (A) (A) (A) (A)
                 (A) (A) (A) (A) (A) (A) (A) (A) (A) (A) (A) (A)
                 (A) (A) (A) (A) (A) (A) (A) (A) (A) (A) (A) (A)
                 (A) (A) (A) (A) (A) (A) (A) (A) (A) (A) (A) (A)
                 (A) (A) (A) (A) (A) (A) (A) (A) (A) (A) (A) (A)
                 (A) (A) (A) (A) (A) (A) (A) (A) (A) (A) (A) (A)
                 (A) (A) (A) (A) (A) (A) (A) (A) (A) (A) (A) (A)
                 (A) (A) (A) (A) (A) (A) (A) (A) (A) (A) (A) (A)
                 (A) (A) (A) (A) (A) (A) (A) (A) (A) (A) (A) (A)
                 (A) (A) (A) (A) (A) (A) (A) (A) (A) (A) (A) (A)
                 (A) (A) (A) (A) (A) (A) (A) (A) (A) (A) (A) (A)
                 (A) (A) (A) (A) (A) (A) (A) (A) (A) (A) (A) (A)
                 (A) (A) (A) (A) (A) (A) (A) (A) (A) (A) (A) (A)
                 (A) (A) (A) (A) (A) (A) (A) (A) (A) (A) (A) (A)
                 (A) (A) (A) (A) (A) (A) (A) (A) (A) (A) (A) (A)
                 (A) (A) (A) (A) (A) (A) (A) (A) (A) (A) (A) (A)
                 (A)
 Beta  Orbitals:
       Occupied  (A) (A) (A) (A) (A) (A) (A) (A) (A) (A) (A) (A)
                 (A) (A) (A) (A) (A) (A) (A) (A) (A) (A) (A) (A)
                 (A) (A) (A) (A) (A) (A)
       Virtual   (A) (A) (A) (A) (A) (A) (A) (A) (A) (A) (A) (A)
                 (A) (A) (A) (A) (A) (A) (A) (A) (A) (A) (A) (A)
                 (A) (A) (A) (A) (A) (A) (A) (A) (A) (A) (A) (A)
                 (A) (A) (A) (A) (A) (A) (A) (A) (A) (A) (A) (A)
                 (A) (A) (A) (A) (A) (A) (A) (A) (A) (A) (A) (A)
                 (A) (A) (A) (A) (A) (A) (A) (A) (A) (A) (A) (A)
                 (A) (A) (A) (A) (A) (A) (A) (A) (A) (A) (A) (A)
                 (A) (A) (A) (A) (A) (A) (A) (A) (A) (A) (A) (A)
                 (A) (A) (A) (A) (A) (A) (A) (A) (A) (A) (A) (A)
                 (A) (A) (A) (A) (A) (A) (A) (A) (A) (A) (A) (A)
                 (A) (A) (A) (A) (A) (A) (A) (A) (A) (A) (A) (A)
                 (A) (A) (A) (A) (A) (A) (A) (A) (A) (A) (A) (A)
                 (A) (A) (A) (A) (A) (A) (A) (A) (A) (A) (A) (A)
                 (A) (A) (A) (A) (A) (A) (A) (A) (A) (A) (A) (A)
                 (A) (A) (A) (A) (A) (A) (A) (A) (A) (A) (A) (A)
                 (A) (A) (A) (A) (A) (A) (A) (A) (A) (A) (A) (A)
                 (A) (A)
 The electronic state is 2-A.
 Alpha  occ. eigenvalues --  -19.68988 -19.68023 -19.63902 -10.71276 -10.61132
 Alpha  occ. eigenvalues --  -10.60736 -10.57917 -10.54456  -1.26446  -1.18570
 Alpha  occ. eigenvalues --   -1.17106  -0.91413  -0.88067  -0.78017  -0.70360
 Alpha  occ. eigenvalues --   -0.67333  -0.65384  -0.59827  -0.58254  -0.55383
 Alpha  occ. eigenvalues --   -0.52171  -0.50044  -0.47621  -0.46206  -0.44629
 Alpha  occ. eigenvalues --   -0.44037  -0.42456  -0.40186  -0.39262  -0.38372
 Alpha  occ. eigenvalues --   -0.37192
 Alpha virt. eigenvalues --   -0.02214  -0.00474  -0.00007   0.01933   0.02034
 Alpha virt. eigenvalues --    0.02419   0.03290   0.05044   0.05492   0.06008
 Alpha virt. eigenvalues --    0.06642   0.07417   0.08229   0.09286   0.09909
 Alpha virt. eigenvalues --    0.10886   0.12230   0.12485   0.12643   0.13591
 Alpha virt. eigenvalues --    0.14216   0.14537   0.15331   0.15773   0.16565
 Alpha virt. eigenvalues --    0.17088   0.18023   0.19206   0.20179   0.20353
 Alpha virt. eigenvalues --    0.20512   0.22350   0.22764   0.23279   0.23430
 Alpha virt. eigenvalues --    0.25369   0.26414   0.27126   0.28048   0.29405
 Alpha virt. eigenvalues --    0.30189   0.31218   0.31510   0.32110   0.32256
 Alpha virt. eigenvalues --    0.33589   0.36302   0.37051   0.37747   0.39245
 Alpha virt. eigenvalues --    0.42468   0.43407   0.45442   0.47266   0.49504
 Alpha virt. eigenvalues --    0.52612   0.54230   0.56229   0.57195   0.58291
 Alpha virt. eigenvalues --    0.61107   0.63237   0.64581   0.67989   0.68867
 Alpha virt. eigenvalues --    0.68989   0.69188   0.70067   0.70914   0.72761
 Alpha virt. eigenvalues --    0.74272   0.74876   0.76760   0.80893   0.81711
 Alpha virt. eigenvalues --    0.89744   0.90134   0.93623   0.97603   1.01638
 Alpha virt. eigenvalues --    1.03010   1.04940   1.06466   1.11732   1.15353
 Alpha virt. eigenvalues --    1.15813   1.16576   1.18190   1.18343   1.21527
 Alpha virt. eigenvalues --    1.22773   1.23536   1.28792   1.29433   1.30216
 Alpha virt. eigenvalues --    1.31294   1.33927   1.38093   1.39326   1.44843
 Alpha virt. eigenvalues --    1.49292   1.49551   1.50691   1.55746   1.57612
 Alpha virt. eigenvalues --    1.57678   1.60493   1.61004   1.61795   1.62385
 Alpha virt. eigenvalues --    1.63334   1.66176   1.68873   1.70410   1.71185
 Alpha virt. eigenvalues --    1.76282   1.77027   1.83043   1.85085   1.89521
 Alpha virt. eigenvalues --    1.92129   1.95682   2.01397   2.03113   2.09583
 Alpha virt. eigenvalues --    2.12632   2.14899   2.19915   2.25105   2.27138
 Alpha virt. eigenvalues --    2.35382   2.38424   2.42743   2.48653   2.50389
 Alpha virt. eigenvalues --    2.51165   2.54005   2.58220   2.62015   2.63902
 Alpha virt. eigenvalues --    2.65197   2.66891   2.70170   2.71185   2.79517
 Alpha virt. eigenvalues --    2.80283   2.80733   2.87343   2.89105   2.96224
 Alpha virt. eigenvalues --    2.96946   2.99135   3.02545   3.04124   3.08698
 Alpha virt. eigenvalues --    3.11965   3.13852   3.17659   3.27396   3.28168
 Alpha virt. eigenvalues --    3.29765   3.35140   3.37744   3.43037   3.54881
 Alpha virt. eigenvalues --    3.64843   3.70404   3.73676   3.83366   3.85097
 Alpha virt. eigenvalues --    3.85146   3.89110   4.00312   4.10116   4.13084
 Alpha virt. eigenvalues --    4.29495   5.09872   5.11004   5.15516   5.31622
 Alpha virt. eigenvalues --    5.39727   5.44924   5.65031   5.72918   5.94035
 Alpha virt. eigenvalues --   23.42963  23.91611  23.93763  24.04882  24.92875
 Alpha virt. eigenvalues --   49.94865  49.99600  50.10173
  Beta  occ. eigenvalues --  -19.68999 -19.67301 -19.63898 -10.71255 -10.61133
  Beta  occ. eigenvalues --  -10.59567 -10.57800 -10.54456  -1.26452  -1.17105
  Beta  occ. eigenvalues --   -1.15929  -0.90863  -0.86870  -0.77316  -0.69871
  Beta  occ. eigenvalues --   -0.65676  -0.64022  -0.59869  -0.58225  -0.52229
  Beta  occ. eigenvalues --   -0.50954  -0.49831  -0.47606  -0.44658  -0.44013
  Beta  occ. eigenvalues --   -0.42946  -0.39605  -0.39363  -0.36847  -0.36273
  Beta virt. eigenvalues --   -0.15937  -0.01066  -0.00406   0.00311   0.01952
  Beta virt. eigenvalues --    0.02035   0.02591   0.03551   0.05485   0.06053
  Beta virt. eigenvalues --    0.06296   0.06709   0.07642   0.08324   0.09237
  Beta virt. eigenvalues --    0.10045   0.11046   0.12369   0.12576   0.12838
  Beta virt. eigenvalues --    0.13610   0.14381   0.14641   0.15606   0.15981
  Beta virt. eigenvalues --    0.16636   0.17409   0.18141   0.19337   0.20223
  Beta virt. eigenvalues --    0.20393   0.20668   0.22315   0.22828   0.23299
  Beta virt. eigenvalues --    0.23487   0.25341   0.26458   0.27182   0.28199
  Beta virt. eigenvalues --    0.29750   0.30295   0.31363   0.31648   0.32233
  Beta virt. eigenvalues --    0.32604   0.33683   0.36455   0.37211   0.37863
  Beta virt. eigenvalues --    0.39414   0.42622   0.43555   0.45444   0.47734
  Beta virt. eigenvalues --    0.49830   0.52620   0.54414   0.56389   0.57572
  Beta virt. eigenvalues --    0.58723   0.61369   0.63577   0.65073   0.68003
  Beta virt. eigenvalues --    0.68883   0.68990   0.69267   0.70046   0.71088
  Beta virt. eigenvalues --    0.72724   0.74372   0.76344   0.79048   0.80970
  Beta virt. eigenvalues --    0.81884   0.89720   0.90143   0.93846   0.98555
  Beta virt. eigenvalues --    1.01801   1.03108   1.05267   1.07115   1.12519
  Beta virt. eigenvalues --    1.15636   1.16629   1.17287   1.18494   1.18879
  Beta virt. eigenvalues --    1.21816   1.22960   1.23697   1.28808   1.29674
  Beta virt. eigenvalues --    1.31014   1.31406   1.34088   1.38521   1.39947
  Beta virt. eigenvalues --    1.45496   1.49551   1.49872   1.50930   1.56223
  Beta virt. eigenvalues --    1.57626   1.57710   1.60784   1.61727   1.62071
  Beta virt. eigenvalues --    1.63488   1.64322   1.66401   1.68865   1.70455
  Beta virt. eigenvalues --    1.71384   1.76307   1.77016   1.83541   1.85188
  Beta virt. eigenvalues --    1.89527   1.92328   1.96201   2.01400   2.03410
  Beta virt. eigenvalues --    2.09836   2.12685   2.15288   2.19925   2.25641
  Beta virt. eigenvalues --    2.27238   2.35443   2.38838   2.43522   2.48659
  Beta virt. eigenvalues --    2.50361   2.50735   2.54002   2.58222   2.62043
  Beta virt. eigenvalues --    2.63990   2.65215   2.66990   2.69462   2.70888
  Beta virt. eigenvalues --    2.80297   2.81182   2.81461   2.87703   2.89224
  Beta virt. eigenvalues --    2.96086   2.96931   3.00317   3.04346   3.04711
  Beta virt. eigenvalues --    3.09539   3.11951   3.14859   3.18321   3.27397
  Beta virt. eigenvalues --    3.28593   3.30528   3.35492   3.38233   3.42979
  Beta virt. eigenvalues --    3.56747   3.64957   3.70816   3.74592   3.83362
  Beta virt. eigenvalues --    3.85097   3.85148   3.90335   4.00617   4.10133
  Beta virt. eigenvalues --    4.13081   4.29494   5.10928   5.11835   5.15444
  Beta virt. eigenvalues --    5.31681   5.41911   5.44918   5.66267   5.72884
  Beta virt. eigenvalues --    5.94024  23.43751  23.91619  23.93790  24.04882
  Beta virt. eigenvalues --   24.93852  49.94131  49.99603  50.10183
          Condensed to atoms (all electrons):
               1          2          3          4          5          6
     1  C    6.273281   0.039677  -1.675158   2.033936  -0.091612  -0.070264
     2  H    0.039677   0.331310  -0.133968   0.084134  -0.000356  -0.000451
     3  C   -1.675158  -0.133968  16.696232  -9.257312   0.335295  -0.225567
     4  C    2.033936   0.084134  -9.257312  13.488260   0.113500  -0.025132
     5  O   -0.091612  -0.000356   0.335295   0.113500   8.036168  -0.127448
     6  O   -0.070264  -0.000451  -0.225567  -0.025132  -0.127448   8.428497
     7  C    0.054660   0.002379  -0.558867   0.076740  -0.036558   0.278238
     8  C    0.055613   0.000724  -0.365635   0.318299   0.010071  -0.187146
     9  H   -0.000965   0.000003   0.003027  -0.009355  -0.012315  -0.036141
    10  H   -0.000942   0.000056   0.001983  -0.007253  -0.012151  -0.036075
    11  H   -0.001375  -0.000036   0.013617  -0.006694  -0.001099  -0.009332
    12  H   -0.000921  -0.000049   0.010528  -0.003494  -0.001249  -0.009757
    13  H   -0.000429   0.000004   0.001400  -0.002445   0.001662   0.024026
    14  O   -0.006365   0.320397  -0.031001   0.019078  -0.000001   0.000194
    15  H    0.027444  -0.041133  -0.003418   0.005247  -0.000101  -0.000035
               7          8          9         10         11         12
     1  C    0.054660   0.055613  -0.000965  -0.000942  -0.001375  -0.000921
     2  H    0.002379   0.000724   0.000003   0.000056  -0.000036  -0.000049
     3  C   -0.558867  -0.365635   0.003027   0.001983   0.013617   0.010528
     4  C    0.076740   0.318299  -0.009355  -0.007253  -0.006694  -0.003494
     5  O   -0.036558   0.010071  -0.012315  -0.012151  -0.001099  -0.001249
     6  O    0.278238  -0.187146  -0.036141  -0.036075  -0.009332  -0.009757
     7  C    5.502538   0.089530   0.433087   0.429996  -0.025810  -0.029548
     8  C    0.089530   5.608017  -0.057012  -0.054737   0.389993   0.393977
     9  H    0.433087  -0.057012   0.534620  -0.051887   0.006852  -0.009823
    10  H    0.429996  -0.054737  -0.051887   0.536709  -0.010034   0.006870
    11  H   -0.025810   0.389993   0.006852  -0.010034   0.538070  -0.038561
    12  H   -0.029548   0.393977  -0.009823   0.006870  -0.038561   0.536484
    13  H   -0.044164   0.403922  -0.004294  -0.004377  -0.032359  -0.032298
    14  O    0.000114   0.000091   0.000011  -0.000003  -0.000004   0.000003
    15  H   -0.000104  -0.000011   0.000005  -0.000006   0.000000   0.000002
              13         14         15
     1  C   -0.000429  -0.006365   0.027444
     2  H    0.000004   0.320397  -0.041133
     3  C    0.001400  -0.031001  -0.003418
     4  C   -0.002445   0.019078   0.005247
     5  O    0.001662  -0.000001  -0.000101
     6  O    0.024026   0.000194  -0.000035
     7  C   -0.044164   0.000114  -0.000104
     8  C    0.403922   0.000091  -0.000011
     9  H   -0.004294   0.000011   0.000005
    10  H   -0.004377  -0.000003  -0.000006
    11  H   -0.032359  -0.000004   0.000000
    12  H   -0.032298   0.000003   0.000002
    13  H    0.523333   0.000000  -0.000001
    14  O    0.000000   7.726392   0.298977
    15  H   -0.000001   0.298977   0.438629
          Atomic-Atomic Spin Densities.
               1          2          3          4          5          6
     1  C    0.845678  -0.032902  -0.130902   0.127818   0.002925   0.004235
     2  H   -0.032902  -0.018720  -0.019205   0.015163   0.000042  -0.000004
     3  C   -0.130902  -0.019205   1.337416  -0.960211  -0.017873   0.007670
     4  C    0.127818   0.015163  -0.960211   0.633666   0.016182  -0.005560
     5  O    0.002925   0.000042  -0.017873   0.016182  -0.003504   0.003088
     6  O    0.004235  -0.000004   0.007670  -0.005560   0.003088  -0.010084
     7  C   -0.001358  -0.000244   0.005224   0.002303  -0.000356   0.000017
     8  C    0.011630   0.000225  -0.062079   0.038519  -0.000656   0.001565
     9  H   -0.000682  -0.000015   0.004780  -0.002701   0.000276  -0.000422
    10  H   -0.000437  -0.000012   0.002711  -0.001441   0.000170  -0.000278
    11  H   -0.000122  -0.000004   0.000855  -0.000419   0.000000  -0.000005
    12  H   -0.000005   0.000000   0.000285  -0.000158   0.000005  -0.000053
    13  H   -0.000170  -0.000003   0.001352  -0.000638   0.000035  -0.000090
    14  O   -0.086642   0.016661  -0.055349   0.029095   0.000108   0.000055
    15  H   -0.001719   0.001248   0.002423  -0.002259  -0.000039  -0.000002
               7          8          9         10         11         12
     1  C   -0.001358   0.011630  -0.000682  -0.000437  -0.000122  -0.000005
     2  H   -0.000244   0.000225  -0.000015  -0.000012  -0.000004   0.000000
     3  C    0.005224  -0.062079   0.004780   0.002711   0.000855   0.000285
     4  C    0.002303   0.038519  -0.002701  -0.001441  -0.000419  -0.000158
     5  O   -0.000356  -0.000656   0.000276   0.000170   0.000000   0.000005
     6  O    0.000017   0.001565  -0.000422  -0.000278  -0.000005  -0.000053
     7  C    0.000983  -0.010474   0.000218   0.000184   0.000356   0.000248
     8  C   -0.010474   0.024533  -0.001368  -0.000590  -0.000666  -0.000327
     9  H    0.000218  -0.001368  -0.000461   0.000231  -0.000026   0.000053
    10  H    0.000184  -0.000590   0.000231  -0.000575   0.000055  -0.000024
    11  H    0.000356  -0.000666  -0.000026   0.000055  -0.000100   0.000050
    12  H    0.000248  -0.000327   0.000053  -0.000024   0.000050  -0.000054
    13  H    0.000910  -0.001598   0.000030   0.000024   0.000040   0.000011
    14  O    0.000228   0.000047   0.000002   0.000001   0.000001   0.000000
    15  H    0.000003  -0.000020   0.000001   0.000001   0.000000   0.000000
              13         14         15
     1  C   -0.000170  -0.086642  -0.001719
     2  H   -0.000003   0.016661   0.001248
     3  C    0.001352  -0.055349   0.002423
     4  C   -0.000638   0.029095  -0.002259
     5  O    0.000035   0.000108  -0.000039
     6  O   -0.000090   0.000055  -0.000002
     7  C    0.000910   0.000228   0.000003
     8  C   -0.001598   0.000047  -0.000020
     9  H    0.000030   0.000002   0.000001
    10  H    0.000024   0.000001   0.000001
    11  H    0.000040   0.000001   0.000000
    12  H    0.000011   0.000000   0.000000
    13  H    0.000112  -0.000001   0.000000
    14  O   -0.000001   0.394902   0.005253
    15  H    0.000000   0.005253  -0.012811
 Mulliken charges and spin densities:
               1          2
     1  C   -0.636581   0.737350
     2  H    0.397309  -0.037769
     3  C    1.188843   0.117099
     4  C   -0.827508  -0.110641
     5  O   -0.213807   0.000404
     6  O   -0.003608   0.000132
     7  C   -0.172231  -0.001757
     8  C   -0.605696  -0.001258
     9  H    0.204186  -0.000084
    10  H    0.201850   0.000021
    11  H    0.176769   0.000015
    12  H    0.177835   0.000032
    13  H    0.166018   0.000017
    14  O   -0.327882   0.304360
    15  H    0.274503  -0.007919
 Sum of Mulliken charges =   0.00000   1.00000
 Mulliken charges and spin densities with hydrogens summed into heavy atoms:
               1          2
     1  C   -0.636581   0.737350
     3  C    1.188843   0.117099
     4  C   -0.827508  -0.110641
     5  O   -0.213807   0.000404
     6  O   -0.003608   0.000132
     7  C    0.233805  -0.001821
     8  C   -0.085073  -0.001194
    14  O    0.343930   0.258672
 APT charges:
               1
     1  C    0.049652
     2  H   -0.020519
     3  C   -0.159535
     4  C    1.639593
     5  O   -0.869089
     6  O   -1.041552
     7  C    0.581539
     8  C   -0.001745
     9  H   -0.031251
    10  H   -0.031906
    11  H    0.014113
    12  H    0.014478
    13  H    0.006618
    14  O   -0.460687
    15  H    0.310291
 Sum of APT charges =   0.00000
 APT charges with hydrogens summed into heavy atoms:
               1
     1  C    0.049652
     3  C   -0.159535
     4  C    1.639593
     5  O   -0.869089
     6  O   -1.041552
     7  C    0.518382
     8  C    0.033464
    14  O   -0.170915
 Electronic spatial extent (au):  <R**2>=           1762.2965
 Charge=              0.0000 electrons
 Dipole moment (field-independent basis, Debye):
    X=             -1.6071    Y=             -0.6263    Z=             -1.1159  Tot=              2.0543
 Quadrupole moment (field-independent basis, Debye-Ang):
   XX=            -38.7313   YY=            -53.7177   ZZ=            -47.3405
   XY=              5.5797   XZ=             -5.4295   YZ=             -0.0815
 Traceless Quadrupole moment (field-independent basis, Debye-Ang):
   XX=              7.8652   YY=             -7.1212   ZZ=             -0.7440
   XY=              5.5797   XZ=             -5.4295   YZ=             -0.0815
 Octapole moment (field-independent basis, Debye-Ang**2):
  XXX=            -22.5287  YYY=            -10.0806  ZZZ=             -0.1214  XYY=              4.0270
  XXY=             26.8369  XXZ=            -24.6744  XZZ=             -2.0134  YZZ=              1.9757
  YYZ=             -0.2500  XYZ=             -0.1574
 Hexadecapole moment (field-independent basis, Debye-Ang**3):
 XXXX=          -1872.4814 YYYY=           -296.4780 ZZZZ=            -62.0224 XXXY=            139.3379
 XXXZ=           -114.3274 YYYX=             -2.3025 YYYZ=             -0.6460 ZZZX=             -2.0408
 ZZZY=             -0.1804 XXYY=           -361.9070 XXZZ=           -331.7941 YYZZ=            -53.1701
 XXYZ=             -1.9539 YYXZ=             -0.9079 ZZXY=             -0.6684
 N-N= 3.309599795292D+02 E-N=-1.646054410688D+03  KE= 4.188363130660D+02
  Exact polarizability: 139.722 -14.699  68.542  -2.686   0.421  48.755
 Approx polarizability: 116.842 -17.967  84.562  -1.364   0.566  57.394
                          Isotropic Fermi Contact Couplings
        Atom                 a.u.       MegaHertz       Gauss      10(-4) cm-1
     1  C(13)              0.78123     878.24827     313.38081     292.95209
     2  H(1)              -0.02038     -91.11035     -32.51044     -30.39114
     3  C(13)              0.12441     139.85993      49.90550      46.65225
     4  C(13)              0.01294      14.54524       5.19010       4.85177
     5  O(17)             -0.00117       0.71026       0.25344       0.23692
     6  O(17)             -0.00804       4.87281       1.73874       1.62539
     7  C(13)             -0.00061      -0.68844      -0.24565      -0.22964
     8  C(13)             -0.00002      -0.02285      -0.00815      -0.00762
     9  H(1)              -0.00010      -0.44359      -0.15828      -0.14797
    10  H(1)              -0.00006      -0.25220      -0.08999      -0.08412
    11  H(1)               0.00000       0.00079       0.00028       0.00026
    12  H(1)               0.00001       0.02282       0.00814       0.00761
    13  H(1)              -0.00001      -0.04975      -0.01775      -0.01659
    14  O(17)              0.05190     -31.46260     -11.22664     -10.49479
    15  H(1)              -0.00521     -23.28430      -8.30842      -7.76681
 --------------------------------------------------------
       Center         ----  Spin Dipole Couplings  ----
                      3XX-RR        3YY-RR        3ZZ-RR
 --------------------------------------------------------
     1   Atom        0.533539     -0.266204     -0.267335
     2   Atom        0.141765     -0.053071     -0.088693
     3   Atom        0.105877      0.032738     -0.138614
     4   Atom        0.014066     -0.007918     -0.006148
     5   Atom        0.078142     -0.000681     -0.077461
     6   Atom        0.005735      0.009375     -0.015109
     7   Atom        0.000548     -0.000107     -0.000441
     8   Atom        0.001012     -0.000552     -0.000461
     9   Atom        0.001284     -0.000606     -0.000678
    10   Atom        0.001287     -0.000597     -0.000690
    11   Atom        0.001045     -0.000522     -0.000523
    12   Atom        0.001029     -0.000523     -0.000506
    13   Atom        0.000672     -0.000344     -0.000328
    14   Atom        1.467792     -0.698170     -0.769622
    15   Atom       -0.006826      0.032140     -0.025314
 --------------------------------------------------------
                        XY            XZ            YZ
 --------------------------------------------------------
     1   Atom       -0.158753      0.053563     -0.018049
     2   Atom        0.032843      0.044917      0.035428
     3   Atom       -0.192561     -0.049233      0.065414
     4   Atom       -0.012187      0.001240     -0.001426
     5   Atom       -0.017217      0.040697     -0.002695
     6   Atom        0.001686      0.002970      0.007515
     7   Atom        0.000041      0.000116     -0.000094
     8   Atom        0.000026     -0.000022     -0.000004
     9   Atom       -0.000383     -0.000315     -0.000069
    10   Atom       -0.000365      0.000248      0.000034
    11   Atom        0.000276      0.000207      0.000018
    12   Atom        0.000276     -0.000227     -0.000026
    13   Atom        0.000030     -0.000009     -0.000002
    14   Atom       -0.399913     -0.086672      0.004971
    15   Atom        0.019855     -0.014544     -0.052505
 --------------------------------------------------------


 ---------------------------------------------------------------------------------
              Anisotropic Spin Dipole Couplings in Principal Axis System
 ---------------------------------------------------------------------------------

       Atom             a.u.   MegaHertz   Gauss  10(-4) cm-1        Axes

              Baa    -0.2987   -40.081   -14.302   -13.369  0.1640  0.9498  0.2666
     1 C(13)  Bbb    -0.2690   -36.093   -12.879   -12.039 -0.1137 -0.2502  0.9615
              Bcc     0.5677    76.174    27.181    25.409  0.9799 -0.1880  0.0669
 
              Baa    -0.1125   -60.038   -21.423   -20.027 -0.0942 -0.4707  0.8772
     2 H(1)   Bbb    -0.0450   -23.986    -8.559    -8.001 -0.2565  0.8629  0.4355
              Bcc     0.1575    84.024    29.982    28.027  0.9619  0.1840  0.2020
 
              Baa    -0.1633   -21.909    -7.818    -7.308 -0.1646 -0.4539  0.8757
     3 C(13)  Bbb    -0.1172   -15.728    -5.612    -5.246  0.6394  0.6269  0.4452
              Bcc     0.2805    37.637    13.430    12.554  0.7511 -0.6332 -0.1871
 
              Baa    -0.0134    -1.802    -0.643    -0.601  0.3986  0.9105  0.1105
     4 C(13)  Bbb    -0.0062    -0.828    -0.296    -0.276 -0.1054 -0.0742  0.9917
              Bcc     0.0196     2.630     0.938     0.877  0.9110 -0.4069  0.0664
 
              Baa    -0.0875     6.331     2.259     2.112 -0.2403 -0.0175  0.9705
     5 O(17)  Bbb    -0.0039     0.284     0.101     0.095  0.1757  0.9825  0.0613
              Bcc     0.0914    -6.615    -2.360    -2.206  0.9547 -0.1853  0.2330
 
              Baa    -0.0175     1.265     0.451     0.422 -0.1037 -0.2620  0.9595
     6 O(17)  Bbb     0.0051    -0.367    -0.131    -0.122  0.9306 -0.3661  0.0007
              Bcc     0.0124    -0.898    -0.320    -0.299  0.3510  0.8930  0.2817
 
              Baa    -0.0005    -0.064    -0.023    -0.022 -0.1189  0.2549  0.9596
     7 C(13)  Bbb    -0.0001    -0.011    -0.004    -0.004 -0.0157  0.9659 -0.2585
              Bcc     0.0006     0.076     0.027     0.025  0.9928  0.0458  0.1108
 
              Baa    -0.0006    -0.074    -0.026    -0.025 -0.0159  0.9989  0.0445
     8 C(13)  Bbb    -0.0005    -0.062    -0.022    -0.021  0.0156 -0.0442  0.9989
              Bcc     0.0010     0.136     0.049     0.045  0.9998  0.0165 -0.0149
 
              Baa    -0.0008    -0.442    -0.158    -0.147  0.2246  0.6194  0.7523
     9 H(1)   Bbb    -0.0006    -0.305    -0.109    -0.102  0.0484  0.7640 -0.6434
              Bcc     0.0014     0.747     0.267     0.249  0.9733 -0.1809 -0.1416
 
              Baa    -0.0008    -0.413    -0.147    -0.138 -0.1959 -0.5603  0.8048
    10 H(1)   Bbb    -0.0006    -0.325    -0.116    -0.108  0.0797  0.8089  0.5826
              Bcc     0.0014     0.738     0.263     0.246  0.9774 -0.1782  0.1138
 
              Baa    -0.0006    -0.309    -0.110    -0.103 -0.2069  0.8409  0.5001
    11 H(1)   Bbb    -0.0005    -0.288    -0.103    -0.096 -0.0223 -0.5151  0.8568
              Bcc     0.0011     0.597     0.213     0.199  0.9781  0.1662  0.1254
 
              Baa    -0.0006    -0.307    -0.109    -0.102 -0.2049  0.9239 -0.3232
    12 H(1)   Bbb    -0.0005    -0.285    -0.102    -0.095  0.0752  0.3441  0.9359
              Bcc     0.0011     0.592     0.211     0.197  0.9759  0.1675 -0.1400
 
              Baa    -0.0003    -0.184    -0.066    -0.061 -0.0279  0.9927  0.1177
    13 H(1)   Bbb    -0.0003    -0.175    -0.062    -0.058  0.0127 -0.1174  0.9930
              Bcc     0.0007     0.359     0.128     0.120  0.9995  0.0292 -0.0093
 
              Baa    -0.7817    56.564    20.184    18.868  0.1423  0.6360  0.7585
    14 O(17)  Bbb    -0.7608    55.049    19.643    18.362  0.1095  0.7514 -0.6506
              Bcc     1.5425  -111.613   -39.826   -37.230  0.9837 -0.1757 -0.0373
 
              Baa    -0.0566   -30.180   -10.769   -10.067  0.0533  0.4998  0.8645
    15 H(1)   Bbb    -0.0144    -7.691    -2.744    -2.565  0.9523 -0.2859  0.1066
              Bcc     0.0710    37.871    13.513    12.633  0.3005  0.8176 -0.4912
 

 ---------------------------------------------------------------------------------

 Calling FoFJK, ICntrl=    100127 FMM=F ISym2X=0 I1Cent= 0 IOpClX= 1 NMat=1 NMatS=1 NMatT=0.
 Full mass-weighted force constant matrix:
 Low frequencies --- -595.6163  -47.1399  -38.1026  -24.4619  -12.0037   -9.6876
 Low frequencies ---    0.0005    0.0006    0.0009
 ******    3 imaginary frequencies (negative Signs) ****** 
 Diagonal vibrational polarizability:
      151.8776829     184.6551962      85.3928773
 Harmonic frequencies (cm**-1), IR intensities (KM/Mole), Raman scattering
 activities (A**4/AMU), depolarization ratios for plane and unpolarized
 incident light, reduced masses (AMU), force constants (mDyne/A),
 and normal coordinates:
                      1                      2                      3
                      A                      A                      A
 Frequencies --   -595.6159               -43.0812               -35.0902
 Red. masses --      1.0493                 4.8884                 8.2947
 Frc consts  --      0.2193                 0.0053                 0.0060
 IR Inten    --     92.4945                 7.4522                 1.5820
  Atom  AN      X      Y      Z        X      Y      Z        X      Y      Z
     1   6    -0.03   0.02   0.02     0.04   0.27  -0.22     0.03   0.24   0.43
     2   1     0.69  -0.52  -0.49    -0.07  -0.19   0.30    -0.12   0.06  -0.04
     3   6    -0.02   0.01   0.01     0.00   0.16  -0.13    -0.02   0.13   0.24
     4   6    -0.01   0.00   0.00    -0.03   0.07  -0.04    -0.05   0.07   0.06
     5   8    -0.01   0.00   0.00    -0.10   0.06   0.03    -0.11   0.06  -0.08
     6   8    -0.01   0.00   0.00     0.03   0.02  -0.03     0.00   0.02   0.06
     7   6     0.00   0.00   0.00     0.00  -0.06   0.08    -0.02  -0.05  -0.14
     8   6     0.00   0.00   0.00     0.07  -0.11   0.04     0.05  -0.10  -0.08
     9   1     0.00   0.00   0.00     0.02  -0.13   0.13    -0.16   0.06  -0.24
    10   1     0.00   0.00   0.00    -0.09  -0.01   0.13     0.04  -0.17  -0.25
    11   1     0.00   0.00   0.00     0.05  -0.04  -0.01     0.19  -0.21   0.02
    12   1     0.00   0.00   0.00     0.16  -0.16  -0.01    -0.02   0.03   0.03
    13   1     0.00   0.00   0.00     0.06  -0.17   0.12     0.03  -0.15  -0.24
    14   8     0.02   0.01   0.02    -0.01  -0.25   0.17     0.11  -0.27  -0.32
    15   1    -0.05  -0.07  -0.11     0.25  -0.52  -0.25     0.12  -0.16  -0.13
                      4                      5                      6
                      A                      A                      A
 Frequencies --     71.3412               101.4909               111.0207
 Red. masses --      2.7965                 4.6885                 2.0085
 Frc consts  --      0.0084                 0.0285                 0.0146
 IR Inten    --      0.5158                 4.9135                19.6867
  Atom  AN      X      Y      Z        X      Y      Z        X      Y      Z
     1   6     0.00  -0.01  -0.01    -0.12  -0.24  -0.09    -0.05  -0.10   0.17
     2   1     0.00   0.02  -0.04    -0.12  -0.19  -0.15    -0.05  -0.21   0.41
     3   6     0.00   0.00   0.00     0.02   0.10   0.05     0.00   0.03  -0.03
     4   6     0.00   0.01   0.01     0.04   0.13   0.07     0.00   0.03  -0.06
     5   8     0.00   0.00   0.17     0.00   0.12  -0.01     0.00   0.03   0.02
     6   8     0.00   0.01  -0.18     0.08   0.09   0.13     0.01   0.03  -0.15
     7   6     0.00   0.00  -0.20     0.05  -0.03  -0.07     0.01  -0.01   0.07
     8   6     0.01  -0.01   0.20     0.20  -0.14  -0.05     0.04  -0.03   0.02
     9   1     0.05   0.25  -0.36    -0.13   0.04  -0.15     0.11  -0.13   0.17
    10   1    -0.06  -0.24  -0.37     0.09  -0.15  -0.16    -0.12   0.10   0.17
    11   1     0.00  -0.29   0.37     0.43  -0.23   0.06    -0.10   0.12  -0.10
    12   1     0.04   0.26   0.38     0.14   0.00   0.06     0.21  -0.16  -0.11
    13   1     0.01  -0.02   0.13     0.16  -0.28  -0.26     0.03  -0.06   0.24
    14   8    -0.01  -0.01   0.01    -0.24  -0.01  -0.01    -0.01   0.04  -0.01
    15   1     0.00   0.03   0.08    -0.30  -0.04  -0.07    -0.14  -0.27  -0.57
                      7                      8                      9
                      A                      A                      A
 Frequencies --    115.0435               205.7295               240.8455
 Red. masses --      1.3815                 5.2271                 2.0149
 Frc consts  --      0.0108                 0.1303                 0.0689
 IR Inten    --     48.3486                87.5384                 5.4530
  Atom  AN      X      Y      Z        X      Y      Z        X      Y      Z
     1   6     0.02   0.02  -0.06     0.16   0.22   0.04    -0.02   0.00  -0.12
     2   1     0.00  -0.19   0.39    -0.20  -0.15  -0.40     0.02   0.03   0.04
     3   6     0.00  -0.02   0.03     0.08   0.00   0.14    -0.02  -0.05   0.21
     4   6     0.00  -0.03   0.05     0.07  -0.08   0.01    -0.01   0.01   0.05
     5   8     0.01  -0.03   0.02     0.01  -0.09  -0.04     0.05   0.02  -0.05
     6   8    -0.01  -0.02   0.08     0.09  -0.11  -0.06    -0.04   0.04  -0.01
     7   6     0.00   0.01  -0.07     0.13  -0.01  -0.01    -0.05   0.01  -0.06
     8   6    -0.04   0.04  -0.03    -0.02   0.09   0.01     0.02  -0.04   0.01
     9   1    -0.07   0.10  -0.14     0.22  -0.02   0.01    -0.07   0.04  -0.08
    10   1     0.09  -0.06  -0.14     0.14   0.03   0.02    -0.07  -0.04  -0.09
    11   1     0.05  -0.07   0.05    -0.30   0.17  -0.10    -0.36   0.18  -0.21
    12   1    -0.16   0.12   0.06     0.07  -0.04  -0.10     0.47  -0.23  -0.23
    13   1    -0.03   0.07  -0.19     0.02   0.24   0.27     0.00  -0.12   0.57
    14   8     0.02   0.06   0.00    -0.38   0.02  -0.02     0.05   0.00   0.00
    15   1     0.00  -0.34  -0.71    -0.24  -0.10  -0.21     0.09  -0.04  -0.06
                     10                     11                     12
                      A                      A                      A
 Frequencies --    251.3802               284.0994               385.6163
 Red. masses --      4.7595                 2.4420                 3.5667
 Frc consts  --      0.1772                 0.1161                 0.3125
 IR Inten    --      8.6644                 4.0135                10.9347
  Atom  AN      X      Y      Z        X      Y      Z        X      Y      Z
     1   6     0.09   0.19   0.06    -0.02  -0.03  -0.11     0.03  -0.02   0.00
     2   1    -0.06  -0.02  -0.10     0.01   0.02   0.01     0.01  -0.03  -0.03
     3   6    -0.08  -0.24  -0.05     0.00   0.01   0.25     0.07   0.10   0.00
     4   6     0.01  -0.03  -0.03     0.00   0.01   0.01     0.06   0.09   0.00
     5   8     0.28   0.03   0.01    -0.02   0.00  -0.06     0.18   0.12   0.00
     6   8    -0.14   0.12  -0.02     0.00   0.00  -0.16     0.06   0.04   0.00
     7   6    -0.15   0.05   0.05     0.01   0.00   0.11    -0.05  -0.21   0.00
     8   6     0.09  -0.13  -0.01    -0.01   0.01   0.01    -0.28  -0.11   0.00
     9   1    -0.20  -0.03   0.09     0.15  -0.16   0.24    -0.10  -0.21  -0.01
    10   1    -0.25   0.06   0.08    -0.12   0.15   0.25    -0.11  -0.22   0.00
    11   1     0.48  -0.19   0.11     0.37  -0.15   0.19    -0.50  -0.17   0.00
    12   1     0.04   0.01   0.11    -0.39   0.15   0.21    -0.52  -0.17   0.02
    13   1     0.01  -0.41  -0.30    -0.01   0.03  -0.50    -0.19   0.24  -0.01
    14   8    -0.10   0.02   0.00     0.03   0.00   0.00    -0.01   0.00   0.00
    15   1    -0.03  -0.06  -0.12     0.07  -0.03  -0.04    -0.03   0.01   0.01
                     13                     14                     15
                      A                      A                      A
 Frequencies --    468.7023               536.7858               597.7488
 Red. masses --      1.0702                 6.4870                10.4134
 Frc consts  --      0.1385                 1.1013                 2.1922
 IR Inten    --    166.4983                 0.1947                61.5432
  Atom  AN      X      Y      Z        X      Y      Z        X      Y      Z
     1   6     0.00   0.05  -0.03     0.21  -0.12   0.00    -0.41   0.10   0.00
     2   1     0.05  -0.35   0.43     0.04  -0.17  -0.06    -0.05   0.21   0.12
     3   6    -0.01  -0.01   0.01     0.36   0.34   0.01    -0.20   0.47   0.01
     4   6     0.00   0.00   0.00     0.05  -0.13   0.00    -0.11  -0.20  -0.01
     5   8     0.01   0.00   0.00    -0.01  -0.15  -0.01     0.43  -0.10   0.00
     6   8     0.01  -0.01   0.00    -0.17   0.03   0.00    -0.05  -0.25   0.00
     7   6     0.01   0.00   0.00    -0.27   0.15   0.00     0.07   0.01   0.00
     8   6     0.00   0.00   0.00    -0.05  -0.04   0.00     0.09   0.06   0.00
     9   1     0.01   0.00   0.00    -0.26   0.12   0.02     0.17   0.03   0.01
    10   1     0.01   0.00   0.00    -0.27   0.13  -0.01     0.18   0.03  -0.01
    11   1     0.00   0.00   0.00     0.19   0.02   0.01     0.17   0.08   0.01
    12   1     0.00   0.00   0.00     0.19   0.02  -0.01     0.18   0.08  -0.01
    13   1     0.01   0.01   0.00    -0.15  -0.43   0.00     0.06  -0.06   0.00
    14   8     0.02  -0.02  -0.02    -0.02  -0.01   0.00     0.00  -0.01  -0.01
    15   1    -0.75   0.23   0.26    -0.18   0.05   0.06     0.17   0.00   0.06
                     16                     17                     18
                      A                      A                      A
 Frequencies --    769.0718               817.9595               903.0622
 Red. masses --      7.9421                 1.1444                 2.3766
 Frc consts  --      2.7677                 0.4511                 1.1419
 IR Inten    --     17.2763                 0.1257                 5.4883
  Atom  AN      X      Y      Z        X      Y      Z        X      Y      Z
     1   6    -0.01   0.00   0.03     0.00   0.00   0.00    -0.03   0.01   0.00
     2   1     0.02  -0.02  -0.02     0.00   0.00   0.00     0.00   0.00   0.01
     3   6    -0.01   0.00  -0.24     0.00   0.00  -0.02     0.00   0.04   0.00
     4   6     0.00  -0.01   0.69     0.00   0.00   0.05     0.01  -0.08   0.00
     5   8     0.00   0.00  -0.20     0.00   0.00  -0.02    -0.01  -0.12   0.00
     6   8     0.00   0.00  -0.16     0.00   0.00  -0.04    -0.09   0.20   0.00
     7   6     0.00   0.00  -0.06     0.00   0.00   0.07     0.07  -0.08   0.00
     8   6     0.00   0.00  -0.01     0.00   0.00   0.04     0.14  -0.01   0.00
     9   1     0.07  -0.32   0.17     0.10   0.44  -0.22    -0.18  -0.14   0.00
    10   1    -0.06   0.31   0.18    -0.11  -0.44  -0.23    -0.18  -0.12   0.01
    11   1    -0.09  -0.19   0.10     0.19   0.39  -0.18    -0.32  -0.08  -0.05
    12   1     0.10   0.19   0.10    -0.20  -0.38  -0.19    -0.32  -0.07   0.06
    13   1     0.00   0.00   0.09     0.00   0.01  -0.19     0.31   0.69   0.01
    14   8     0.00   0.00   0.00     0.00   0.00   0.00     0.00   0.00   0.00
    15   1     0.02   0.01   0.02     0.00   0.00   0.00     0.00   0.00   0.01
                     19                     20                     21
                      A                      A                      A
 Frequencies --    961.3486              1085.2931              1150.6697
 Red. masses --      6.1553                 3.5067                 2.2686
 Frc consts  --      3.3517                 2.4336                 1.7698
 IR Inten    --      6.6994                42.4847                14.5897
  Atom  AN      X      Y      Z        X      Y      Z        X      Y      Z
     1   6    -0.20   0.08   0.00     0.06  -0.03   0.00     0.01   0.00   0.00
     2   1     0.01   0.05   0.07    -0.01  -0.02  -0.02     0.00   0.00  -0.01
     3   6    -0.12   0.02   0.00     0.04   0.02   0.00     0.00  -0.01   0.00
     4   6     0.26  -0.09   0.00    -0.12  -0.01   0.00    -0.02   0.01   0.00
     5   8    -0.05  -0.23   0.00     0.01   0.02   0.00     0.00   0.05   0.00
     6   8     0.24   0.23   0.00    -0.20   0.07   0.00     0.03  -0.11   0.00
     7   6     0.01   0.18   0.00     0.33   0.05   0.00    -0.04   0.23   0.00
     8   6    -0.20  -0.16   0.00    -0.12  -0.12   0.00     0.07  -0.18   0.00
     9   1     0.10   0.23  -0.01     0.48   0.19  -0.05     0.02   0.23   0.02
    10   1     0.10   0.22   0.02     0.48   0.19   0.05     0.01   0.25  -0.01
    11   1    -0.02  -0.16   0.03    -0.02  -0.19   0.05    -0.48  -0.23  -0.08
    12   1    -0.03  -0.17  -0.04    -0.02  -0.19  -0.06    -0.48  -0.25   0.08
    13   1    -0.31  -0.55  -0.01    -0.18  -0.37   0.00     0.20   0.39   0.00
    14   8     0.00   0.00   0.00     0.00   0.00   0.00     0.00   0.00   0.00
    15   1     0.04   0.00   0.02    -0.01   0.00   0.00     0.00   0.00   0.00
                     22                     23                     24
                      A                      A                      A
 Frequencies --   1182.4890              1296.6443              1308.3865
 Red. masses --      1.5706                 7.6502                 1.0892
 Frc consts  --      1.2940                 7.5782                 1.0985
 IR Inten    --      4.8088               965.8321                 1.6513
  Atom  AN      X      Y      Z        X      Y      Z        X      Y      Z
     1   6     0.00   0.00   0.00    -0.12   0.05   0.00     0.00   0.00   0.00
     2   1     0.00   0.00   0.00     0.01  -0.03   0.08     0.00   0.00   0.00
     3   6     0.00   0.00   0.00    -0.03   0.00   0.00     0.00   0.00   0.00
     4   6     0.00   0.00   0.01     0.58   0.16   0.00     0.00   0.00   0.00
     5   8     0.00   0.00   0.00    -0.07   0.04   0.00     0.00   0.00   0.00
     6   8     0.00   0.00  -0.05    -0.32  -0.19   0.00     0.00   0.00   0.04
     7   6     0.00   0.00   0.18     0.15   0.03   0.00     0.00   0.00   0.01
     8   6     0.00   0.00  -0.13     0.00   0.00   0.00     0.00   0.00  -0.07
     9   1    -0.32   0.38  -0.13    -0.46  -0.10   0.00     0.65   0.16   0.01
    10   1     0.32  -0.36  -0.15    -0.44  -0.08   0.01    -0.65  -0.16   0.01
    11   1    -0.15  -0.39   0.11     0.00  -0.08   0.05    -0.07  -0.19   0.04
    12   1     0.14   0.38   0.12     0.00  -0.08  -0.05     0.07   0.19   0.04
    13   1     0.01   0.00   0.27    -0.01  -0.02   0.00     0.00   0.00   0.10
    14   8     0.00   0.00   0.00     0.00   0.00  -0.01     0.00   0.00   0.00
    15   1     0.00   0.00   0.00     0.06   0.02   0.03     0.00   0.00   0.00
                     25                     26                     27
                      A                      A                      A
 Frequencies --   1398.9410              1437.8356              1441.6518
 Red. masses --      1.2814                 1.4525                 1.1140
 Frc consts  --      1.4776                 1.7693                 1.3641
 IR Inten    --     17.1879                12.2773                40.9425
  Atom  AN      X      Y      Z        X      Y      Z        X      Y      Z
     1   6     0.01  -0.01   0.00    -0.01   0.00   0.00    -0.01   0.00   0.00
     2   1     0.00   0.01  -0.01     0.03  -0.10   0.10    -0.14   0.48  -0.46
     3   6     0.00   0.00   0.00     0.00   0.00   0.00     0.00   0.00   0.00
     4   6    -0.06  -0.01   0.00     0.06   0.00   0.00     0.02   0.00   0.00
     5   8     0.01  -0.01   0.00    -0.01   0.00   0.00     0.00   0.00   0.00
     6   8     0.03  -0.01   0.00    -0.03   0.01   0.00    -0.01   0.00   0.00
     7   6     0.08   0.05   0.00    -0.10  -0.08   0.00    -0.02  -0.01   0.00
     8   6     0.03   0.09   0.00     0.10   0.09   0.00     0.02   0.01   0.00
     9   1    -0.41  -0.20   0.07     0.41   0.15  -0.07     0.07   0.03  -0.01
    10   1    -0.41  -0.19  -0.07     0.41   0.14   0.06     0.06   0.03   0.01
    11   1    -0.24  -0.27   0.17    -0.38  -0.15   0.05    -0.06  -0.02   0.01
    12   1    -0.24  -0.26  -0.17    -0.38  -0.14  -0.05    -0.06  -0.02  -0.01
    13   1    -0.12  -0.47   0.00    -0.04  -0.44  -0.01    -0.01  -0.06   0.00
    14   8     0.00   0.00   0.00    -0.01   0.00  -0.01     0.06  -0.02   0.05
    15   1    -0.01   0.00  -0.01     0.13   0.03   0.07    -0.63  -0.12  -0.33
                     28                     29                     30
                      A                      A                      A
 Frequencies --   1490.9485              1501.6293              1523.0993
 Red. masses --      1.0377                 1.0503                 1.0862
 Frc consts  --      1.3591                 1.3953                 1.4846
 IR Inten    --      8.5635                 3.2904                 8.3415
  Atom  AN      X      Y      Z        X      Y      Z        X      Y      Z
     1   6     0.00   0.00   0.00     0.00   0.00   0.00     0.00   0.00   0.00
     2   1     0.00   0.00   0.00     0.00   0.00   0.00     0.00   0.00   0.00
     3   6     0.00   0.00   0.00     0.00   0.00   0.00     0.00   0.00   0.00
     4   6     0.00   0.00   0.00     0.00   0.00   0.00     0.02   0.00   0.00
     5   8     0.00   0.00   0.00     0.00   0.00   0.00     0.00   0.00   0.00
     6   8     0.00   0.00   0.00     0.01   0.00   0.00    -0.02   0.01   0.00
     7   6     0.00   0.00  -0.02    -0.02  -0.03   0.00    -0.04   0.06   0.00
     8   6     0.00   0.01  -0.05    -0.02   0.04   0.01    -0.01   0.01   0.00
     9   1     0.00  -0.02  -0.01    -0.03   0.26  -0.18     0.29  -0.43   0.37
    10   1     0.01   0.07   0.02    -0.04   0.24   0.19     0.29  -0.42  -0.39
    11   1     0.52  -0.01   0.09     0.16  -0.43   0.34     0.09  -0.20   0.16
    12   1    -0.46  -0.11   0.00     0.28  -0.41  -0.37     0.11  -0.20  -0.17
    13   1     0.02   0.03   0.70     0.06   0.29  -0.08     0.03   0.16  -0.01
    14   8     0.00   0.00   0.00     0.00   0.00   0.00     0.00   0.00   0.00
    15   1     0.00   0.00   0.00     0.00   0.00   0.00     0.00   0.00   0.00
                     31                     32                     33
                      A                      A                      A
 Frequencies --   1842.6956              2225.5548              2775.0307
 Red. masses --     12.6556                10.0076                 1.0959
 Frc consts  --     25.3187                29.2051                 4.9723
 IR Inten    --    363.4924               141.9208               552.0094
  Atom  AN      X      Y      Z        X      Y      Z        X      Y      Z
     1   6     0.06  -0.02   0.00    -0.52   0.21   0.01     0.04  -0.02   0.00
     2   1    -0.01  -0.02   0.00     0.30   0.26   0.15     0.73   0.58   0.34
     3   6    -0.03   0.00   0.00     0.65  -0.25  -0.01    -0.02   0.01   0.00
     4   6    -0.16   0.79   0.01    -0.12   0.04   0.00     0.01   0.00   0.00
     5   8     0.11  -0.52  -0.01     0.00   0.00   0.00     0.00   0.00   0.00
     6   8    -0.02  -0.06   0.00    -0.01   0.00   0.00     0.00   0.00   0.00
     7   6    -0.03   0.01   0.00     0.01   0.00   0.00     0.00   0.00   0.00
     8   6     0.01  -0.01   0.00     0.00   0.00   0.00     0.00   0.00   0.00
     9   1     0.13   0.04   0.03     0.00   0.00   0.00     0.00   0.00   0.00
    10   1     0.13   0.04  -0.04     0.00   0.00   0.00     0.00   0.00   0.00
    11   1    -0.02  -0.02   0.00     0.00   0.00   0.00     0.00   0.00   0.00
    12   1    -0.02  -0.02   0.00     0.00   0.00   0.00     0.00   0.00   0.00
    13   1     0.02   0.05   0.00     0.00   0.00   0.00     0.00   0.00   0.00
    14   8     0.00   0.00   0.00    -0.02  -0.01  -0.01    -0.06  -0.02  -0.02
    15   1     0.02   0.00   0.01    -0.01  -0.04   0.00    -0.06  -0.08   0.02
                     34                     35                     36
                      A                      A                      A
 Frequencies --   3066.8719              3078.9490              3122.5980
 Red. masses --      1.0358                 1.0580                 1.1084
 Frc consts  --      5.7399                 5.9094                 6.3678
 IR Inten    --      9.4318                11.3957                 3.5750
  Atom  AN      X      Y      Z        X      Y      Z        X      Y      Z
     1   6     0.00   0.00   0.00     0.00   0.00   0.00     0.00   0.00   0.00
     2   1     0.00   0.00   0.00     0.00   0.00   0.00     0.00   0.00   0.00
     3   6     0.00   0.00   0.00     0.00   0.00   0.00     0.00   0.00   0.00
     4   6     0.00   0.00   0.00     0.00   0.00   0.00     0.00   0.00   0.00
     5   8     0.00   0.00   0.00     0.00   0.00   0.00     0.00   0.00   0.00
     6   8     0.00   0.00   0.00     0.00   0.00   0.00     0.00   0.00   0.00
     7   6     0.00   0.01   0.00     0.02  -0.07   0.00     0.00   0.00  -0.09
     8   6    -0.03  -0.04   0.00    -0.01   0.00   0.00     0.00   0.00   0.04
     9   1     0.01  -0.03  -0.04    -0.10   0.38   0.60    -0.09   0.35   0.51
    10   1     0.01  -0.03   0.03    -0.11   0.38  -0.56     0.10  -0.38   0.52
    11   1    -0.11   0.32   0.50     0.00   0.01   0.01     0.06  -0.16  -0.24
    12   1    -0.11   0.32  -0.46     0.00   0.01  -0.01    -0.06   0.17  -0.24
    13   1     0.53  -0.15  -0.01     0.10  -0.03   0.00     0.02   0.00   0.01
    14   8     0.00   0.00   0.00     0.00   0.00   0.00     0.00   0.00   0.00
    15   1     0.00   0.00   0.00     0.00   0.00   0.00     0.00   0.00   0.00
                     37                     38                     39
                      A                      A                      A
 Frequencies --   3149.8142              3152.8521              3879.1353
 Red. masses --      1.1027                 1.1047                 1.0673
 Frc consts  --      6.4456                 6.4702                 9.4621
 IR Inten    --     13.6998                17.6751               146.8262
  Atom  AN      X      Y      Z        X      Y      Z        X      Y      Z
     1   6     0.00   0.00   0.00     0.00   0.00   0.00     0.00   0.00   0.00
     2   1     0.00   0.00   0.00     0.00   0.00   0.00    -0.06  -0.01  -0.03
     3   6     0.00   0.00   0.00     0.00   0.00   0.00     0.00   0.00   0.00
     4   6     0.00   0.00   0.00     0.00   0.00   0.00     0.00   0.00   0.00
     5   8     0.00   0.00   0.00     0.00   0.00   0.00     0.00   0.00   0.00
     6   8     0.00   0.00   0.00     0.00   0.00   0.00     0.00   0.00   0.00
     7   6     0.00   0.01   0.02     0.00   0.00   0.04     0.00   0.00   0.00
     8   6    -0.07   0.05   0.03     0.03  -0.02   0.08     0.00   0.00   0.00
     9   1     0.02  -0.10  -0.14     0.03  -0.14  -0.20     0.00   0.00   0.00
    10   1    -0.01   0.04  -0.05    -0.04   0.17  -0.23     0.00   0.00   0.00
    11   1     0.09  -0.32  -0.49     0.08  -0.24  -0.35     0.00   0.00   0.00
    12   1     0.01  -0.06   0.10    -0.14   0.43  -0.60     0.00   0.00   0.00
    13   1     0.74  -0.19   0.00    -0.29   0.08   0.02     0.00   0.00   0.00
    14   8     0.00   0.00   0.00     0.00   0.00   0.00     0.01   0.06  -0.03
    15   1     0.00   0.00   0.00     0.00   0.00   0.00    -0.11  -0.86   0.49

 -------------------
 - Thermochemistry -
 -------------------
 Temperature   298.150 Kelvin.  Pressure   1.00000 Atm.
 Atom     1 has atomic number  6 and mass  12.00000
 Atom     2 has atomic number  1 and mass   1.00783
 Atom     3 has atomic number  6 and mass  12.00000
 Atom     4 has atomic number  6 and mass  12.00000
 Atom     5 has atomic number  8 and mass  15.99491
 Atom     6 has atomic number  8 and mass  15.99491
 Atom     7 has atomic number  6 and mass  12.00000
 Atom     8 has atomic number  6 and mass  12.00000
 Atom     9 has atomic number  1 and mass   1.00783
 Atom    10 has atomic number  1 and mass   1.00783
 Atom    11 has atomic number  1 and mass   1.00783
 Atom    12 has atomic number  1 and mass   1.00783
 Atom    13 has atomic number  1 and mass   1.00783
 Atom    14 has atomic number  8 and mass  15.99491
 Atom    15 has atomic number  1 and mass   1.00783
 Molecular mass:   115.03952 amu.
 Principal axes and moments of inertia in atomic units:
                           1         2         3
     Eigenvalues --   336.499282632.246692943.56318
           X            0.99990   0.01354  -0.00343
           Y           -0.01354   0.99991   0.00091
           Z            0.00345  -0.00086   0.99999
 This molecule is an asymmetric top.
 Rotational symmetry number  1.
 Rotational temperatures (Kelvin)      0.25740     0.03290     0.02942
 Rotational constants (GHZ):           5.36328     0.68563     0.61311
    3 imaginary frequencies ignored.
 Zero-point vibrational energy     286699.0 (Joules/Mol)
                                   68.52271 (Kcal/Mol)
 Warning -- explicit consideration of  12 degrees of freedom as
           vibrations may cause significant error
 Vibrational temperatures:    102.64   146.02   159.73   165.52   296.00
          (Kelvin)            346.52   361.68   408.76   554.82   674.36
                              772.31   860.03  1106.52  1176.86  1299.30
                             1383.16  1561.49  1655.55  1701.34  1865.58
                             1882.47  2012.76  2068.72  2074.21  2145.14
                             2160.51  2191.40  2651.22  3202.07  3992.65
                             4412.54  4429.92  4492.72  4531.87  4536.25
                             5581.20
 
 Zero-point correction=                           0.109198 (Hartree/Particle)
 Thermal correction to Energy=                    0.118261
 Thermal correction to Enthalpy=                  0.119205
 Thermal correction to Gibbs Free Energy=         0.073735
 Sum of electronic and zero-point Energies=           -420.066132
 Sum of electronic and thermal Energies=              -420.057068
 Sum of electronic and thermal Enthalpies=            -420.056124
 Sum of electronic and thermal Free Energies=         -420.101595
 
                     E (Thermal)             CV                S
                      KCal/Mol        Cal/Mol-Kelvin    Cal/Mol-Kelvin
 Total                   74.210             29.677             95.701
 Electronic               0.000              0.000              1.377
 Translational            0.889              2.981             40.136
 Rotational               0.889              2.981             29.346
 Vibrational             72.432             23.716             24.842
 Vibration     1          0.598              1.968              4.116
 Vibration     2          0.604              1.948              3.425
 Vibration     3          0.607              1.940              3.251
 Vibration     4          0.608              1.937              3.182
 Vibration     5          0.640              1.832              2.081
 Vibration     6          0.658              1.778              1.797
 Vibration     7          0.663              1.760              1.721
 Vibration     8          0.683              1.703              1.509
 Vibration     9          0.754              1.501              1.017
 Vibration    10          0.826              1.319              0.741
 Vibration    11          0.892              1.169              0.572
 Vibration    12          0.956              1.037              0.454
                       Q            Log10(Q)             Ln(Q)
 Total Bot       0.121494D-33        -33.915446        -78.093200
 Total V=0       0.205112D+17         16.311992         37.559750
 Vib (Bot)       0.216700D-47        -47.664140       -109.750739
 Vib (Bot)    1  0.289041D+01          0.460959          1.061397
 Vib (Bot)    2  0.202154D+01          0.305683          0.703860
 Vib (Bot)    3  0.184440D+01          0.265856          0.612157
 Vib (Bot)    4  0.177835D+01          0.250017          0.575685
 Vib (Bot)    5  0.967062D+00         -0.014546         -0.033493
 Vib (Bot)    6  0.813821D+00         -0.089471         -0.206014
 Vib (Bot)    7  0.775892D+00         -0.110199         -0.253742
 Vib (Bot)    8  0.675270D+00         -0.170523         -0.392643
 Vib (Bot)    9  0.467025D+00         -0.330660         -0.761373
 Vib (Bot)   10  0.360268D+00         -0.443374         -1.020907
 Vib (Bot)   11  0.296051D+00         -0.528633         -1.217223
 Vib (Bot)   12  0.250382D+00         -0.601397         -1.384768
 Vib (V=0)       0.365846D+03          2.563298          5.902211
 Vib (V=0)    1  0.343333D+01          0.535716          1.233532
 Vib (V=0)    2  0.258246D+01          0.412033          0.948742
 Vib (V=0)    3  0.241098D+01          0.382193          0.880032
 Vib (V=0)    4  0.234730D+01          0.370569          0.853267
 Vib (V=0)    5  0.158867D+01          0.201034          0.462899
 Vib (V=0)    6  0.145515D+01          0.162907          0.375107
 Vib (V=0)    7  0.142304D+01          0.153218          0.352797
 Vib (V=0)    8  0.134023D+01          0.127180          0.292842
 Vib (V=0)    9  0.118419D+01          0.073420          0.169057
 Vib (V=0)   10  0.111627D+01          0.047771          0.109996
 Vib (V=0)   11  0.108107D+01          0.033855          0.077954
 Vib (V=0)   12  0.105919D+01          0.024973          0.057502
 Electronic      0.200000D+01          0.301030          0.693147
 Translational   0.484982D+08          7.685726         17.697038
 Rotational      0.578014D+06          5.761938         13.267354
 ***** Axes restored to original set *****
 -------------------------------------------------------------------
 Center     Atomic                   Forces (Hartrees/Bohr)
 Number     Number              X              Y              Z
 -------------------------------------------------------------------
      1        6          -0.002182751    0.000816374    0.000876663
      2        1           0.003681379   -0.002771157   -0.002361388
      3        6          -0.001624591    0.001138386    0.000384054
      4        6          -0.000795736    0.000191422   -0.000213765
      5        8          -0.000367278    0.000311933    0.000046580
      6        8          -0.000431970   -0.000007799   -0.000048178
      7        6          -0.000185733   -0.000022052    0.000012057
      8        6          -0.000081507   -0.000020926   -0.000010825
      9        1          -0.000014233   -0.000003436    0.000002239
     10        1          -0.000017040    0.000001961    0.000002590
     11        1          -0.000003444   -0.000000059   -0.000002940
     12        1          -0.000001522   -0.000002091   -0.000001422
     13        1          -0.000008299   -0.000009330    0.000001309
     14        8           0.002413472    0.000730452    0.001863972
     15        1          -0.000380747   -0.000353678   -0.000550945
 -------------------------------------------------------------------
 Cartesian Forces:  Max     0.003681379 RMS     0.001040069

 GradGradGradGradGradGradGradGradGradGradGradGradGradGradGradGradGradGrad
 Berny optimization.
 Search for a local minimum.
 Step number   1 out of a maximum of    2
 All quantities printed in internal units (Hartrees-Bohrs-Radians)
 Second derivative matrix not updated -- analytic derivatives used.
 ITU=  0
     Eigenvalues ---   -0.01642  -0.00053  -0.00041   0.00066   0.00087
     Eigenvalues ---    0.00169   0.00226   0.00534   0.00996   0.01270
     Eigenvalues ---    0.01926   0.02777   0.02958   0.03204   0.05495
     Eigenvalues ---    0.07639   0.08530   0.08715   0.11313   0.11550
     Eigenvalues ---    0.12856   0.14865   0.15860   0.17922   0.20849
     Eigenvalues ---    0.28918   0.32181   0.45735   0.52186   0.58514
     Eigenvalues ---    0.65433   0.73467   0.79823   0.87382   0.89011
     Eigenvalues ---    0.90791   0.99754   1.73202   2.27643
 Eigenvalue     1 is  -1.64D-02 should be greater than     0.000000 Eigenvector:
                          X2        Y2        Z2        Z1        Z15
   1                    0.73142  -0.48036  -0.39059   0.11504  -0.09806
                          Y1        Y15       Z14       X14       X3
   1                    0.09101  -0.09069   0.08476   0.07430  -0.07181
 Eigenvalue     2 is  -5.34D-04 should be greater than     0.000000 Eigenvector:
                          Z1        Z14       Z3        Z2        Z13
   1                    0.57222  -0.46606   0.32042  -0.20295  -0.20180
                          Z10       Z9        Y14       X14       X9
   1                   -0.18810  -0.18318  -0.16193   0.13189  -0.13140
 Eigenvalue     3 is  -4.07D-04 should be greater than     0.000000 Eigenvector:
                          Y15       Y1        Y14       X15       Y3
   1                    0.48381  -0.42754   0.37355  -0.30272  -0.25452
                          Y13       Z2        X5        X2        Y4
   1                    0.19811  -0.16944   0.16876   0.14573  -0.14357
 Quadratic step=4.417D-01 exceeds max=3.000D-01 adjusted using Lamda=-4.082D-03.
 Angle between NR and scaled steps=  26.65 degrees.
 Angle between quadratic step and forces=  27.59 degrees.
 Linear search not attempted -- first point.
 TrRot= -0.009404  0.007836  0.004854 -0.761260 -0.001848  0.762446
 Variable       Old X    -DE/DX   Delta X   Delta X   Delta X     New X
                                 (Linear)    (Quad)   (Total)
    X1        4.10880  -0.00218   0.00000  -0.04081  -0.04919   4.05961
    Y1       -0.77168   0.00082   0.00000   0.00225   0.01480  -0.75688
    Z1       -0.11439   0.00088   0.00000   0.02586   0.03713  -0.07726
    X2        6.83122   0.00368   0.00000   0.23267   0.22623   7.05745
    Y2       -1.85025  -0.00277   0.00000  -0.13723  -0.12159  -1.97184
    Z2       -0.38090  -0.00236   0.00000  -0.07864  -0.06181  -0.44271
    X3        2.02009  -0.00162   0.00000  -0.03079  -0.04034   1.97975
    Y3        0.13511   0.00114   0.00000   0.02186   0.03201   0.16712
    Z3       -0.03080   0.00038   0.00000  -0.00230   0.00501  -0.02579
    X4       -0.53404  -0.00080   0.00000  -0.02424  -0.03501  -0.56905
    Y4        1.16059   0.00019   0.00000   0.01094   0.01809   1.17868
    Z4       -0.00869  -0.00021   0.00000  -0.00756  -0.00495  -0.01363
    X5       -0.97773  -0.00037   0.00000  -0.02368  -0.03714  -1.01488
    Y5        3.38187   0.00031   0.00000   0.01045   0.01712   3.39900
    Z5        0.02315   0.00005   0.00000   0.00465   0.00384   0.02698
    X6       -2.25497  -0.00043   0.00000  -0.01221  -0.02077  -2.27574
    Y6       -0.66945  -0.00001   0.00000   0.00329   0.00840  -0.66106
    Z6       -0.01929  -0.00005   0.00000  -0.01208  -0.00940  -0.02869
    X7       -4.85004  -0.00019   0.00000  -0.00892  -0.01853  -4.86857
    Y7        0.15919  -0.00002   0.00000   0.00095   0.00304   0.16224
    Z7        0.01621   0.00001   0.00000   0.00164  -0.00021   0.01600
    X8       -6.47660  -0.00008   0.00000  -0.00322  -0.01001  -6.48661
    Y8       -2.18683  -0.00002   0.00000  -0.00055  -0.00041  -2.18724
    Z8       -0.00774  -0.00001   0.00000   0.00136   0.00034  -0.00740
    X9       -5.14693  -0.00001   0.00000   0.00161  -0.01162  -5.15855
    Y9        1.30219   0.00000   0.00000  -0.00316   0.00075   1.30294
    Z9        1.70831   0.00000   0.00000   0.00613   0.00244   1.71075
   X10       -5.17650  -0.00002   0.00000  -0.01066  -0.01950  -5.19600
   Y10        1.35779   0.00000   0.00000   0.00569   0.00530   1.36309
   Z10       -1.63139   0.00000   0.00000   0.00577   0.00195  -1.62944
   X11       -6.11734   0.00000   0.00000  -0.00098  -0.00418  -6.12152
   Y11       -3.29998   0.00000   0.00000   0.00308   0.00148  -3.29850
   Z11       -1.70458   0.00000   0.00000  -0.00056   0.00033  -1.70425
   X12       -6.08504   0.00000   0.00000   0.00283  -0.00479  -6.08982
   Y12       -3.35631   0.00000   0.00000  -0.00122   0.00150  -3.35482
   Z12        1.64340   0.00000   0.00000  -0.00054   0.00046   1.64387
   X13       -8.46795  -0.00001   0.00000  -0.00305  -0.01051  -8.47846
   Y13       -1.65158  -0.00001   0.00000  -0.00271  -0.00490  -1.65648
   Z13        0.02007   0.00000   0.00000   0.00421  -0.00015   0.01992
   X14        8.50868   0.00241   0.00000   0.04975   0.04141   8.55009
   Y14       -1.13962   0.00073   0.00000   0.01142   0.02967  -1.10995
   Z14        0.17269   0.00186   0.00000   0.02558   0.04332   0.21601
   X15        8.67778  -0.00038   0.00000   0.00285  -0.00604   8.67173
   Y15        0.43904  -0.00035   0.00000  -0.02243  -0.00526   0.43378
   Z15       -0.72626  -0.00055   0.00000  -0.03423  -0.01831  -0.74457
         Item               Value     Threshold  Converged?
 Maximum Force            0.003681     0.000450     NO 
 RMS     Force            0.001040     0.000300     NO 
 Maximum Displacement     0.226228     0.001800     NO 
 RMS     Displacement     0.043815     0.001200     NO 
 Predicted change in Energy=-2.521674D-03
 GradGradGradGradGradGradGradGradGradGradGradGradGradGradGradGradGradGrad

 1|1|UNPC-DIT|Freq|UM062X|6-311++G(d,p)|C5H7O3(2)|NDITM|27-Mar-2025|0||
 # freq 6-311++g(d,p) m062x||Title Card Required||0,2|C,2.174282,-0.408
 355,-0.060534|H,3.614928,-0.979111,-0.201565|C,1.068984,0.071496,-0.01
 6298|C,-0.282602,0.614156,-0.004597|O,-0.517394,1.789611,0.012249|O,-1
 .193278,-0.35426,-0.010206|C,-2.566529,0.084241,0.008576|C,-3.427269,-
 1.157219,-0.004097|H,-2.723638,0.689088,0.903998|H,-2.739284,0.718513,
 -0.863294|H,-3.237157,-1.746274,-0.902024|H,-3.220063,-1.776083,0.8696
 5|H,-4.481044,-0.87398,0.01062|O,4.502602,-0.603062,0.091384|H,4.59208
 1,0.232328,-0.384322||Version=IA32W-G09RevD.01|State=2-A|HF=-420.17532
 94|S2=0.769989|S2-1=0.|S2A=0.750302|RMSD=3.062e-009|RMSF=1.040e-003|Ze
 roPoint=0.1091979|Thermal=0.118261|Dipole=-0.6326177,-0.2454484,-0.439
 0419|DipoleDeriv=0.5899219,0.1192768,0.065709,0.1098022,-0.2986424,-0.
 022298,0.1061067,-0.0309422,-0.1423237,-0.6098897,0.0653057,-0.04975,-
 0.349346,0.3272073,0.0436648,-0.3199208,0.0753749,0.221125,-0.5470007,
 -0.0742295,-0.0251256,-0.1676603,0.0804413,0.0052713,-0.1045905,0.0173
 482,-0.0120456,2.7960364,-0.0992948,-0.0386725,0.5226385,1.7810082,0.0
 265144,0.0933126,0.0074018,0.3417353,-1.0261337,0.2839281,0.0106131,0.
 0853077,-1.2471339,-0.0144021,-0.0265976,-0.0045246,-0.3339992,-2.0247
 7,-0.408615,0.0197873,-0.591057,-0.8259622,-0.0009453,-0.0031083,-0.00
 2598,-0.2739252,1.137035,0.1134562,-0.0087217,-0.0441859,0.3025495,-0.
 0008137,-0.0089907,-0.0023086,0.3050329,-0.0434055,-0.0496332,0.000183
 6,-0.0589126,-0.0167436,-0.0009389,0.0003759,-0.000696,0.0549154,-0.05
 77483,-0.0444223,-0.0225187,0.0386433,0.0056858,-0.0592785,0.0218756,-
 0.0667286,-0.041691,-0.0581494,-0.0442762,0.0228497,0.037626,0.0011951
 ,0.061204,-0.0183759,0.0687311,-0.0387623,0.0749741,0.0202686,0.045951
 3,-0.0303217,0.0096932,-0.0519269,0.0196132,-0.0796886,-0.0423287,0.07
 38627,0.0232298,-0.0472866,-0.0285405,0.0053618,0.0540074,-0.0230217,0
 .0802499,-0.0357911,-0.1093887,0.020372,0.0028355,0.041221,0.0387554,-
 0.0010328,0.0029689,-0.0009375,0.0904874,-0.5981566,0.0111954,0.087219
 7,0.1439749,-0.3895323,-0.0859342,0.4286825,-0.1484411,-0.3943715,0.40
 28126,0.0634386,-0.0630741,0.2908102,0.2261167,0.0469083,-0.1683299,0.
 0877592,0.3019425|Polar=139.6951162,-14.7577178,68.5667424,-2.7293331,
 0.4471266,48.7576102|PG=C01 [X(C5H7O3)]|NImag=3||0.90075825,-0.3569467
 5,0.15399514,-0.02444301,0.01008078,0.00805513,0.05490299,-0.02511284,
 -0.01130282,0.14285121,0.02861396,-0.01594170,-0.00441856,0.11527018,0
 .10565018,0.02097659,-0.00710704,-0.00437004,0.07870884,0.03397890,0.0
 4663934,-0.88112450,0.35642975,0.02777909,0.00048219,-0.00420995,-0.00
 187093,1.20362042,0.34550759,-0.15427305,-0.01078738,-0.00282746,0.001
 19799,-0.00152561,-0.43339989,0.25755466,0.02270908,-0.00972893,-0.013
 33279,-0.00084258,-0.00038489,0.00102226,-0.02533450,0.01127805,0.0442
 8464,0.00958535,-0.00585398,-0.00237879,0.00575203,0.00503206,0.003479
 25,-0.24860065,0.07629376,0.00282533,0.63779018,0.01365088,-0.00234899
 ,-0.00040719,0.00119187,0.00035971,0.00077111,0.03993121,-0.06493760,-
 0.00033351,-0.09790084,0.99310769,0.00483133,-0.00225767,0.00583803,0.
 00301024,0.00141874,0.00015828,-0.00541544,0.00187663,-0.06717615,-0.0
 0469025,0.01118006,0.20643026,-0.00632284,0.00369063,0.00094197,-0.002
 49184,-0.00174716,-0.00170341,-0.00786803,0.04198355,0.00051974,-0.138
 54057,0.14904153,0.00255521,0.13381968,-0.00051467,0.00153556,-0.00030
 106,0.00195650,0.00123799,0.00112445,0.04074441,-0.04142968,-0.0011922
 7,0.13139861,-0.73491906,-0.00974448,-0.14402218,0.87622196,-0.0012622
 8,0.00079930,-0.00015703,-0.00068517,-0.00033740,0.00014001,0.00261472
 ,-0.00213063,0.02050630,0.00241919,-0.00976459,-0.08057264,-0.00275307
 ,0.01236076,0.03364021,0.00081776,0.00331712,0.00085962,-0.00167030,-0
 .00192559,-0.00137316,-0.06371260,-0.02611241,-0.00023019,-0.21097259,
 -0.10448454,0.00007416,0.01813269,-0.04129074,-0.00053500,0.52018682,0
 .00083059,0.00012357,0.00017095,-0.00060772,-0.00074847,-0.00042538,-0
 .00230708,0.00883914,0.00001594,-0.07442700,-0.20605094,-0.00115452,-0
 .04456585,-0.09856571,-0.00139128,0.08022546,0.40943309,-0.00029379,0.
 00022907,0.00021432,-0.00019436,-0.00012341,-0.00001615,0.00092821,-0.
 00007406,0.01103896,0.00020667,-0.00080276,-0.06923007,-0.00045508,-0.
 00147077,0.03170712,-0.00263105,0.00381082,0.08117269,0.00046557,-0.00
 116268,-0.00034291,0.00085626,0.00081852,0.00061617,0.00285717,-0.0003
 8322,0.00017029,-0.06033953,-0.02594618,0.00007175,0.00180665,0.020064
 93,0.00021207,-0.16527933,0.03733583,0.00131883,0.44155227,-0.00018224
 ,0.00076487,0.00004084,-0.00006711,-0.00004425,-0.00010836,-0.00504951
 ,-0.00286423,-0.00004560,-0.02668946,0.01643155,0.00038278,-0.00396530
 ,-0.00490141,0.00003646,0.06259920,-0.11117510,-0.00114680,0.01515006,
 0.58103326,-0.00008872,-0.00005612,-0.00037771,-0.00010496,-0.00007427
 ,-0.00003655,-0.00004341,0.00000026,0.00626326,0.00021804,0.00035271,0
 .00173614,-0.00016551,-0.00016761,-0.00628169,0.00182933,-0.00097715,-
 0.07001293,0.00187511,-0.00097653,0.62447641,-0.00002998,0.00020511,0.
 00003291,-0.00006810,-0.00009227,-0.00006352,-0.00180967,-0.00101949,0
 .00001726,-0.00386137,0.00710321,0.00009912,0.00212689,-0.00244879,-0.
 00004617,-0.04516646,-0.03485699,-0.00015330,-0.10872003,-0.05767149,-
 0.00080858,0.56263775,0.00005899,-0.00018895,-0.00002801,0.00004575,0.
 00007633,0.00003981,0.00087618,0.00062633,-0.00000839,0.00226480,-0.00
 415880,-0.00006655,-0.00160410,0.00170196,0.00002293,0.00949354,0.0127
 8707,0.00010304,-0.07391264,-0.19233434,-0.00117888,-0.04096846,0.5329
 5742,0.00002365,-0.00003369,0.00005482,0.00000306,0.00001191,0.0000070
 3,-0.00001171,0.00004278,-0.00014241,0.00009256,-0.00012323,-0.0000281
 1,-0.00001944,0.00003376,0.00106401,0.00056601,0.00049703,0.00174133,-
 0.00108699,-0.00132958,-0.08703009,-0.00073352,-0.00089221,0.58518353,
 0.00009728,0.00002444,0.00008331,-0.00007599,-0.00008746,-0.00004166,-
 0.00063149,-0.00010653,-0.00117590,0.00316677,0.00893917,0.00169855,0.
 00065081,-0.00362048,0.00004666,-0.02644436,0.02030930,0.03033218,-0.0
 5066230,0.01428254,0.02041105,0.00425138,-0.01080694,-0.01783544,0.067
 85770,0.00007696,-0.00009846,0.00002065,0.00005450,0.00003122,0.000024
 69,0.00025732,0.00007295,-0.00017519,-0.00250747,-0.00002479,0.0003194
 8,0.00027749,0.00022869,0.00025228,0.00992287,-0.00648495,-0.00746920,
 0.01808083,-0.12704853,-0.11760416,0.00265837,-0.01345344,-0.02174373,
 -0.02300876,0.13800921,-0.00012041,0.00006995,0.00005755,0.00000247,-0
 .00001131,-0.00001345,0.00020159,0.00015316,-0.00048536,-0.00083976,-0
 .00333380,0.00054696,-0.00151601,0.00128447,0.00030923,0.00412534,0.00
 231509,0.00575230,0.02884690,-0.11865011,-0.23906870,-0.00124602,0.001
 89581,0.00291422,-0.03169044,0.13041198,0.24861786,0.00007425,-0.00000
 963,0.00000809,-0.00011537,-0.00011790,-0.00006618,-0.00062596,-0.0000
 9798,0.00108308,0.00322593,0.00904764,-0.00139349,0.00069737,-0.003644
 87,-0.00012563,-0.02690535,0.02118932,-0.02906477,-0.05183266,0.017487
 60,-0.02302601,0.00459708,-0.01141219,0.01744444,0.00299661,-0.0034133
 0,0.00272048,0.06910319,-0.00000384,-0.00003485,-0.00002858,0.00001589
 ,0.00000913,0.00005755,0.00040691,0.00000464,0.00013547,-0.00253272,-0
 .00013212,-0.00023926,0.00020676,0.00027194,-0.00025705,0.01018691,-0.
 00664255,0.00684179,0.02146828,-0.13555505,0.12088194,0.00302801,-0.01
 409215,0.02116562,-0.00357321,0.01059289,-0.01430108,-0.02677390,0.147
 36222,0.00017224,-0.00010506,0.00003677,0.00003224,0.00003622,-0.00000
 181,-0.00025921,-0.00010237,-0.00049004,0.00073314,0.00315426,0.000632
 30,0.00153532,-0.00121766,0.00025275,-0.00329107,-0.00308215,0.0064935
 5,-0.03125882,0.12200995,-0.23015411,0.00131299,-0.00226694,0.00321547
 ,-0.00327024,0.01541682,-0.02082489,0.03383174,-0.13356733,0.23866373,
 -0.00004432,0.00002649,0.00000233,0.00003044,0.00001532,0.00001392,0.0
 0009605,0.00001122,0.00004640,-0.00034181,-0.00120861,-0.00000752,-0.0
 0041144,0.00060688,0.00010288,0.00270424,0.00108495,-0.00015904,0.0020
 8276,-0.01199332,-0.01849321,-0.05564815,0.02710895,0.04175537,-0.0019
 9121,-0.00322760,0.00026374,0.00049261,0.00097669,0.00035206,0.0565068
 3,-0.00003495,0.00003242,0.00004361,-0.00001671,-0.00001581,-0.0000198
 4,-0.00002720,-0.00000817,-0.00009933,0.00019388,-0.00058585,0.0000762
 0,-0.00047654,0.00029591,0.00020095,0.00134264,0.00188984,0.00107855,0
 .00630236,-0.01712060,-0.02571144,0.02481173,-0.12384785,-0.11741770,-
 0.00388132,-0.00326476,0.00102983,0.00070330,0.00072806,0.00024724,-0.
 02537098,0.13564372,-0.00002759,0.00004699,0.00000265,0.00000082,-0.00
 001482,-0.00000400,-0.00004630,-0.00004163,0.00000906,-0.00013699,-0.0
 0012842,0.00003471,0.00002460,0.00029997,-0.00004924,-0.00048931,0.000
 19993,0.00014482,-0.00036227,0.00077169,0.00124861,0.04034491,-0.11938
 438,-0.23479278,0.00066930,0.00038490,0.00147292,-0.00063904,-0.000135
 46,0.00076368,-0.04445039,0.13060809,0.24999377,-0.00005006,0.00004083
 ,-0.00000908,0.00002699,0.00001637,0.00002315,0.00011094,-0.00001444,-
 0.00005192,-0.00034101,-0.00120126,-0.00001078,-0.00042183,0.00060854,
 -0.00008114,0.00272264,0.00108460,0.00015822,0.00243344,-0.01264144,0.
 01806145,-0.05752516,0.03135661,-0.04398065,0.00049898,0.00098454,-0.0
 0031217,-0.00201650,-0.00323633,-0.00031097,0.00021039,-0.00419836,0.0
 0540225,0.05852263,-0.00003657,0.00004435,-0.00002330,-0.00001968,-0.0
 0001928,-0.00000449,-0.00003381,-0.00002410,0.00009122,0.00019484,-0.0
 0058934,-0.00009063,-0.00048614,0.00031295,-0.00018537,0.00132372,0.00
 194718,-0.00102990,0.00676053,-0.01793677,0.02497176,0.02895811,-0.132
 39659,0.12080933,0.00067430,0.00072565,-0.00025952,-0.00387623,-0.0032
 3692,-0.00111786,-0.00429870,0.01098181,-0.01434386,-0.02991819,0.1450
 1370,0.00002049,-0.00003368,-0.00000720,-0.00000298,0.00001293,-0.0000
 0531,0.00006008,0.00002570,0.00002027,0.00014705,0.00013127,0.00002869
 ,-0.00003848,-0.00029662,-0.00005810,0.00047243,-0.00015814,0.00008639
 ,0.00057808,-0.00116452,0.00172407,-0.04261274,0.12275593,-0.22556996,
 0.00066595,0.00010765,0.00075212,-0.00073797,-0.00048351,0.00143680,-0
 .00593277,0.01544056,-0.01958299,0.04697621,-0.13407855,0.23978141,-0.
 00000986,0.00009556,0.00002460,-0.00007654,-0.00005189,-0.00004821,-0.
 00027263,-0.00023546,-0.00000841,0.00061026,0.00190293,0.00002012,0.00
 007099,-0.00083242,-0.00001259,-0.00306773,-0.00487898,-0.00003817,-0.
 01576223,0.00882482,0.00027926,-0.30073109,0.06746301,0.00377622,0.000
 35152,-0.00018314,-0.00042156,0.00035460,-0.00019791,0.00041060,-0.003
 69996,0.00066641,-0.00028660,-0.00418595,0.00076817,0.00040685,0.32646
 528,-0.00006454,0.00011738,0.00001935,-0.00002153,-0.00004298,-0.00001
 973,-0.00054114,-0.00037948,-0.00000779,-0.00097553,0.00196938,0.00003
 278,0.00041150,-0.00054416,-0.00001148,-0.00677911,-0.00568114,-0.0000
 4803,-0.02375374,0.01062878,0.00044909,0.07016383,-0.06759416,-0.00102
 159,0.00075735,0.00074312,-0.00060270,0.00077803,0.00073134,0.00061807
 ,0.01629724,-0.00474490,0.00173338,0.01714866,-0.00483987,-0.00225423,
 -0.07339858,0.06959179,0.00000296,0.00000381,-0.00001652,0.00000307,-0
 .00000004,0.00000039,-0.00001144,-0.00000709,0.00001328,-0.00002061,0.
 00000993,0.00042338,0.00000507,-0.00000067,-0.00014990,-0.00007727,-0.
 00006328,0.00096990,-0.00028373,0.00012089,-0.00244176,0.00382866,-0.0
 0097744,-0.04660740,0.00007035,0.00006484,-0.00004218,-0.00004939,-0.0
 0002922,-0.00003269,0.02651716,-0.00548416,0.00075628,-0.02585145,0.00
 525766,0.00138973,-0.00413188,0.00110598,0.04573705,-0.07351708,0.0253
 0028,0.00622988,-0.19850861,-0.11260879,-0.11350404,-0.00602738,0.0032
 7840,0.00015861,0.00461782,-0.00150267,-0.00020765,-0.00152362,0.00140
 386,-0.00000973,-0.00252082,-0.00050465,0.00000645,0.00096170,-0.00016
 632,0.00000389,-0.00013537,0.00008159,0.00000360,-0.00011403,0.0000359
 9,-0.00000982,-0.00011759,0.00003058,0.00001692,0.00003155,-0.00002191
 ,-0.00000223,0.00003474,-0.00001973,-0.00000149,-0.00007205,-0.0000450
 4,-0.00000154,0.31395514,-0.02535852,0.01399280,0.00598207,-0.10314346
 ,-0.08052862,-0.03877298,0.00600586,-0.00506400,0.00006579,-0.00133193
 ,0.00139329,-0.00131269,-0.00003574,-0.00020966,0.00030647,0.00092314,
 0.00013812,0.00007872,-0.00026120,0.00004114,0.00006521,0.00005720,-0.
 00003955,0.00000155,0.00003231,-0.00000315,-0.00000166,0.00007057,0.00
 000808,-0.00001285,-0.00000601,0.00000545,0.00000871,-0.00000836,0.000
 00459,-0.00000840,0.00001959,0.00002338,-0.00000033,0.14920150,0.46846
 472,-0.02708983,0.00752390,0.00441750,-0.06192035,-0.01666858,-0.04806
 765,0.00293511,0.00093678,-0.00140867,-0.00358320,-0.00037470,0.000964
 59,0.00164243,-0.00109297,-0.00021335,0.00159557,0.00039137,-0.0000385
 0,-0.00068227,0.00012587,-0.00008369,0.00008559,-0.00004995,-0.0000115
 0,0.00007446,-0.00002344,0.00001837,0.00005429,-0.00005871,0.00000601,
 -0.00001965,0.00001906,0.00000534,-0.00002610,0.00000723,0.00000380,0.
 00004597,0.00002535,-0.00000034,0.08853318,-0.20246169,0.18424215,-0.0
 0560281,-0.00004433,0.00251478,-0.00189536,-0.02892540,0.01485319,0.00
 350615,-0.00287763,0.00011373,-0.00175080,0.00143565,-0.00063534,0.000
 27509,-0.00040956,0.00011525,0.00117538,0.00008822,0.00003901,-0.00041
 974,0.00008197,0.00005227,0.00008228,-0.00004508,0.00000284,0.00004832
 ,-0.00000860,-0.00000433,0.00007179,-0.00000213,-0.00000696,-0.0000179
 8,0.00000764,-0.00000118,-0.00002025,0.00000938,-0.00000070,0.00002538
 ,0.00002260,0.00000004,-0.03706442,-0.02616496,-0.00164518,0.04158698,
 -0.00559688,0.00227991,-0.00036417,0.01328181,-0.01122144,0.01198691,0
 .00091694,0.00068459,0.00038943,-0.00315901,0.00048587,-0.00042087,0.0
 0129155,-0.00123727,0.00009866,0.00125780,0.00019085,0.00002293,-0.000
 56169,0.00008067,0.00002519,0.00007192,-0.00004327,-0.00000024,0.00006
 527,-0.00002566,-0.00000013,0.00006953,-0.00001468,-0.00001035,-0.0000
 2253,0.00001072,-0.00000509,-0.00002175,0.00001263,0.00000360,0.000037
 89,0.00002153,-0.00000088,-0.06446309,-0.39822659,0.21170047,0.0568322
 3,0.40700212,0.00458930,0.00056840,-0.00041551,-0.00670753,-0.01342540
 ,0.00454765,-0.00152585,0.00035541,-0.00012261,0.00152837,-0.00033112,
 0.00021362,-0.00057336,0.00038070,-0.00013769,-0.00089541,-0.00014925,
 -0.00002373,0.00032779,-0.00006700,0.00003874,-0.00005759,0.00003523,0
 .00000185,-0.00003812,0.00001241,-0.00000695,-0.00003964,0.00001782,0.
 00000247,0.00000873,-0.00001164,-0.00000283,0.00001298,-0.00000374,0.0
 0000027,-0.00001618,-0.00001845,0.00000077,0.01878397,0.23606209,-0.13
 983406,-0.01539744,-0.22342547,0.13573801||0.00218275,-0.00081637,-0.0
 0087666,-0.00368138,0.00277116,0.00236139,0.00162459,-0.00113839,-0.00
 038405,0.00079574,-0.00019142,0.00021377,0.00036728,-0.00031193,-0.000
 04658,0.00043197,0.00000780,0.00004818,0.00018573,0.00002205,-0.000012
 06,0.00008151,0.00002093,0.00001082,0.00001423,0.00000344,-0.00000224,
 0.00001704,-0.00000196,-0.00000259,0.00000344,0.00000006,0.00000294,0.
 00000152,0.00000209,0.00000142,0.00000830,0.00000933,-0.00000131,-0.00
 241347,-0.00073045,-0.00186397,0.00038075,0.00035368,0.00055094|||@


 PENOTUS DIED A HUNDRED YEARS OLD WANTING BUT TWO...
 AND HE USED TO SAY BEFORE HE DIED, HAVING SPENT HIS
 WHOLE LIFE IN VAINLY SEARCHING AFTER THE PHILOSOPHER'S
 STONE, THAT IF HE HAD A MORTAL ENEMY HE DID NOT DARE
 TO ENCOUNTER OPENLY, HE WOULD ADVISE HIM ABOVE ALL
 THINGS TO GIVE HIMSELF UP TO THE STUDY AND PRACTICE
 OF ALCHEMY.  --  NICOLAS LEMERY, M.D.
 "A COURSE OF CHYMISTRY", WALTER KETTILBY, LONDON, 1686
 Job cpu time:       0 days  0 hours 24 minutes 32.0 seconds.
 File lengths (MBytes):  RWF=    152 Int=      0 D2E=      0 Chk=      9 Scr=      1
 Normal termination of Gaussian 09 at Thu Mar 27 12:39:32 2025.
