 Entering Gaussian System, Link 0=g16
 Initial command:
 /opt/g16/l1.exe "/home/aayush/scratches/g16/Gau-17033.inp" -scrdir="/home/aayush/scratches/g16/"
 Entering Link 1 = /opt/g16/l1.exe PID=     17036.
  
 Copyright (c) 1988,1990,1992,1993,1995,1998,2003,2009,2016,
            Gaussian, Inc.  All Rights Reserved.
  
 This is part of the Gaussian(R) 16 program.  It is based on
 the Gaussian(R) 09 system (copyright 2009, Gaussian, Inc.),
 the Gaussian(R) 03 system (copyright 2003, Gaussian, Inc.),
 the Gaussian(R) 98 system (copyright 1998, Gaussian, Inc.),
 the Gaussian(R) 94 system (copyright 1995, Gaussian, Inc.),
 the Gaussian 92(TM) system (copyright 1992, Gaussian, Inc.),
 the Gaussian 90(TM) system (copyright 1990, Gaussian, Inc.),
 the Gaussian 88(TM) system (copyright 1988, Gaussian, Inc.),
 the Gaussian 86(TM) system (copyright 1986, Carnegie Mellon
 University), and the Gaussian 82(TM) system (copyright 1983,
 Carnegie Mellon University). Gaussian is a federally registered
 trademark of Gaussian, Inc.
  
 This software contains proprietary and confidential information,
 including trade secrets, belonging to Gaussian, Inc.
  
 This software is provided under written license and may be
 used, copied, transmitted, or stored only in accord with that
 written license.
  
 The following legend is applicable only to US Government
 contracts under FAR:
  
                    RESTRICTED RIGHTS LEGEND
  
 Use, reproduction and disclosure by the US Government is
 subject to restrictions as set forth in subparagraphs (a)
 and (c) of the Commercial Computer Software - Restricted
 Rights clause in FAR 52.227-19.
  
 Gaussian, Inc.
 340 Quinnipiac St., Bldg. 40, Wallingford CT 06492
  
  
 ---------------------------------------------------------------
 Warning -- This program may not be used in any manner that
 competes with the business of Gaussian, Inc. or will provide
 assistance to any competitor of Gaussian, Inc.  The licensee
 of this program is prohibited from giving any competitor of
 Gaussian, Inc. access to this program.  By using this program,
 the user acknowledges that Gaussian, Inc. is engaged in the
 business of creating and licensing software in the field of
 computational chemistry and represents and warrants to the
 licensee that it is not a competitor of Gaussian, Inc. and that
 it will not use this program in any manner prohibited above.
 ---------------------------------------------------------------
  

 Cite this work as:
 Gaussian 16, Revision A.03,
 M. J. Frisch, G. W. Trucks, H. B. Schlegel, G. E. Scuseria, 
 M. A. Robb, J. R. Cheeseman, G. Scalmani, V. Barone, 
 G. A. Petersson, H. Nakatsuji, X. Li, M. Caricato, A. V. Marenich, 
 J. Bloino, B. G. Janesko, R. Gomperts, B. Mennucci, H. P. Hratchian, 
 J. V. Ortiz, A. F. Izmaylov, J. L. Sonnenberg, D. Williams-Young, 
 F. Ding, F. Lipparini, F. Egidi, J. Goings, B. Peng, A. Petrone, 
 T. Henderson, D. Ranasinghe, V. G. Zakrzewski, J. Gao, N. Rega, 
 G. Zheng, W. Liang, M. Hada, M. Ehara, K. Toyota, R. Fukuda, 
 J. Hasegawa, M. Ishida, T. Nakajima, Y. Honda, O. Kitao, H. Nakai, 
 T. Vreven, K. Throssell, J. A. Montgomery, Jr., J. E. Peralta, 
 F. Ogliaro, M. J. Bearpark, J. J. Heyd, E. N. Brothers, K. N. Kudin, 
 V. N. Staroverov, T. A. Keith, R. Kobayashi, J. Normand, 
 K. Raghavachari, A. P. Rendell, J. C. Burant, S. S. Iyengar, 
 J. Tomasi, M. Cossi, J. M. Millam, M. Klene, C. Adamo, R. Cammi, 
 J. W. Ochterski, R. L. Martin, K. Morokuma, O. Farkas, 
 J. B. Foresman, and D. J. Fox, Gaussian, Inc., Wallingford CT, 2016.
 
 ******************************************
 Gaussian 16:  ES64L-G16RevA.03 25-Dec-2016
                18-Apr-2025 
 ******************************************
 %chk=ethyl_propiolate.chk
 %nprocshared=24
 Will use up to   24 processors via shared memory.
 %mem=12GB
 --------------------------
 # ccsd(t)/6-311++g(d,p) sp
 --------------------------
 1/38=1,172=1/1;
 2/12=2,17=6,18=5,40=1/2;
 3/5=4,6=6,7=1111,11=9,25=1,30=1/1,2,3;
 4//1;
 5/5=2,38=5/2;
 8/6=4,9=120000,10=2/1,4;
 9/5=7,14=2/13;
 6/7=2,8=2,9=2,10=2/1;
 99/5=1,9=1/99;
 -------------------
 Title Card Required
 -------------------
 Symbolic Z-matrix:
 Charge =  0 Multiplicity = 2
 C                     2.1818   -0.41094  -0.06283 
 H                     3.44481  -0.88356  -0.13063 
 C                     1.07432   0.06733  -0.01751 
 C                    -0.27989   0.61386  -0.00391 
 O                    -0.51701   1.78919   0.01214 
 O                    -1.19261  -0.35425  -0.01014 
 C                    -2.566     0.0843    0.00855 
 C                    -3.42711  -1.15716  -0.00408 
 H                    -2.72339   0.68926   0.90389 
 H                    -2.73897   0.7185   -0.86333 
 H                    -3.23701  -1.74631  -0.90195 
 H                    -3.21998  -1.77606   0.86967 
 H                    -4.48087  -0.87379   0.0106 
 O                     4.49904  -0.60422   0.0881 
 H                     4.60625   0.24468  -0.36828 
 
                          Input orientation:                          
 ---------------------------------------------------------------------
 Center     Atomic      Atomic             Coordinates (Angstroms)
 Number     Number       Type             X           Y           Z
 ---------------------------------------------------------------------
      1          6           0        2.181798   -0.410940   -0.062830
      2          1           0        3.444813   -0.883564   -0.130626
      3          6           0        1.074315    0.067331   -0.017506
      4          6           0       -0.279887    0.613859   -0.003906
      5          8           0       -0.517014    1.789187    0.012136
      6          8           0       -1.192605   -0.354246   -0.010136
      7          6           0       -2.565995    0.084301    0.008553
      8          6           0       -3.427105   -1.157160   -0.004075
      9          1           0       -2.723386    0.689256    0.903887
     10          1           0       -2.738971    0.718502   -0.863326
     11          1           0       -3.237013   -1.746309   -0.901949
     12          1           0       -3.219983   -1.776060    0.869674
     13          1           0       -4.480873   -0.873786    0.010602
     14          8           0        4.499040   -0.604224    0.088099
     15          1           0        4.606249    0.244680   -0.368276
 ---------------------------------------------------------------------
                    Distance matrix (angstroms):
                    1          2          3          4          5
     1  C    0.000000
     2  H    1.350251   0.000000
     3  C    1.207193   2.556611   0.000000
     4  C    2.667129   4.016432   1.460391   0.000000
     5  O    3.482781   4.781219   2.344780   1.199117   0.000000
     6  O    3.375291   4.669084   2.305799   1.330534   2.247493
     7  C    4.774086   6.089823   3.640443   2.346674   2.665515
     8  C    5.658630   6.878527   4.665012   3.611300   4.141238
     9  H    5.119160   6.449082   3.957056   2.607769   2.621668
    10  H    5.111790   6.429825   3.959872   2.607038   2.617230
    11  H    5.643655   6.781303   4.760155   3.888633   4.553425
    12  H    5.649102   6.798283   4.756698   3.888318   4.555480
    13  H    6.679132   7.926950   5.634413   4.456633   4.775312
    14  O    2.330182   1.112325   3.491544   4.932579   5.558326
    15  H    2.530039   1.636565   3.553737   4.913592   5.364517
                    6          7          8          9         10
     6  O    0.000000
     7  C    1.441830   0.000000
     8  C    2.374384   1.510925   0.000000
     9  H    2.065823   1.091955   2.174596   0.000000
    10  H    2.066390   1.091927   2.174845   1.767524   0.000000
    11  H    2.629215   2.151839   1.090600   3.075196   2.514922
    12  H    2.627905   2.151784   1.090584   2.515067   3.075305
    13  H    3.329123   2.141190   1.091303   2.515913   2.516616
    14  O    5.697979   7.098952   7.945943   7.382550   7.419139
    15  H    5.840692   7.183927   8.162878   7.452489   7.377116
                   11         12         13         14         15
    11  H    0.000000
    12  H    1.771955   0.000000
    13  H    1.772353   1.772554   0.000000
    14  O    7.882326   7.846488   8.984292   0.000000
    15  H    8.109599   8.177152   9.163531   0.969747   0.000000
 Stoichiometry    C5H7O3(2)
 Framework group  C1[X(C5H7O3)]
 Deg. of freedom    39
 Full point group                 C1      NOp   1
 Largest Abelian subgroup         C1      NOp   1
 Largest concise Abelian subgroup C1      NOp   1
                         Standard orientation:                         
 ---------------------------------------------------------------------
 Center     Atomic      Atomic             Coordinates (Angstroms)
 Number     Number       Type             X           Y           Z
 ---------------------------------------------------------------------
      1          6           0        2.249413   -0.382429   -0.059350
      2          1           0        3.512215   -0.855576   -0.127465
      3          6           0        1.142142    0.096305   -0.013725
      4          6           0       -0.211822    0.643413    0.000230
      5          8           0       -0.448439    1.818838    0.016688
      6          8           0       -1.124958   -0.324296   -0.006197
      7          6           0       -2.498156    0.114837    0.012815
      8          6           0       -3.359804   -1.126248   -0.000107
      9          1           0       -2.655170    0.719568    0.908367
     10          1           0       -2.670972    0.749398   -0.858834
     11          1           0       -3.170083   -1.715185   -0.898198
     12          1           0       -3.152835   -1.745523    0.873413
     13          1           0       -4.413448   -0.842424    0.014800
     14          8           0        4.566591   -0.576763    0.091213
     15          1           0        4.674107    0.272244   -0.364898
 ---------------------------------------------------------------------
 Rotational constants (GHZ):           5.3743694           0.6867617           0.6141034
 Standard basis: 6-311++G(d,p) (5D, 7F)
 There are   233 symmetry adapted cartesian basis functions of A   symmetry.
 There are   225 symmetry adapted basis functions of A   symmetry.
   225 basis functions,   351 primitive gaussians,   233 cartesian basis functions
    31 alpha electrons       30 beta electrons
       nuclear repulsion energy       330.9444371991 Hartrees.
 NAtoms=   15 NActive=   15 NUniq=   15 SFac= 1.00D+00 NAtFMM=   60 NAOKFM=F Big=F
 Integral buffers will be    131072 words long.
 Raffenetti 2 integral format.
 Two-electron integral symmetry is turned on.
 One-electron integrals computed using PRISM.
 NBasis=   225 RedAO= T EigKep=  4.31D-06  NBF=   225
 NBsUse=   224 1.00D-06 EigRej=  4.07D-07 NBFU=   224
 ExpMin= 3.60D-02 ExpMax= 8.59D+03 ExpMxC= 1.30D+03 IAcc=3 IRadAn=         5 AccDes= 0.00D+00
 Harris functional with IExCor=  205 and IRadAn=       5 diagonalized for initial guess.
 HarFok:  IExCor=  205 AccDes= 0.00D+00 IRadAn=         5 IDoV= 1 UseB2=F ITyADJ=14
 ICtDFT=  3500011 ScaDFX=  1.000000  1.000000  1.000000  1.000000
 FoFCou: FMM=F IPFlag=           0 FMFlag=      100000 FMFlg1=           0
         NFxFlg=           0 DoJE=T BraDBF=F KetDBF=T FulRan=T
         wScrn=  0.000000 ICntrl=       500 IOpCl=  0 I1Cent=   200000004 NGrid=           0
         NMat0=    1 NMatS0=      1 NMatT0=    0 NMatD0=    1 NMtDS0=    0 NMtDT0=    0
 Petite list used in FoFCou.
 Initial guess <Sx>= 0.0000 <Sy>= 0.0000 <Sz>= 0.5000 <S**2>= 0.7500 S= 0.5000
 Requested convergence on RMS density matrix=1.00D-08 within 128 cycles.
 Requested convergence on MAX density matrix=1.00D-06.
 Requested convergence on             energy=1.00D-06.
 No special actions if energy rises.
 Initial convergence to 1.3D-05 achieved.  Increase integral accuracy.
 SCF Done:  E(UHF) =  -417.936807100     A.U. after   37 cycles
            NFock= 37  Conv=0.41D-08     -V/T= 2.0007
 <Sx>= 0.0000 <Sy>= 0.0000 <Sz>= 0.5000 <S**2>= 1.0654 S= 0.6469
 <L.S>=  0.00000000000    
 Annihilation of the first spin contaminant:
 S**2 before annihilation     1.0654,   after     0.8319
 ExpMin= 3.60D-02 ExpMax= 8.59D+03 ExpMxC= 1.30D+03 IAcc=3 IRadAn=         5 AccDes= 0.00D+00
 HarFok:  IExCor=  205 AccDes= 0.00D+00 IRadAn=         5 IDoV=-2 UseB2=F ITyADJ=14
 ICtDFT= 12500011 ScaDFX=  1.000000  1.000000  1.000000  1.000000
 Range of M.O.s used for correlation:     9   224
 NBasis=   225 NAE=    31 NBE=    30 NFC=     8 NFV=     0
 NROrb=    216 NOA=    23 NOB=    22 NVA=   193 NVB=   194

 **** Warning!!: The largest alpha MO coefficient is  0.17556583D+03


 **** Warning!!: The largest beta MO coefficient is  0.15750210D+03

 Semi-Direct transformation.
 ModeAB=           4 MOrb=            23 LenV=    1609197042
 LASXX=    107793295 LTotXX=   107793295 LenRXX=   218294035
 LTotAB=   110500740 MaxLAS=   119465496 LenRXY=           0
 NonZer=   326087330 LenScr=   491049984 LnRSAI=   119465496
 LnScr1=   179975680 LExtra=           0 Total=   1008785195
 MaxDsk=          -1 SrtSym=           T ITran=            4
 JobTyp=1 Pass  1:  I=   1 to  23.
 (rs|ai) integrals will be sorted in core.
 ModeAB=           4 MOrb=            22 LenV=    1609197042
 LASXX=    103454307 LTotXX=   103454307 LenRXX=   188091948
 LTotAB=    84637641 MaxLAS=   114271344 LenRXY=           0
 NonZer=   291546255 LenScr=   439034880 LnRSAI=   114271344
 LnScr1=   172177408 LExtra=           0 Total=    913575580
 MaxDsk=          -1 SrtSym=           T ITran=            4
 JobTyp=2 Pass  1:  I=   1 to  22.
 (rs|ai) integrals will be sorted in core.
 SymMOI:  orbitals are not symmetric.
 Spin components of T(2) and E(2):
     alpha-alpha T2 =       0.5277646198D-01 E2=     -0.1710886302D+00
     alpha-beta  T2 =       0.2862151261D+00 E2=     -0.9365468497D+00
     beta-beta   T2 =       0.5202843803D-01 E2=     -0.1621156418D+00
 ANorm=    0.1179415120D+01
 E2 =    -0.1269751122D+01 EUMP2 =    -0.41920655822142D+03
 (S**2,0)=  0.10654D+01           (S**2,1)=  0.97876D+00
 E(PUHF)=      -0.41796371740D+03        E(PMP2)=      -0.41923025089D+03
 Keep R2 and R3 ints in memory in canonical form, NReq=652883968.
 CIDS: In Core Option IDoMem=           1.
 Iterations=  50 Convergence= 0.100D-06
 Produce multiple copies of IABC intergrals
 Iteration Nr.   1
 **********************
 DD1Dir will call FoFMem   1 times, MxPair=      1496
 NAB=   506 NAA=   253 NBB=   231.
 E(PMP3)=      -0.41925028085D+03
 MP4(R+Q)=  0.24594292D-01
 E3=       -0.25385232D-01        EUMP3=      -0.41923194345D+03
 E4(DQ)=   -0.64437889D-02        UMP4(DQ)=   -0.41923838724D+03
 E4(SDQ)=  -0.29045702D-01        UMP4(SDQ)=  -0.41926098916D+03
 DE(Corr)=  -1.2703260     E(Corr)=     -419.20713306    
 NORM(A)=   0.11883785D+01
 Iteration Nr.   2
 **********************
 DD1Dir will call FoFMem   1 times, MxPair=      1496
 NAB=   506 NAA=   253 NBB=   231.
 DE(Corr)=  -1.3153864     E(CORR)=     -419.25219349     Delta=-4.51D-02
 NORM(A)=   0.12120649D+01
 Iteration Nr.   3
 **********************
 DD1Dir will call FoFMem   1 times, MxPair=      1496
 NAB=   506 NAA=   253 NBB=   231.
 DE(Corr)=  -1.3195078     E(CORR)=     -419.25631490     Delta=-4.12D-03
 NORM(A)=   0.12272423D+01
 Iteration Nr.   4
 **********************
 DD1Dir will call FoFMem   1 times, MxPair=      1496
 NAB=   506 NAA=   253 NBB=   231.
 DE(Corr)=  -1.3280571     E(CORR)=     -419.26486425     Delta=-8.55D-03
 NORM(A)=   0.12377310D+01
 Iteration Nr.   5
 **********************
 DD1Dir will call FoFMem   1 times, MxPair=      1496
 NAB=   506 NAA=   253 NBB=   231.
 DE(Corr)=  -1.3307687     E(CORR)=     -419.26757584     Delta=-2.71D-03
 NORM(A)=   0.12437936D+01
 Iteration Nr.   6
 **********************
 DD1Dir will call FoFMem   1 times, MxPair=      1496
 NAB=   506 NAA=   253 NBB=   231.
 DE(Corr)=  -1.3317152     E(CORR)=     -419.26852227     Delta=-9.46D-04
 NORM(A)=   0.12453280D+01
 Iteration Nr.   7
 **********************
 DD1Dir will call FoFMem   1 times, MxPair=      1496
 NAB=   506 NAA=   253 NBB=   231.
 DE(Corr)=  -1.3319114     E(CORR)=     -419.26871848     Delta=-1.96D-04
 NORM(A)=   0.12460008D+01
 Iteration Nr.   8
 **********************
 DD1Dir will call FoFMem   1 times, MxPair=      1496
 NAB=   506 NAA=   253 NBB=   231.
 DE(Corr)=  -1.3319082     E(CORR)=     -419.26871525     Delta= 3.22D-06
 NORM(A)=   0.12463481D+01
 Iteration Nr.   9
 **********************
 DD1Dir will call FoFMem   1 times, MxPair=      1496
 NAB=   506 NAA=   253 NBB=   231.
 DE(Corr)=  -1.3318956     E(CORR)=     -419.26870274     Delta= 1.25D-05
 NORM(A)=   0.12465627D+01
 Iteration Nr.  10
 **********************
 DD1Dir will call FoFMem   1 times, MxPair=      1496
 NAB=   506 NAA=   253 NBB=   231.
 DE(Corr)=  -1.3318648     E(CORR)=     -419.26867189     Delta= 3.08D-05
 NORM(A)=   0.12467750D+01
 Iteration Nr.  11
 **********************
 DD1Dir will call FoFMem   1 times, MxPair=      1496
 NAB=   506 NAA=   253 NBB=   231.
 DE(Corr)=  -1.3318826     E(CORR)=     -419.26868965     Delta=-1.78D-05
 NORM(A)=   0.12470120D+01
 Iteration Nr.  12
 **********************
 DD1Dir will call FoFMem   1 times, MxPair=      1496
 NAB=   506 NAA=   253 NBB=   231.
 DE(Corr)=  -1.3319120     E(CORR)=     -419.26871909     Delta=-2.94D-05
 NORM(A)=   0.12472441D+01
 Iteration Nr.  13
 **********************
 DD1Dir will call FoFMem   1 times, MxPair=      1496
 NAB=   506 NAA=   253 NBB=   231.
 DE(Corr)=  -1.3319523     E(CORR)=     -419.26875944     Delta=-4.03D-05
 NORM(A)=   0.12474304D+01
 Iteration Nr.  14
 **********************
 DD1Dir will call FoFMem   1 times, MxPair=      1496
 NAB=   506 NAA=   253 NBB=   231.
 DE(Corr)=  -1.3319910     E(CORR)=     -419.26879812     Delta=-3.87D-05
 NORM(A)=   0.12475923D+01
 Iteration Nr.  15
 **********************
 DD1Dir will call FoFMem   1 times, MxPair=      1496
 NAB=   506 NAA=   253 NBB=   231.
 DE(Corr)=  -1.3320187     E(CORR)=     -419.26882584     Delta=-2.77D-05
 NORM(A)=   0.12476812D+01
 Iteration Nr.  16
 **********************
 DD1Dir will call FoFMem   1 times, MxPair=      1496
 NAB=   506 NAA=   253 NBB=   231.
 DE(Corr)=  -1.3320350     E(CORR)=     -419.26884214     Delta=-1.63D-05
 NORM(A)=   0.12477181D+01
 Iteration Nr.  17
 **********************
 DD1Dir will call FoFMem   1 times, MxPair=      1496
 NAB=   506 NAA=   253 NBB=   231.
 DE(Corr)=  -1.3320389     E(CORR)=     -419.26884604     Delta=-3.90D-06
 NORM(A)=   0.12477164D+01
 Iteration Nr.  18
 **********************
 DD1Dir will call FoFMem   1 times, MxPair=      1496
 NAB=   506 NAA=   253 NBB=   231.
 DE(Corr)=  -1.3320359     E(CORR)=     -419.26884296     Delta= 3.08D-06
 NORM(A)=   0.12477048D+01
 Iteration Nr.  19
 **********************
 DD1Dir will call FoFMem   1 times, MxPair=      1496
 NAB=   506 NAA=   253 NBB=   231.
 DE(Corr)=  -1.3320316     E(CORR)=     -419.26883870     Delta= 4.26D-06
 NORM(A)=   0.12476928D+01
 Iteration Nr.  20
 **********************
 DD1Dir will call FoFMem   1 times, MxPair=      1496
 NAB=   506 NAA=   253 NBB=   231.
 DE(Corr)=  -1.3320269     E(CORR)=     -419.26883396     Delta= 4.74D-06
 NORM(A)=   0.12476880D+01
 Iteration Nr.  21
 **********************
 DD1Dir will call FoFMem   1 times, MxPair=      1496
 NAB=   506 NAA=   253 NBB=   231.
 DE(Corr)=  -1.3320244     E(CORR)=     -419.26883152     Delta= 2.44D-06
 NORM(A)=   0.12476938D+01
 Iteration Nr.  22
 **********************
 DD1Dir will call FoFMem   1 times, MxPair=      1496
 NAB=   506 NAA=   253 NBB=   231.
 DE(Corr)=  -1.3320242     E(CORR)=     -419.26883128     Delta= 2.41D-07
 NORM(A)=   0.12477061D+01
 Iteration Nr.  23
 **********************
 DD1Dir will call FoFMem   1 times, MxPair=      1496
 NAB=   506 NAA=   253 NBB=   231.
 DE(Corr)=  -1.3320253     E(CORR)=     -419.26883244     Delta=-1.16D-06
 NORM(A)=   0.12477218D+01
 Iteration Nr.  24
 **********************
 DD1Dir will call FoFMem   1 times, MxPair=      1496
 NAB=   506 NAA=   253 NBB=   231.
 DE(Corr)=  -1.3320275     E(CORR)=     -419.26883456     Delta=-2.11D-06
 NORM(A)=   0.12477339D+01
 Iteration Nr.  25
 **********************
 DD1Dir will call FoFMem   1 times, MxPair=      1496
 NAB=   506 NAA=   253 NBB=   231.
 DE(Corr)=  -1.3320291     E(CORR)=     -419.26883621     Delta=-1.66D-06
 NORM(A)=   0.12477413D+01
 Iteration Nr.  26
 **********************
 DD1Dir will call FoFMem   1 times, MxPair=      1496
 NAB=   506 NAA=   253 NBB=   231.
 DE(Corr)=  -1.3320302     E(CORR)=     -419.26883729     Delta=-1.08D-06
 NORM(A)=   0.12477452D+01
 Iteration Nr.  27
 **********************
 DD1Dir will call FoFMem   1 times, MxPair=      1496
 NAB=   506 NAA=   253 NBB=   231.
 DE(Corr)=  -1.3320308     E(CORR)=     -419.26883788     Delta=-5.89D-07
 NORM(A)=   0.12477464D+01
 Iteration Nr.  28
 **********************
 DD1Dir will call FoFMem   1 times, MxPair=      1496
 NAB=   506 NAA=   253 NBB=   231.
 DE(Corr)=  -1.3320309     E(CORR)=     -419.26883798     Delta=-1.05D-07
 NORM(A)=   0.12477457D+01
 Iteration Nr.  29
 **********************
 DD1Dir will call FoFMem   1 times, MxPair=      1496
 NAB=   506 NAA=   253 NBB=   231.
 DE(Corr)=  -1.3320308     E(CORR)=     -419.26883787     Delta= 1.08D-07
 NORM(A)=   0.12477444D+01
 Iteration Nr.  30
 **********************
 DD1Dir will call FoFMem   1 times, MxPair=      1496
 NAB=   506 NAA=   253 NBB=   231.
 DE(Corr)=  -1.3320305     E(CORR)=     -419.26883759     Delta= 2.84D-07
 NORM(A)=   0.12477429D+01
 Iteration Nr.  31
 **********************
 DD1Dir will call FoFMem   1 times, MxPair=      1496
 NAB=   506 NAA=   253 NBB=   231.
 DE(Corr)=  -1.3320302     E(CORR)=     -419.26883730     Delta= 2.92D-07
 NORM(A)=   0.12477424D+01
 Iteration Nr.  32
 **********************
 DD1Dir will call FoFMem   1 times, MxPair=      1496
 NAB=   506 NAA=   253 NBB=   231.
 DE(Corr)=  -1.3320300     E(CORR)=     -419.26883714     Delta= 1.58D-07
 NORM(A)=   0.12477426D+01
 Iteration Nr.  33
 **********************
 DD1Dir will call FoFMem   1 times, MxPair=      1496
 NAB=   506 NAA=   253 NBB=   231.
 DE(Corr)=  -1.3320300     E(CORR)=     -419.26883709     Delta= 5.26D-08
 NORM(A)=   0.12477434D+01
 Wavefunction amplitudes converged. E(Corr)=     -419.26883709    
 Largest amplitude= 9.21D-02
 Time for triples=    36692.11 seconds.
 T4(CCSD)= -0.59662150D-01
 T5(CCSD)=  0.43851319D-02
 CCSD(T)= -0.41932411411D+03

 S**2, projected HF & approx projected MPn energies after annihilation of
 unwanted spin states (see manual for definitions):

 spins       (S**2,0) (S**2,1)    PUHF        PMP2        PMP3        PMP4
 annihilated
 s+1         0.70300  0.73309 -417.963717 -419.230251 -419.250281
 s+1,s+2     0.75179  0.74981 -417.960412 -419.227143 -419.247434
 s+1 to s+3  0.74998  0.75001 -417.960538 -419.227233 -419.247468
 s+1 to s+4  0.75000  0.75000 -417.960536 -419.227231 -419.247467
 s+1 to s+5  0.75000  0.75000 -417.960536
 s+1 to s+6  0.75000  0.75000 -417.960536

 Discarding MO integrals.

 **********************************************************************

            Population analysis using the SCF density.

 **********************************************************************

 Orbital symmetries:
 Alpha Orbitals:
       Occupied  (A) (A) (A) (A) (A) (A) (A) (A) (A) (A) (A) (A)
                 (A) (A) (A) (A) (A) (A) (A) (A) (A) (A) (A) (A)
                 (A) (A) (A) (A) (A) (A) (A)
       Virtual   (A) (A) (A) (A) (A) (A) (A) (A) (A) (A) (A) (A)
                 (A) (A) (A) (A) (A) (A) (A) (A) (A) (A) (A) (A)
                 (A) (A) (A) (A) (A) (A) (A) (A) (A) (A) (A) (A)
                 (A) (A) (A) (A) (A) (A) (A) (A) (A) (A) (A) (A)
                 (A) (A) (A) (A) (A) (A) (A) (A) (A) (A) (A) (A)
                 (A) (A) (A) (A) (A) (A) (A) (A) (A) (A) (A) (A)
                 (A) (A) (A) (A) (A) (A) (A) (A) (A) (A) (A) (A)
                 (A) (A) (A) (A) (A) (A) (A) (A) (A) (A) (A) (A)
                 (A) (A) (A) (A) (A) (A) (A) (A) (A) (A) (A) (A)
                 (A) (A) (A) (A) (A) (A) (A) (A) (A) (A) (A) (A)
                 (A) (A) (A) (A) (A) (A) (A) (A) (A) (A) (A) (A)
                 (A) (A) (A) (A) (A) (A) (A) (A) (A) (A) (A) (A)
                 (A) (A) (A) (A) (A) (A) (A) (A) (A) (A) (A) (A)
                 (A) (A) (A) (A) (A) (A) (A) (A) (A) (A) (A) (A)
                 (A) (A) (A) (A) (A) (A) (A) (A) (A) (A) (A) (A)
                 (A) (A) (A) (A) (A) (A) (A) (A) (A) (A) (A) (A)
                 (A)
 Beta  Orbitals:
       Occupied  (A) (A) (A) (A) (A) (A) (A) (A) (A) (A) (A) (A)
                 (A) (A) (A) (A) (A) (A) (A) (A) (A) (A) (A) (A)
                 (A) (A) (A) (A) (A) (A)
       Virtual   (A) (A) (A) (A) (A) (A) (A) (A) (A) (A) (A) (A)
                 (A) (A) (A) (A) (A) (A) (A) (A) (A) (A) (A) (A)
                 (A) (A) (A) (A) (A) (A) (A) (A) (A) (A) (A) (A)
                 (A) (A) (A) (A) (A) (A) (A) (A) (A) (A) (A) (A)
                 (A) (A) (A) (A) (A) (A) (A) (A) (A) (A) (A) (A)
                 (A) (A) (A) (A) (A) (A) (A) (A) (A) (A) (A) (A)
                 (A) (A) (A) (A) (A) (A) (A) (A) (A) (A) (A) (A)
                 (A) (A) (A) (A) (A) (A) (A) (A) (A) (A) (A) (A)
                 (A) (A) (A) (A) (A) (A) (A) (A) (A) (A) (A) (A)
                 (A) (A) (A) (A) (A) (A) (A) (A) (A) (A) (A) (A)
                 (A) (A) (A) (A) (A) (A) (A) (A) (A) (A) (A) (A)
                 (A) (A) (A) (A) (A) (A) (A) (A) (A) (A) (A) (A)
                 (A) (A) (A) (A) (A) (A) (A) (A) (A) (A) (A) (A)
                 (A) (A) (A) (A) (A) (A) (A) (A) (A) (A) (A) (A)
                 (A) (A) (A) (A) (A) (A) (A) (A) (A) (A) (A) (A)
                 (A) (A) (A) (A) (A) (A) (A) (A) (A) (A) (A) (A)
                 (A) (A)
 The electronic state is 2-A.
 Alpha  occ. eigenvalues --  -20.65997 -20.61573 -20.56100 -11.41774 -11.29962
 Alpha  occ. eigenvalues --  -11.29364 -11.25061 -11.23112  -1.48404  -1.43884
 Alpha  occ. eigenvalues --   -1.37938  -1.07956  -1.04936  -0.92356  -0.84041
 Alpha  occ. eigenvalues --   -0.81450  -0.76481  -0.70397  -0.69688  -0.69094
 Alpha  occ. eigenvalues --   -0.59993  -0.59479  -0.59391  -0.56673  -0.55950
 Alpha  occ. eigenvalues --   -0.52313  -0.52115  -0.48027  -0.46602  -0.44257
 Alpha  occ. eigenvalues --   -0.43952
 Alpha virt. eigenvalues --    0.03991   0.04353   0.06218   0.06469   0.06923
 Alpha virt. eigenvalues --    0.07997   0.09186   0.09757   0.11444   0.12083
 Alpha virt. eigenvalues --    0.12692   0.14205   0.15567   0.15677   0.15968
 Alpha virt. eigenvalues --    0.16849   0.18222   0.18423   0.19124   0.19690
 Alpha virt. eigenvalues --    0.20077   0.20769   0.22334   0.22496   0.23301
 Alpha virt. eigenvalues --    0.24754   0.26594   0.27545   0.28580   0.29296
 Alpha virt. eigenvalues --    0.29656   0.30010   0.30896   0.32239   0.32460
 Alpha virt. eigenvalues --    0.33619   0.35567   0.36376   0.37688   0.38990
 Alpha virt. eigenvalues --    0.40394   0.40893   0.41710   0.42098   0.43739
 Alpha virt. eigenvalues --    0.45087   0.45999   0.47441   0.48223   0.49591
 Alpha virt. eigenvalues --    0.54266   0.56910   0.57499   0.58469   0.63486
 Alpha virt. eigenvalues --    0.64994   0.67854   0.70052   0.70372   0.73057
 Alpha virt. eigenvalues --    0.75856   0.78344   0.81288   0.84326   0.85292
 Alpha virt. eigenvalues --    0.85804   0.86565   0.86776   0.87348   0.89688
 Alpha virt. eigenvalues --    0.90424   0.92160   0.94810   0.97751   0.99318
 Alpha virt. eigenvalues --    1.07724   1.08598   1.11113   1.17901   1.19126
 Alpha virt. eigenvalues --    1.20620   1.22730   1.24939   1.28628   1.32868
 Alpha virt. eigenvalues --    1.35398   1.36541   1.38466   1.38980   1.41769
 Alpha virt. eigenvalues --    1.42505   1.42994   1.48853   1.48979   1.50335
 Alpha virt. eigenvalues --    1.51266   1.52966   1.57276   1.60519   1.64737
 Alpha virt. eigenvalues --    1.69161   1.71428   1.72136   1.77451   1.80010
 Alpha virt. eigenvalues --    1.80891   1.81563   1.84254   1.85095   1.87305
 Alpha virt. eigenvalues --    1.88961   1.92300   1.92677   1.94797   1.98318
 Alpha virt. eigenvalues --    2.00727   2.01718   2.08131   2.10770   2.16140
 Alpha virt. eigenvalues --    2.19223   2.21513   2.28591   2.30622   2.34768
 Alpha virt. eigenvalues --    2.41191   2.41269   2.47930   2.55871   2.58923
 Alpha virt. eigenvalues --    2.64642   2.72292   2.77021   2.77703   2.79865
 Alpha virt. eigenvalues --    2.81865   2.85462   2.88212   2.92369   2.94633
 Alpha virt. eigenvalues --    2.96269   2.98211   3.02231   3.03984   3.13463
 Alpha virt. eigenvalues --    3.14074   3.16320   3.21548   3.28243   3.28837
 Alpha virt. eigenvalues --    3.31137   3.33071   3.35015   3.38100   3.43452
 Alpha virt. eigenvalues --    3.43646   3.44815   3.50073   3.55196   3.60914
 Alpha virt. eigenvalues --    3.63715   3.68771   3.72245   3.78433   3.93327
 Alpha virt. eigenvalues --    3.98745   4.04353   4.11177   4.19699   4.21606
 Alpha virt. eigenvalues --    4.21715   4.22830   4.41631   4.49986   4.52144
 Alpha virt. eigenvalues --    4.69087   5.48671   5.56208   5.62228   5.76877
 Alpha virt. eigenvalues --    5.76980   5.91052   6.04681   6.21360   6.42873
 Alpha virt. eigenvalues --   24.53557  24.99289  25.01456  25.13773  26.10611
 Alpha virt. eigenvalues --   51.49072  51.60019  51.71047
  Beta  occ. eigenvalues --  -20.63040 -20.61592 -20.56631 -11.41375 -11.29969
  Beta  occ. eigenvalues --  -11.26628 -11.25264 -11.23113  -1.48664  -1.38802
  Beta  occ. eigenvalues --   -1.33492  -1.07957  -1.03690  -0.90757  -0.82858
  Beta  occ. eigenvalues --   -0.76780  -0.73365  -0.69835  -0.69698  -0.60798
  Beta  occ. eigenvalues --   -0.60238  -0.59059  -0.56141  -0.54006  -0.53016
  Beta  occ. eigenvalues --   -0.52371  -0.48920  -0.47800  -0.42767  -0.42410
  Beta virt. eigenvalues --   -0.00457   0.04115   0.05430   0.06234   0.06479
  Beta virt. eigenvalues --    0.06974   0.08081   0.09597   0.10213   0.11426
  Beta virt. eigenvalues --    0.12745   0.13078   0.14156   0.15200   0.16134
  Beta virt. eigenvalues --    0.16696   0.17309   0.18441   0.18669   0.19239
  Beta virt. eigenvalues --    0.19682   0.20124   0.21287   0.22457   0.23028
  Beta virt. eigenvalues --    0.24081   0.24876   0.26780   0.27991   0.28826
  Beta virt. eigenvalues --    0.29580   0.29622   0.30046   0.31324   0.32472
  Beta virt. eigenvalues --    0.32802   0.33850   0.35670   0.36698   0.37674
  Beta virt. eigenvalues --    0.38867   0.40440   0.40942   0.41572   0.42670
  Beta virt. eigenvalues --    0.44344   0.45195   0.46005   0.47515   0.49349
  Beta virt. eigenvalues --    0.50195   0.54306   0.56918   0.57518   0.59403
  Beta virt. eigenvalues --    0.63842   0.64927   0.68206   0.70439   0.72213
  Beta virt. eigenvalues --    0.73633   0.77833   0.80292   0.81626   0.84089
  Beta virt. eigenvalues --    0.85320   0.85926   0.86064   0.86813   0.87076
  Beta virt. eigenvalues --    0.89942   0.91169   0.93820   0.96740   0.97881
  Beta virt. eigenvalues --    1.00419   1.07606   1.08062   1.11029   1.19150
  Beta virt. eigenvalues --    1.20590   1.21518   1.23263   1.27323   1.30948
  Beta virt. eigenvalues --    1.35633   1.35757   1.37129   1.38293   1.38833
  Beta virt. eigenvalues --    1.42214   1.42977   1.43133   1.49023   1.49467
  Beta virt. eigenvalues --    1.51227   1.51842   1.53381   1.58395   1.62191
  Beta virt. eigenvalues --    1.65719   1.70698   1.71429   1.72559   1.78918
  Beta virt. eigenvalues --    1.80024   1.80849   1.82305   1.84453   1.85617
  Beta virt. eigenvalues --    1.87648   1.89056   1.92338   1.92547   1.94889
  Beta virt. eigenvalues --    1.99188   2.00990   2.01819   2.09168   2.11147
  Beta virt. eigenvalues --    2.16240   2.19665   2.23514   2.28593   2.31436
  Beta virt. eigenvalues --    2.35161   2.41282   2.42215   2.47946   2.55927
  Beta virt. eigenvalues --    2.60375   2.64651   2.73104   2.77524   2.78795
  Beta virt. eigenvalues --    2.80586   2.81888   2.85527   2.88210   2.92412
  Beta virt. eigenvalues --    2.94773   2.96268   2.98377   3.02897   3.04389
  Beta virt. eigenvalues --    3.13145   3.14445   3.17255   3.21372   3.27672
  Beta virt. eigenvalues --    3.29961   3.31587   3.34847   3.37459   3.38226
  Beta virt. eigenvalues --    3.43677   3.44578   3.45407   3.51357   3.59970
  Beta virt. eigenvalues --    3.60956   3.64031   3.69431   3.73264   3.77573
  Beta virt. eigenvalues --    3.96073   3.99835   4.05539   4.11559   4.19693
  Beta virt. eigenvalues --    4.21605   4.21745   4.27358   4.42079   4.50224
  Beta virt. eigenvalues --    4.52086   4.69090   5.51050   5.56072   5.60847
  Beta virt. eigenvalues --    5.76590   5.83947   5.91013   6.07375   6.21199
  Beta virt. eigenvalues --    6.42768  24.54830  24.99491  25.01598  25.13772
  Beta virt. eigenvalues --   26.11433  51.50729  51.59982  51.70759
          Condensed to atoms (all electrons):
               1          2          3          4          5          6
     1  C    6.396216   0.151398  -1.926270   2.186084  -0.087935  -0.123219
     2  H    0.151398   0.340792  -0.152867   0.091922  -0.000629  -0.002670
     3  C   -1.926270  -0.152867  16.161365  -8.959363   0.283002   0.021812
     4  C    2.186084   0.091922  -8.959363  13.201923   0.175620  -0.137542
     5  O   -0.087935  -0.000629   0.283002   0.175620   8.080214  -0.100586
     6  O   -0.123219  -0.002670   0.021812  -0.137542  -0.100586   8.466412
     7  C    0.050647   0.002059  -0.548173   0.065331  -0.039761   0.247460
     8  C    0.060158   0.001107  -0.368237   0.314257   0.016201  -0.202408
     9  H   -0.000897  -0.000036  -0.000442  -0.006645  -0.013856  -0.035091
    10  H   -0.001882  -0.000012   0.005339  -0.008523  -0.013737  -0.034773
    11  H   -0.001869  -0.000066   0.017266  -0.006448  -0.000963  -0.009279
    12  H   -0.001223  -0.000067   0.013904  -0.002847  -0.001089  -0.009767
    13  H   -0.000707  -0.000003   0.002272  -0.003180   0.001591   0.024699
    14  O   -0.005203   0.203567  -0.027606   0.016363   0.000039   0.000088
    15  H    0.032074  -0.042976   0.004956   0.001080  -0.000113  -0.000021
               7          8          9         10         11         12
     1  C    0.050647   0.060158  -0.000897  -0.001882  -0.001869  -0.001223
     2  H    0.002059   0.001107  -0.000036  -0.000012  -0.000066  -0.000067
     3  C   -0.548173  -0.368237  -0.000442   0.005339   0.017266   0.013904
     4  C    0.065331   0.314257  -0.006645  -0.008523  -0.006448  -0.002847
     5  O   -0.039761   0.016201  -0.013856  -0.013737  -0.000963  -0.001089
     6  O    0.247460  -0.202408  -0.035091  -0.034773  -0.009279  -0.009767
     7  C    5.453373   0.025344   0.447628   0.444367  -0.033400  -0.036717
     8  C    0.025344   5.689097  -0.060050  -0.059876   0.392676   0.396219
     9  H    0.447628  -0.060050   0.546690  -0.049619   0.004389  -0.006070
    10  H    0.444367  -0.059876  -0.049619   0.548269  -0.006214   0.004447
    11  H   -0.033400   0.392676   0.004389  -0.006214   0.564833  -0.040028
    12  H   -0.036717   0.396219  -0.006070   0.004447  -0.040028   0.563498
    13  H   -0.049130   0.411938  -0.003892  -0.003993  -0.034253  -0.034323
    14  O    0.000069   0.000100   0.000019   0.000007  -0.000004   0.000001
    15  H   -0.000174   0.000007   0.000005  -0.000005   0.000001   0.000003
              13         14         15
     1  C   -0.000707  -0.005203   0.032074
     2  H   -0.000003   0.203567  -0.042976
     3  C    0.002272  -0.027606   0.004956
     4  C   -0.003180   0.016363   0.001080
     5  O    0.001591   0.000039  -0.000113
     6  O    0.024699   0.000088  -0.000021
     7  C   -0.049130   0.000069  -0.000174
     8  C    0.411938   0.000100   0.000007
     9  H   -0.003892   0.000019   0.000005
    10  H   -0.003993   0.000007  -0.000005
    11  H   -0.034253  -0.000004   0.000001
    12  H   -0.034323   0.000001   0.000003
    13  H    0.548391  -0.000001  -0.000001
    14  O   -0.000001   7.770607   0.298125
    15  H   -0.000001   0.298125   0.430492
          Atomic-Atomic Spin Densities.
               1          2          3          4          5          6
     1  C    1.702047  -0.060293  -0.256699   0.138025   0.003407  -0.006737
     2  H   -0.060293  -0.120240  -0.026036   0.019080   0.000018  -0.000172
     3  C   -0.256699  -0.026036  -0.062638  -0.580405  -0.009524   0.087550
     4  C    0.138025   0.019080  -0.580405   0.556856   0.041872  -0.086700
     5  O    0.003407   0.000018  -0.009524   0.041872  -0.148619   0.000865
     6  O   -0.006737  -0.000172   0.087550  -0.086700   0.000865   0.010008
     7  C   -0.000500  -0.000477   0.007582   0.002892   0.001258  -0.001677
     8  C    0.008212   0.000424  -0.034968   0.017451   0.000903   0.000275
     9  H   -0.000721  -0.000035   0.005296  -0.003191   0.000191  -0.000115
    10  H   -0.000576  -0.000025   0.004073  -0.002296   0.000149  -0.000052
    11  H   -0.000203  -0.000012   0.001286  -0.000647   0.000005  -0.000068
    12  H   -0.000091  -0.000009   0.000871  -0.000344   0.000022  -0.000155
    13  H   -0.000165  -0.000007   0.001185  -0.000466   0.000005   0.000050
    14  O   -0.072168   0.024309  -0.037020   0.019943   0.000061   0.000015
    15  H   -0.001966   0.000665   0.001543  -0.002232  -0.000017   0.000007
               7          8          9         10         11         12
     1  C   -0.000500   0.008212  -0.000721  -0.000576  -0.000203  -0.000091
     2  H   -0.000477   0.000424  -0.000035  -0.000025  -0.000012  -0.000009
     3  C    0.007582  -0.034968   0.005296   0.004073   0.001286   0.000871
     4  C    0.002892   0.017451  -0.003191  -0.002296  -0.000647  -0.000344
     5  O    0.001258   0.000903   0.000191   0.000149   0.000005   0.000022
     6  O   -0.001677   0.000275  -0.000115  -0.000052  -0.000068  -0.000155
     7  C   -0.009086  -0.000059  -0.000200  -0.000364   0.000361   0.000353
     8  C   -0.000059   0.011108  -0.001263  -0.000808  -0.000611  -0.000575
     9  H   -0.000200  -0.001263   0.000162  -0.000230  -0.000016   0.000028
    10  H   -0.000364  -0.000808  -0.000230   0.000135   0.000016  -0.000005
    11  H    0.000361  -0.000611  -0.000016   0.000016  -0.000109   0.000013
    12  H    0.000353  -0.000575   0.000028  -0.000005   0.000013  -0.000075
    13  H   -0.000006  -0.000475  -0.000027  -0.000020  -0.000011  -0.000028
    14  O    0.000105   0.000023   0.000005   0.000001  -0.000001   0.000001
    15  H    0.000033  -0.000026   0.000002   0.000002   0.000000   0.000000
              13         14         15
     1  C   -0.000165  -0.072168  -0.001966
     2  H   -0.000007   0.024309   0.000665
     3  C    0.001185  -0.037020   0.001543
     4  C   -0.000466   0.019943  -0.002232
     5  O    0.000005   0.000061  -0.000017
     6  O    0.000050   0.000015   0.000007
     7  C   -0.000006   0.000105   0.000033
     8  C   -0.000475   0.000023  -0.000026
     9  H   -0.000027   0.000005   0.000002
    10  H   -0.000020   0.000001   0.000002
    11  H   -0.000011  -0.000001   0.000000
    12  H   -0.000028   0.000001   0.000000
    13  H   -0.000096  -0.000000   0.000000
    14  O   -0.000000   0.682855   0.005345
    15  H    0.000000   0.005345  -0.030876
 Mulliken charges and spin densities:
               1          2
     1  C   -0.727374   1.451573
     2  H    0.408481  -0.162809
     3  C    1.473041  -0.897905
     4  C   -0.928034   0.119836
     5  O   -0.297998  -0.109403
     6  O   -0.105117   0.003094
     7  C   -0.028922   0.000214
     8  C   -0.616531  -0.000389
     9  H    0.177866  -0.000115
    10  H    0.176204   0.000002
    11  H    0.153358   0.000003
    12  H    0.154058   0.000005
    13  H    0.140592  -0.000060
    14  O   -0.256171   0.623473
    15  H    0.276547  -0.027519
 Sum of Mulliken charges =  -0.00000   1.00000
 Mulliken charges and spin densities with hydrogens summed into heavy atoms:
               1          2
     1  C   -0.727374   1.451573
     3  C    1.473041  -0.897905
     4  C   -0.928034   0.119836
     5  O   -0.297998  -0.109403
     6  O   -0.105117   0.003094
     7  C    0.325148   0.000101
     8  C   -0.168524  -0.000442
    14  O    0.428858   0.433145
 Electronic spatial extent (au):  <R**2>=           1754.1998
 Charge=             -0.0000 electrons
 Dipole moment (field-independent basis, Debye):
    X=             -0.5069    Y=             -0.7644    Z=             -0.9926  Tot=              1.3515
 Quadrupole moment (field-independent basis, Debye-Ang):
   XX=            -33.1460   YY=            -54.8579   ZZ=            -47.2785
   XY=              5.5989   XZ=             -4.8190   YZ=             -0.2946
 Traceless Quadrupole moment (field-independent basis, Debye-Ang):
   XX=             11.9481   YY=             -9.7637   ZZ=             -2.1844
   XY=              5.5989   XZ=             -4.8190   YZ=             -0.2946
 Octapole moment (field-independent basis, Debye-Ang**2):
  XXX=             16.0071  YYY=            -11.3860  ZZZ=             -0.0948  XYY=              4.2326
  XXY=             27.6644  XXZ=            -21.8492  XZZ=             -1.5576  YZZ=              1.9244
  YYZ=             -0.1093  XYZ=             -1.0028
 Hexadecapole moment (field-independent basis, Debye-Ang**3):
 XXXX=          -1654.8909 YYYY=           -298.4548 ZZZZ=            -60.5880 XXXY=            130.2788
 XXXZ=           -101.7081 YYYX=             -1.4509 YYYZ=             -0.9290 ZZZX=             -1.8009
 ZZZY=             -0.2602 XXYY=           -362.3066 XXZZ=           -327.9357 YYZZ=            -53.0750
 XXYZ=             -5.6851 YYXZ=             -0.1457 ZZXY=             -1.1515
 N-N= 3.309444371991D+02 E-N=-1.644398075250D+03  KE= 4.176291508080D+02
 1\1\GINC-AJ\SP\UCCSD(T)-FC\6-311++G(d,p)\C5H7O3(2)\AAYUSH\18-Apr-2025\
 0\\# ccsd(t)/6-311++g(d,p) sp\\Title Card Required\\0,2\C,0,2.181798,-
 0.41094,-0.06283\H,0,3.444813,-0.883564,-0.130626\C,0,1.074315,0.06733
 1,-0.017506\C,0,-0.279887,0.613859,-0.003906\O,0,-0.517014,1.789187,0.
 012136\O,0,-1.192605,-0.354246,-0.010136\C,0,-2.565995,0.084301,0.0085
 53\C,0,-3.427105,-1.15716,-0.004075\H,0,-2.723386,0.689256,0.903887\H,
 0,-2.738971,0.718502,-0.863326\H,0,-3.237013,-1.746309,-0.901949\H,0,-
 3.219983,-1.77606,0.869674\H,0,-4.480873,-0.873786,0.010602\O,0,4.4990
 4,-0.604224,0.088099\H,0,4.606249,0.24468,-0.368276\\Version=ES64L-G16
 RevA.03\State=2-A\HF=-417.9368071\MP2=-419.2065582\MP3=-419.2319435\MP
 4D=-419.2629815\MP4DQ=-419.2383872\PUHF=-417.9637174\PMP2-0=-419.23025
 09\PMP3-0=-419.2502808\MP4SDQ=-419.2609892\CCSD=-419.2688371\CCSD(T)=-
 419.3241141\S2=1.065431\S2-1=0.97876\S2A=0.831863\RMSD=4.119e-09\PG=C0
 1 [X(C5H7O3)]\\@


 WE DON'T KNOW ONE MILLIONTH OF ONE PERCENT ABOUT
 ANYTHING.
                                     T. A. EDISON.
 Job cpu time:       0 days 22 hours  4 minutes  8.9 seconds.
 Elapsed time:       0 days  0 hours 55 minutes 26.6 seconds.
 File lengths (MBytes):  RWF=  44258 Int=      0 D2E=      0 Chk=      5 Scr=      1
 Normal termination of Gaussian 16 at Fri Apr 18 03:21:14 2025.
