 Entering Link 1 = C:\G09W\l1.exe PID=      8408.
  
 Copyright (c) 1988,1990,1992,1993,1995,1998,2003,2009,2013,
            Gaussian, Inc.  All Rights Reserved.
  
 This is part of the Gaussian(R) 09 program.  It is based on
 the Gaussian(R) 03 system (copyright 2003, Gaussian, Inc.),
 the Gaussian(R) 98 system (copyright 1998, Gaussian, Inc.),
 the Gaussian(R) 94 system (copyright 1995, Gaussian, Inc.),
 the Gaussian 92(TM) system (copyright 1992, Gaussian, Inc.),
 the Gaussian 90(TM) system (copyright 1990, Gaussian, Inc.),
 the Gaussian 88(TM) system (copyright 1988, Gaussian, Inc.),
 the Gaussian 86(TM) system (copyright 1986, Carnegie Mellon
 University), and the Gaussian 82(TM) system (copyright 1983,
 Carnegie Mellon University). Gaussian is a federally registered
 trademark of Gaussian, Inc.
  
 This software contains proprietary and confidential information,
 including trade secrets, belonging to Gaussian, Inc.
  
 This software is provided under written license and may be
 used, copied, transmitted, or stored only in accord with that
 written license.
  
 The following legend is applicable only to US Government
 contracts under FAR:
  
                    RESTRICTED RIGHTS LEGEND
  
 Use, reproduction and disclosure by the US Government is
 subject to restrictions as set forth in subparagraphs (a)
 and (c) of the Commercial Computer Software - Restricted
 Rights clause in FAR 52.227-19.
  
 Gaussian, Inc.
 340 Quinnipiac St., Bldg. 40, Wallingford CT 06492
  
  
 ---------------------------------------------------------------
 Warning -- This program may not be used in any manner that
 competes with the business of Gaussian, Inc. or will provide
 assistance to any competitor of Gaussian, Inc.  The licensee
 of this program is prohibited from giving any competitor of
 Gaussian, Inc. access to this program.  By using this program,
 the user acknowledges that Gaussian, Inc. is engaged in the
 business of creating and licensing software in the field of
 computational chemistry and represents and warrants to the
 licensee that it is not a competitor of Gaussian, Inc. and that
 it will not use this program in any manner prohibited above.
 ---------------------------------------------------------------
  

 Cite this work as:
 Gaussian 09, Revision D.01,
 M. J. Frisch, G. W. Trucks, H. B. Schlegel, G. E. Scuseria, 
 M. A. Robb, J. R. Cheeseman, G. Scalmani, V. Barone, B. Mennucci, 
 G. A. Petersson, H. Nakatsuji, M. Caricato, X. Li, H. P. Hratchian, 
 A. F. Izmaylov, J. Bloino, G. Zheng, J. L. Sonnenberg, M. Hada, 
 M. Ehara, K. Toyota, R. Fukuda, J. Hasegawa, M. Ishida, T. Nakajima, 
 Y. Honda, O. Kitao, H. Nakai, T. Vreven, J. A. Montgomery, Jr., 
 J. E. Peralta, F. Ogliaro, M. Bearpark, J. J. Heyd, E. Brothers, 
 K. N. Kudin, V. N. Staroverov, T. Keith, R. Kobayashi, J. Normand, 
 K. Raghavachari, A. Rendell, J. C. Burant, S. S. Iyengar, J. Tomasi, 
 M. Cossi, N. Rega, J. M. Millam, M. Klene, J. E. Knox, J. B. Cross, 
 V. Bakken, C. Adamo, J. Jaramillo, R. Gomperts, R. E. Stratmann, 
 O. Yazyev, A. J. Austin, R. Cammi, C. Pomelli, J. W. Ochterski, 
 R. L. Martin, K. Morokuma, V. G. Zakrzewski, G. A. Voth, 
 P. Salvador, J. J. Dannenberg, S. Dapprich, A. D. Daniels, 
 O. Farkas, J. B. Foresman, J. V. Ortiz, J. Cioslowski, 
 and D. J. Fox, Gaussian, Inc., Wallingford CT, 2013.
 
 ******************************************
 Gaussian 09:  IA32W-G09RevD.01 24-Apr-2013
                28-Mar-2025 
 ******************************************
 %chk=ethyl_propiolate.chk
 %nprocshared=4
 Will use up to    4 processors via shared memory.
 %mem=1700MB
 --------------------------
 # freq 6-311++g(d,p) m062x
 --------------------------
 1/10=4,30=1,38=1/1,3;
 2/12=2,17=6,18=5,40=1/2;
 3/5=4,6=6,7=1111,11=2,16=1,25=1,30=1,71=2,74=-55,140=1/1,2,3;
 4//1;
 5/5=2,38=5,98=1/2;
 8/6=4,10=90,11=11/1;
 11/6=1,8=1,9=11,15=111,16=1/1,2,10;
 10/6=1/2;
 6/7=2,8=2,9=2,10=2,18=1,28=1/1;
 7/8=1,10=1,25=1/1,2,3,16;
 1/10=4,30=1/3;
 99//99;
 -------------------
 Title Card Required
 -------------------
 Symbolic Z-matrix:
 Charge =  0 Multiplicity = 2
 C                     2.55697   0.16178   0. 
 H                     3.62339   0.10324   0. 
 C                     1.43503   0.64147  0. 
 C                     0.01405   0.95299  -0.00001 
 O                    -0.44064   2.06067  -0.00001 
 O                    -0.70357  -0.17504   0. 
 C                    -2.13687  -0.00046  0. 
 C                    -2.75487  -1.37846   0.00001 
 H                    -2.41194   0.57823   0.88383 
 H                    -2.41194   0.57822  -0.88384 
 H                    -2.45308  -1.93729  -0.88678 
 H                    -2.45308  -1.93728   0.88679 
 H                    -3.84251  -1.29071   0. 
 O                     2.34857  -1.80405   0.00001 
 H                     1.3807   -1.88172   0.00001 
 

 GradGradGradGradGradGradGradGradGradGradGradGradGradGradGradGradGradGrad
 Berny optimization.
 Initialization pass.
 Trust Radius=3.00D-01 FncErr=1.00D-07 GrdErr=1.00D-07
 Number of steps in this run=      2 maximum allowed number of steps=      2.
 GradGradGradGradGradGradGradGradGradGradGradGradGradGradGradGradGradGrad

                          Input orientation:                          
 ---------------------------------------------------------------------
 Center     Atomic      Atomic             Coordinates (Angstroms)
 Number     Number       Type             X           Y           Z
 ---------------------------------------------------------------------
      1          6           0        2.556974    0.161779    0.000000
      2          1           0        3.623392    0.103240    0.000001
      3          6           0        1.435031    0.641465   -0.000003
      4          6           0        0.014048    0.952987   -0.000005
      5          8           0       -0.440636    2.060669   -0.000010
      6          8           0       -0.703572   -0.175037    0.000000
      7          6           0       -2.136871   -0.000463   -0.000001
      8          6           0       -2.754867   -1.378459    0.000005
      9          1           0       -2.411939    0.578225    0.883834
     10          1           0       -2.411938    0.578218   -0.883842
     11          1           0       -2.453077   -1.937289   -0.886778
     12          1           0       -2.453077   -1.937281    0.886792
     13          1           0       -3.842511   -1.290714    0.000004
     14          8           0        2.348573   -1.804050    0.000010
     15          1           0        1.380695   -1.881721    0.000010
 ---------------------------------------------------------------------
                    Distance matrix (angstroms):
                    1          2          3          4          5
     1  C    0.000000
     2  H    1.068023   0.000000
     3  C    1.220186   2.253577   0.000000
     4  C    2.663172   3.708023   1.454730   0.000000
     5  O    3.548443   4.510859   2.352077   1.197371   0.000000
     6  O    3.277896   4.335903   2.289170   1.336943   2.251115
     7  C    4.696648   5.761196   3.629126   2.352768   2.669359
     8  C    5.530641   6.548100   4.651380   3.619742   4.145270
     9  H    5.064058   6.118169   3.947701   2.609029   2.620087
    10  H    5.064058   6.118169   3.947701   2.609028   2.620086
    11  H    5.503914   6.470982   4.749076   3.902149   4.562888
    12  H    5.503914   6.470981   4.749076   3.902149   4.562887
    13  H    6.562251   7.594920   5.620121   4.461753   4.775408
    14  O    1.976845   2.294105   2.610575   3.612653   4.766103
    15  H    2.357864   2.994956   2.523771   3.146950   4.342774
                    6          7          8          9         10
     6  O    0.000000
     7  C    1.443891   0.000000
     8  C    2.378242   1.510229   0.000000
     9  H    2.065692   1.091653   2.174251   0.000000
    10  H    2.065692   1.091654   2.174252   1.767676   0.000000
    11  H    2.636793   2.153521   1.090758   3.076454   2.515845
    12  H    2.636792   2.153521   1.090757   2.515844   3.076455
    13  H    3.331317   2.138681   1.091178   2.514085   2.514086
    14  O    3.459664   4.834473   5.121155   5.396189   5.396189
    15  H    2.693871   3.989035   4.166071   4.606143   4.606144
                   11         12         13         14         15
    11  H    0.000000
    12  H    1.773570   0.000000
    13  H    1.770584   1.770584   0.000000
    14  O    4.884669   4.884667   6.212329   0.000000
    15  H    3.935389   3.935388   5.256536   0.970989   0.000000
 Stoichiometry    C5H7O3(2)
 Framework group  C1[X(C5H7O3)]
 Deg. of freedom    39
 Full point group                 C1      NOp   1
 Largest Abelian subgroup         C1      NOp   1
 Largest concise Abelian subgroup C1      NOp   1
                         Standard orientation:                         
 ---------------------------------------------------------------------
 Center     Atomic      Atomic             Coordinates (Angstroms)
 Number     Number       Type             X           Y           Z
 ---------------------------------------------------------------------
      1          6           0        2.626534    0.209763    0.000000
      2          1           0        3.692973    0.151598    0.000001
      3          6           0        1.504423    0.689055   -0.000003
      4          6           0        0.083331    1.000079   -0.000005
      5          8           0       -0.371742    2.107601   -0.000010
      6          8           0       -0.633894   -0.128197    0.000000
      7          6           0       -2.067254    0.045874   -0.000001
      8          6           0       -2.684766   -1.332339    0.000005
      9          1           0       -2.342525    0.624466    0.883834
     10          1           0       -2.342524    0.624459   -0.883842
     11          1           0       -2.382780   -1.891063   -0.886778
     12          1           0       -2.382780   -1.891055    0.886792
     13          1           0       -3.772441   -1.244975    0.000004
     14          8           0        2.418823   -1.756139    0.000010
     15          1           0        1.450972   -1.834149    0.000010
 ---------------------------------------------------------------------
 Rotational constants (GHZ):      2.8760581      1.2457262      0.8787820
 Standard basis: 6-311++G(d,p) (5D, 7F)
 There are   233 symmetry adapted cartesian basis functions of A   symmetry.
 There are   225 symmetry adapted basis functions of A   symmetry.
   225 basis functions,   351 primitive gaussians,   233 cartesian basis functions
    31 alpha electrons       30 beta electrons
       nuclear repulsion energy       348.6659076809 Hartrees.
 NAtoms=   15 NActive=   15 NUniq=   15 SFac= 1.00D+00 NAtFMM=   60 NAOKFM=F Big=F
 Integral buffers will be    262144 words long.
 Raffenetti 2 integral format.
 Two-electron integral symmetry is turned on.
 One-electron integrals computed using PRISM.
 NBasis=   225 RedAO= T EigKep=  1.19D-06  NBF=   225
 NBsUse=   225 1.00D-06 EigRej= -1.00D+00 NBFU=   225
 ExpMin= 3.60D-02 ExpMax= 8.59D+03 ExpMxC= 1.30D+03 IAcc=3 IRadAn=         5 AccDes= 0.00D+00
 Harris functional with IExCor= 1009 and IRadAn=       5 diagonalized for initial guess.
 HarFok:  IExCor= 1009 AccDes= 0.00D+00 IRadAn=         5 IDoV= 1 UseB2=F ITyADJ=14
 ICtDFT=  3500011 ScaDFX=  1.000000  1.000000  1.000000  1.000000
 FoFCou: FMM=F IPFlag=           0 FMFlag=      100000 FMFlg1=           0
         NFxFlg=           0 DoJE=T BraDBF=F KetDBF=T FulRan=T
         wScrn=  0.000000 ICntrl=     500 IOpCl=  0 I1Cent=   200000004 NGrid=           0
         NMat0=    1 NMatS0=      1 NMatT0=    0 NMatD0=    1 NMtDS0=    0 NMtDT0=    0
 Petite list used in FoFCou.
 Initial guess <Sx>= 0.0000 <Sy>= 0.0000 <Sz>= 0.5000 <S**2>= 0.7500 S= 0.5000
 Requested convergence on RMS density matrix=1.00D-08 within 128 cycles.
 Requested convergence on MAX density matrix=1.00D-06.
 Requested convergence on             energy=1.00D-06.
 No special actions if energy rises.
 SCF Done:  E(UM062X) =  -420.204921444     A.U. after   20 cycles
            NFock= 20  Conv=0.88D-08     -V/T= 2.0034
 <Sx>= 0.0000 <Sy>= 0.0000 <Sz>= 0.5000 <S**2>= 0.7777 S= 0.5138
 <L.S>= 0.000000000000E+00
 Annihilation of the first spin contaminant:
 S**2 before annihilation     0.7777,   after     0.7503
 DoSCS=F DFT=T ScalE2(SS,OS)=  1.000000  1.000000
 Range of M.O.s used for correlation:     1   225
 NBasis=   225 NAE=    31 NBE=    30 NFC=     0 NFV=     0
 NROrb=    225 NOA=    31 NOB=    30 NVA=   194 NVB=   195

 **** Warning!!: The largest alpha MO coefficient is  0.23461647D+03


 **** Warning!!: The largest beta MO coefficient is  0.23035925D+03

 Symmetrizing basis deriv contribution to polar:
 IMax=3 JMax=2 DiffMx= 0.00D+00
 G2DrvN: will do    16 centers at a time, making    1 passes.
 Calling FoFCou, ICntrl=  3107 FMM=F I1Cent=   0 AccDes= 0.00D+00.
 End of G2Drv F.D. properties file   721 does not exist.
 End of G2Drv F.D. properties file   722 does not exist.
 End of G2Drv F.D. properties file   788 does not exist.
          IDoAtm=111111111111111
          Differentiating once with respect to electric field.
                with respect to dipole field.
          Differentiating once with respect to nuclear coordinates.
          There are    48 degrees of freedom in the 1st order CPHF.  IDoFFX=6 NUNeed=     3.
     46 vectors produced by pass  0 Test12= 2.47D-14 2.08D-09 XBig12= 9.88D+01 4.32D+00.
 AX will form    46 AO Fock derivatives at one time.
     45 vectors produced by pass  1 Test12= 2.47D-14 2.08D-09 XBig12= 1.72D+01 5.99D-01.
     45 vectors produced by pass  2 Test12= 2.47D-14 2.08D-09 XBig12= 9.37D-01 1.28D-01.
     45 vectors produced by pass  3 Test12= 2.47D-14 2.08D-09 XBig12= 1.29D-02 1.84D-02.
     45 vectors produced by pass  4 Test12= 2.47D-14 2.08D-09 XBig12= 1.50D-04 1.54D-03.
     45 vectors produced by pass  5 Test12= 2.47D-14 2.08D-09 XBig12= 1.73D-06 1.48D-04.
     39 vectors produced by pass  6 Test12= 2.47D-14 2.08D-09 XBig12= 1.12D-08 1.25D-05.
     24 vectors produced by pass  7 Test12= 2.47D-14 2.08D-09 XBig12= 7.08D-11 8.29D-07.
      9 vectors produced by pass  8 Test12= 2.47D-14 2.08D-09 XBig12= 1.28D-12 1.34D-07.
      9 vectors produced by pass  9 Test12= 2.47D-14 2.08D-09 XBig12= 2.06D-13 7.95D-08.
      9 vectors produced by pass 10 Test12= 2.47D-14 2.08D-09 XBig12= 4.52D-14 2.99D-08.
      9 vectors produced by pass 11 Test12= 2.47D-14 2.08D-09 XBig12= 3.93D-15 1.25D-08.
      9 vectors produced by pass 12 Test12= 2.47D-14 2.08D-09 XBig12= 1.71D-15 6.09D-09.
      9 vectors produced by pass 13 Test12= 2.47D-14 2.08D-09 XBig12= 1.55D-15 5.83D-09.
      9 vectors produced by pass 14 Test12= 2.47D-14 2.08D-09 XBig12= 9.33D-16 3.33D-09.
      6 vectors produced by pass 15 Test12= 2.47D-14 2.08D-09 XBig12= 7.48D-16 3.94D-09.
      4 vectors produced by pass 16 Test12= 2.47D-14 2.08D-09 XBig12= 6.48D-16 3.09D-09.
      4 vectors produced by pass 17 Test12= 2.47D-14 2.08D-09 XBig12= 9.14D-16 3.52D-09.
      3 vectors produced by pass 18 Test12= 2.47D-14 2.08D-09 XBig12= 1.04D-15 4.29D-09.
      3 vectors produced by pass 19 Test12= 2.47D-14 2.08D-09 XBig12= 1.30D-15 3.85D-09.
      3 vectors produced by pass 20 Test12= 2.47D-14 2.08D-09 XBig12= 1.05D-15 4.05D-09.
      3 vectors produced by pass 21 Test12= 2.47D-14 2.08D-09 XBig12= 6.73D-16 2.76D-09.
      3 vectors produced by pass 22 Test12= 2.47D-14 2.08D-09 XBig12= 1.37D-15 5.23D-09.
      3 vectors produced by pass 23 Test12= 2.47D-14 2.08D-09 XBig12= 8.72D-16 3.47D-09.
      3 vectors produced by pass 24 Test12= 2.47D-14 2.08D-09 XBig12= 7.59D-16 3.88D-09.
      3 vectors produced by pass 25 Test12= 2.47D-14 2.08D-09 XBig12= 8.71D-16 3.43D-09.
      2 vectors produced by pass 26 Test12= 2.47D-14 2.08D-09 XBig12= 4.26D-16 2.14D-09.
      2 vectors produced by pass 27 Test12= 2.47D-14 2.08D-09 XBig12= 5.31D-16 2.56D-09.
      1 vectors produced by pass 28 Test12= 2.47D-14 2.08D-09 XBig12= 4.43D-16 2.24D-09.
 InvSVY:  IOpt=1 It=  1 EMax= 5.33D-15
 Solved reduced A of dimension   440 with    48 vectors.
 Isotropic polarizability for W=    0.000000       76.32 Bohr**3.
 End of Minotr F.D. properties file   721 does not exist.
 End of Minotr F.D. properties file   722 does not exist.
 End of Minotr F.D. properties file   788 does not exist.

 **********************************************************************

            Population analysis using the SCF density.

 **********************************************************************

 Orbital symmetries:
 Alpha Orbitals:
       Occupied  (A) (A) (A) (A) (A) (A) (A) (A) (A) (A) (A) (A)
                 (A) (A) (A) (A) (A) (A) (A) (A) (A) (A) (A) (A)
                 (A) (A) (A) (A) (A) (A) (A)
       Virtual   (A) (A) (A) (A) (A) (A) (A) (A) (A) (A) (A) (A)
                 (A) (A) (A) (A) (A) (A) (A) (A) (A) (A) (A) (A)
                 (A) (A) (A) (A) (A) (A) (A) (A) (A) (A) (A) (A)
                 (A) (A) (A) (A) (A) (A) (A) (A) (A) (A) (A) (A)
                 (A) (A) (A) (A) (A) (A) (A) (A) (A) (A) (A) (A)
                 (A) (A) (A) (A) (A) (A) (A) (A) (A) (A) (A) (A)
                 (A) (A) (A) (A) (A) (A) (A) (A) (A) (A) (A) (A)
                 (A) (A) (A) (A) (A) (A) (A) (A) (A) (A) (A) (A)
                 (A) (A) (A) (A) (A) (A) (A) (A) (A) (A) (A) (A)
                 (A) (A) (A) (A) (A) (A) (A) (A) (A) (A) (A) (A)
                 (A) (A) (A) (A) (A) (A) (A) (A) (A) (A) (A) (A)
                 (A) (A) (A) (A) (A) (A) (A) (A) (A) (A) (A) (A)
                 (A) (A) (A) (A) (A) (A) (A) (A) (A) (A) (A) (A)
                 (A) (A) (A) (A) (A) (A) (A) (A) (A) (A) (A) (A)
                 (A) (A) (A) (A) (A) (A) (A) (A) (A) (A) (A) (A)
                 (A) (A) (A) (A) (A) (A) (A) (A) (A) (A) (A) (A)
                 (A) (A)
 Beta  Orbitals:
       Occupied  (A) (A) (A) (A) (A) (A) (A) (A) (A) (A) (A) (A)
                 (A) (A) (A) (A) (A) (A) (A) (A) (A) (A) (A) (A)
                 (A) (A) (A) (A) (A) (A)
       Virtual   (A) (A) (A) (A) (A) (A) (A) (A) (A) (A) (A) (A)
                 (A) (A) (A) (A) (A) (A) (A) (A) (A) (A) (A) (A)
                 (A) (A) (A) (A) (A) (A) (A) (A) (A) (A) (A) (A)
                 (A) (A) (A) (A) (A) (A) (A) (A) (A) (A) (A) (A)
                 (A) (A) (A) (A) (A) (A) (A) (A) (A) (A) (A) (A)
                 (A) (A) (A) (A) (A) (A) (A) (A) (A) (A) (A) (A)
                 (A) (A) (A) (A) (A) (A) (A) (A) (A) (A) (A) (A)
                 (A) (A) (A) (A) (A) (A) (A) (A) (A) (A) (A) (A)
                 (A) (A) (A) (A) (A) (A) (A) (A) (A) (A) (A) (A)
                 (A) (A) (A) (A) (A) (A) (A) (A) (A) (A) (A) (A)
                 (A) (A) (A) (A) (A) (A) (A) (A) (A) (A) (A) (A)
                 (A) (A) (A) (A) (A) (A) (A) (A) (A) (A) (A) (A)
                 (A) (A) (A) (A) (A) (A) (A) (A) (A) (A) (A) (A)
                 (A) (A) (A) (A) (A) (A) (A) (A) (A) (A) (A) (A)
                 (A) (A) (A) (A) (A) (A) (A) (A) (A) (A) (A) (A)
                 (A) (A) (A) (A) (A) (A) (A) (A) (A) (A) (A) (A)
                 (A) (A) (A)
 The electronic state is 2-A.
 Alpha  occ. eigenvalues --  -19.69710 -19.64932 -19.64494 -10.71845 -10.61680
 Alpha  occ. eigenvalues --  -10.60761 -10.58962 -10.55004  -1.26961  -1.17752
 Alpha  occ. eigenvalues --   -1.10955  -0.92429  -0.88700  -0.78854  -0.71285
 Alpha  occ. eigenvalues --   -0.66860  -0.62626  -0.60413  -0.58801  -0.52851
 Alpha  occ. eigenvalues --   -0.52846  -0.50843  -0.49290  -0.47853  -0.45315
 Alpha  occ. eigenvalues --   -0.44667  -0.41810  -0.39970  -0.39915  -0.37271
 Alpha  occ. eigenvalues --   -0.33552
 Alpha virt. eigenvalues --   -0.02686  -0.00850   0.00748   0.01366   0.01706
 Alpha virt. eigenvalues --    0.02261   0.04338   0.05076   0.05572   0.06199
 Alpha virt. eigenvalues --    0.06507   0.06755   0.08026   0.08760   0.10109
 Alpha virt. eigenvalues --    0.10775   0.12084   0.12090   0.12697   0.13116
 Alpha virt. eigenvalues --    0.13319   0.13535   0.14134   0.15164   0.15789
 Alpha virt. eigenvalues --    0.17188   0.17351   0.17587   0.19300   0.19506
 Alpha virt. eigenvalues --    0.21048   0.21923   0.22560   0.22637   0.22800
 Alpha virt. eigenvalues --    0.23288   0.25722   0.26841   0.28986   0.29713
 Alpha virt. eigenvalues --    0.30634   0.30683   0.31494   0.31668   0.31875
 Alpha virt. eigenvalues --    0.33421   0.34773   0.35901   0.36347   0.37711
 Alpha virt. eigenvalues --    0.40393   0.41684   0.44014   0.44951   0.50097
 Alpha virt. eigenvalues --    0.52353   0.52404   0.54468   0.55729   0.56100
 Alpha virt. eigenvalues --    0.61787   0.62438   0.64383   0.65491   0.66989
 Alpha virt. eigenvalues --    0.67537   0.68420   0.68728   0.69005   0.70009
 Alpha virt. eigenvalues --    0.72532   0.74380   0.79527   0.79717   0.80631
 Alpha virt. eigenvalues --    0.84994   0.89966   0.90923   0.92520   0.96579
 Alpha virt. eigenvalues --    1.02322   1.04046   1.07282   1.07966   1.09489
 Alpha virt. eigenvalues --    1.13593   1.14698   1.16559   1.18660   1.20580
 Alpha virt. eigenvalues --    1.21203   1.22549   1.23201   1.28153   1.28990
 Alpha virt. eigenvalues --    1.31215   1.33616   1.35736   1.43654   1.44204
 Alpha virt. eigenvalues --    1.47559   1.49087   1.49607   1.52663   1.56524
 Alpha virt. eigenvalues --    1.57043   1.57545   1.58334   1.60903   1.61066
 Alpha virt. eigenvalues --    1.65672   1.68184   1.69906   1.71764   1.75581
 Alpha virt. eigenvalues --    1.76828   1.82067   1.84732   1.85707   1.88012
 Alpha virt. eigenvalues --    1.90315   1.91221   1.99925   2.00972   2.09882
 Alpha virt. eigenvalues --    2.11100   2.14290   2.15049   2.20398   2.26338
 Alpha virt. eigenvalues --    2.35163   2.36253   2.39458   2.48377   2.50127
 Alpha virt. eigenvalues --    2.53581   2.57615   2.60752   2.63612   2.63727
 Alpha virt. eigenvalues --    2.64634   2.66759   2.67811   2.70765   2.72412
 Alpha virt. eigenvalues --    2.79935   2.81201   2.85917   2.88908   2.88921
 Alpha virt. eigenvalues --    2.95287   2.95656   2.97689   2.98691   3.03742
 Alpha virt. eigenvalues --    3.07325   3.10894   3.14869   3.19103   3.24919
 Alpha virt. eigenvalues --    3.26153   3.26569   3.27626   3.33164   3.41244
 Alpha virt. eigenvalues --    3.42431   3.53786   3.65602   3.73287   3.82943
 Alpha virt. eigenvalues --    3.84651   3.84691   3.91532   4.04374   4.10878
 Alpha virt. eigenvalues --    4.13759   4.29248   5.07749   5.10442   5.14130
 Alpha virt. eigenvalues --    5.14799   5.31272   5.44580   5.59777   5.71885
 Alpha virt. eigenvalues --    5.93116  23.61404  23.92300  23.92991  24.04567
 Alpha virt. eigenvalues --   24.96283  49.96573  49.99682  50.10471
  Beta  occ. eigenvalues --  -19.69690 -19.64445 -19.63633 -10.71874 -10.61676
  Beta  occ. eigenvalues --  -10.60856 -10.58649 -10.55004  -1.26877  -1.17617
  Beta  occ. eigenvalues --   -1.05745  -0.91630  -0.88099  -0.78701  -0.71043
  Beta  occ. eigenvalues --   -0.66656  -0.62159  -0.60343  -0.58614  -0.52706
  Beta  occ. eigenvalues --   -0.50995  -0.49969  -0.48092  -0.45219  -0.44635
  Beta  occ. eigenvalues --   -0.40606  -0.40314  -0.39848  -0.38586  -0.35315
  Beta virt. eigenvalues --   -0.09846  -0.02621  -0.00791   0.00938   0.01527
  Beta virt. eigenvalues --    0.01737   0.02438   0.04666   0.05124   0.05691
  Beta virt. eigenvalues --    0.06543   0.06611   0.07626   0.08577   0.08918
  Beta virt. eigenvalues --    0.10201   0.11262   0.11972   0.12287   0.12879
  Beta virt. eigenvalues --    0.13353   0.13405   0.13752   0.14290   0.15249
  Beta virt. eigenvalues --    0.15857   0.17485   0.17489   0.17867   0.19469
  Beta virt. eigenvalues --    0.19512   0.21056   0.22503   0.22672   0.22823
  Beta virt. eigenvalues --    0.22868   0.23442   0.25773   0.26895   0.28826
  Beta virt. eigenvalues --    0.29587   0.30766   0.30896   0.31293   0.31474
  Beta virt. eigenvalues --    0.31875   0.33262   0.35020   0.35881   0.36509
  Beta virt. eigenvalues --    0.37843   0.40502   0.41762   0.44276   0.44951
  Beta virt. eigenvalues --    0.50249   0.52454   0.52458   0.54775   0.55723
  Beta virt. eigenvalues --    0.56277   0.61713   0.62380   0.64769   0.65612
  Beta virt. eigenvalues --    0.67338   0.67627   0.68507   0.68985   0.69102
  Beta virt. eigenvalues --    0.70096   0.72571   0.74526   0.79493   0.79658
  Beta virt. eigenvalues --    0.80851   0.85215   0.89927   0.91369   0.92388
  Beta virt. eigenvalues --    0.96805   1.02378   1.04220   1.07889   1.08525
  Beta virt. eigenvalues --    1.09992   1.14791   1.15019   1.17289   1.19198
  Beta virt. eigenvalues --    1.21415   1.22658   1.22746   1.23281   1.28155
  Beta virt. eigenvalues --    1.29057   1.31237   1.34969   1.35774   1.44454
  Beta virt. eigenvalues --    1.45107   1.47453   1.49088   1.49986   1.53339
  Beta virt. eigenvalues --    1.56694   1.57043   1.58210   1.58715   1.60976
  Beta virt. eigenvalues --    1.61268   1.65729   1.68203   1.69937   1.72174
  Beta virt. eigenvalues --    1.75590   1.76794   1.82515   1.84994   1.86013
  Beta virt. eigenvalues --    1.88153   1.90654   1.91425   2.00221   2.00982
  Beta virt. eigenvalues --    2.10018   2.11292   2.14616   2.15812   2.20449
  Beta virt. eigenvalues --    2.26344   2.35196   2.36389   2.39825   2.48382
  Beta virt. eigenvalues --    2.50136   2.53606   2.57617   2.60785   2.63503
  Beta virt. eigenvalues --    2.63704   2.64550   2.66730   2.67918   2.70501
  Beta virt. eigenvalues --    2.72942   2.80080   2.82319   2.86407   2.89067
  Beta virt. eigenvalues --    2.94355   2.95666   2.96701   2.98836   2.98985
  Beta virt. eigenvalues --    3.03868   3.08559   3.10962   3.15251   3.20751
  Beta virt. eigenvalues --    3.26164   3.26800   3.28220   3.28982   3.33553
  Beta virt. eigenvalues --    3.41449   3.42490   3.53721   3.65780   3.73455
  Beta virt. eigenvalues --    3.82955   3.84654   3.84700   3.94386   4.04626
  Beta virt. eigenvalues --    4.11072   4.13918   4.29314   5.09721   5.10552
  Beta virt. eigenvalues --    5.14889   5.21612   5.31433   5.44681   5.62177
  Beta virt. eigenvalues --    5.72021   5.93164  23.61491  23.92314  23.93016
  Beta virt. eigenvalues --   24.04569  24.96563  49.96001  49.99643  50.10430
          Condensed to atoms (all electrons):
               1          2          3          4          5          6
     1  C   19.411272   0.747835  -3.592747  -8.637164   0.082168   0.143033
     2  H    0.747835   0.417552  -0.254810  -0.092526   0.000528   0.000461
     3  C   -3.592747  -0.254810  13.951126  -5.100005   0.145024  -0.290512
     4  C   -8.637164  -0.092526  -5.100005  19.340975   0.122575  -0.145679
     5  O    0.082168   0.000528   0.145024   0.122575   8.028363  -0.123135
     6  O    0.143033   0.000461  -0.290512  -0.145679  -0.123135   8.496003
     7  C   -0.184513  -0.000288  -0.489950   0.273282  -0.029469   0.200647
     8  C   -0.099376   0.000571  -0.348689   0.428267   0.014204  -0.160933
     9  H    0.006980  -0.000028   0.009940  -0.015720  -0.013466  -0.036965
    10  H    0.006980  -0.000028   0.009940  -0.015720  -0.013466  -0.036965
    11  H    0.006001  -0.000022   0.018314  -0.015824  -0.000711  -0.007445
    12  H    0.006001  -0.000022   0.018314  -0.015824  -0.000711  -0.007445
    13  H   -0.002704   0.000026  -0.004220   0.007536   0.001328   0.018977
    14  O   -0.226998  -0.030586  -0.031191   0.192765  -0.002153   0.009621
    15  H    0.194750   0.006119  -0.044084  -0.153220   0.001608   0.012484
               7          8          9         10         11         12
     1  C   -0.184513  -0.099376   0.006980   0.006980   0.006001   0.006001
     2  H   -0.000288   0.000571  -0.000028  -0.000028  -0.000022  -0.000022
     3  C   -0.489950  -0.348689   0.009940   0.009940   0.018314   0.018314
     4  C    0.273282   0.428267  -0.015720  -0.015720  -0.015824  -0.015824
     5  O   -0.029469   0.014204  -0.013466  -0.013466  -0.000711  -0.000711
     6  O    0.200647  -0.160933  -0.036965  -0.036965  -0.007445  -0.007445
     7  C    5.583642   0.029363   0.423498   0.423498  -0.023676  -0.023676
     8  C    0.029363   5.677570  -0.054705  -0.054705   0.383293   0.383293
     9  H    0.423498  -0.054705   0.529503  -0.046474   0.006441  -0.009437
    10  H    0.423498  -0.054705  -0.046474   0.529503  -0.009437   0.006441
    11  H   -0.023676   0.383293   0.006441  -0.009437   0.538799  -0.041708
    12  H   -0.023676   0.383293  -0.009437   0.006441  -0.041708   0.538799
    13  H   -0.051041   0.415549  -0.004801  -0.004801  -0.030988  -0.030988
    14  O   -0.002159   0.004615   0.000194   0.000194  -0.000100  -0.000100
    15  H    0.005621  -0.002806  -0.000040  -0.000040  -0.000781  -0.000781
              13         14         15
     1  C   -0.002704  -0.226998   0.194750
     2  H    0.000026  -0.030586   0.006119
     3  C   -0.004220  -0.031191  -0.044084
     4  C    0.007536   0.192765  -0.153220
     5  O    0.001328  -0.002153   0.001608
     6  O    0.018977   0.009621   0.012484
     7  C   -0.051041  -0.002159   0.005621
     8  C    0.415549   0.004615  -0.002806
     9  H   -0.004801   0.000194  -0.000040
    10  H   -0.004801   0.000194  -0.000040
    11  H   -0.030988  -0.000100  -0.000781
    12  H   -0.030988  -0.000100  -0.000781
    13  H    0.519483   0.000019  -0.000185
    14  O    0.000019   8.130471   0.262017
    15  H   -0.000185   0.262017   0.483782
          Atomic-Atomic Spin Densities.
               1          2          3          4          5          6
     1  C    0.350214   0.052479   0.400078  -0.815965   0.015442  -0.073668
     2  H    0.052479   0.016236  -0.045672   0.000079  -0.000536   0.000033
     3  C    0.400078  -0.045672   1.931403  -1.561942   0.061809  -0.178334
     4  C   -0.815965   0.000079  -1.561942   2.121604  -0.077737   0.223112
     5  O    0.015442  -0.000536   0.061809  -0.077737   0.030476  -0.009502
     6  O   -0.073668   0.000033  -0.178334   0.223112  -0.009502   0.011714
     7  C   -0.025801  -0.000291  -0.044683   0.065734  -0.003385   0.011994
     8  C   -0.011976   0.000578  -0.096534   0.073632  -0.004899   0.005214
     9  H   -0.002086   0.000001  -0.006651   0.006712  -0.000160   0.000126
    10  H   -0.002086   0.000001  -0.006651   0.006712  -0.000160   0.000126
    11  H    0.000286  -0.000005  -0.000477   0.000196   0.000015   0.000348
    12  H    0.000286  -0.000005  -0.000477   0.000196   0.000015   0.000348
    13  H    0.000219   0.000009  -0.001603   0.000882  -0.000048   0.000290
    14  O   -0.119785   0.002409  -0.129640   0.116817  -0.001649   0.008507
    15  H    0.002005  -0.000930   0.036034  -0.022061   0.000704  -0.003386
               7          8          9         10         11         12
     1  C   -0.025801  -0.011976  -0.002086  -0.002086   0.000286   0.000286
     2  H   -0.000291   0.000578   0.000001   0.000001  -0.000005  -0.000005
     3  C   -0.044683  -0.096534  -0.006651  -0.006651  -0.000477  -0.000477
     4  C    0.065734   0.073632   0.006712   0.006712   0.000196   0.000196
     5  O   -0.003385  -0.004899  -0.000160  -0.000160   0.000015   0.000015
     6  O    0.011994   0.005214   0.000126   0.000126   0.000348   0.000348
     7  C    0.015342  -0.010416  -0.000049  -0.000049  -0.001891  -0.001891
     8  C   -0.010416   0.032640   0.001883   0.001883   0.001863   0.001863
     9  H   -0.000049   0.001883  -0.000082   0.000304   0.000046  -0.000033
    10  H   -0.000049   0.001883   0.000304  -0.000082  -0.000033   0.000046
    11  H   -0.001891   0.001863   0.000046  -0.000033  -0.000204  -0.000097
    12  H   -0.001891   0.001863  -0.000033   0.000046  -0.000097  -0.000204
    13  H   -0.002344   0.002774   0.000007   0.000007  -0.000135  -0.000135
    14  O    0.000497   0.002709  -0.000075  -0.000075   0.000060   0.000060
    15  H    0.001662  -0.003422   0.000030   0.000030  -0.000046  -0.000046
              13         14         15
     1  C    0.000219  -0.119785   0.002005
     2  H    0.000009   0.002409  -0.000930
     3  C   -0.001603  -0.129640   0.036034
     4  C    0.000882   0.116817  -0.022061
     5  O   -0.000048  -0.001649   0.000704
     6  O    0.000290   0.008507  -0.003386
     7  C   -0.002344   0.000497   0.001662
     8  C    0.002774   0.002709  -0.003422
     9  H    0.000007  -0.000075   0.000030
    10  H    0.000007  -0.000075   0.000030
    11  H   -0.000135   0.000060  -0.000046
    12  H   -0.000135   0.000060  -0.000046
    13  H    0.000304   0.000072  -0.000162
    14  O    0.000072   0.830920   0.002618
    15  H   -0.000162   0.002618  -0.024585
 Mulliken charges and spin densities:
               1          2
     1  C   -1.861518  -0.230361
     2  H    0.205217   0.024384
     3  C    2.003550   0.356658
     4  C   -0.173720   0.137967
     5  O   -0.212686   0.010384
     6  O   -0.072149  -0.003080
     7  C   -0.134780   0.004429
     8  C   -0.615511  -0.002207
     9  H    0.205079  -0.000027
    10  H    0.205079  -0.000027
    11  H    0.177843  -0.000074
    12  H    0.177843  -0.000074
    13  H    0.166808   0.000137
    14  O   -0.306609   0.713445
    15  H    0.235556  -0.011554
 Sum of Mulliken charges =   0.00000   1.00000
 Mulliken charges and spin densities with hydrogens summed into heavy atoms:
               1          2
     1  C   -1.656301  -0.205977
     3  C    2.003550   0.356658
     4  C   -0.173720   0.137967
     5  O   -0.212686   0.010384
     6  O   -0.072149  -0.003080
     7  C    0.275378   0.004375
     8  C   -0.093017  -0.002219
    14  O   -0.071054   0.701891
 APT charges:
               1
     1  C   -0.403808
     2  H    0.249318
     3  C   -0.205569
     4  C    1.478224
     5  O   -0.788604
     6  O   -0.960916
     7  C    0.551099
     8  C   -0.005760
     9  H   -0.024828
    10  H   -0.024826
    11  H    0.014488
    12  H    0.014487
    13  H    0.013959
    14  O   -0.161566
    15  H    0.254302
 Sum of APT charges =   0.00000
 APT charges with hydrogens summed into heavy atoms:
               1
     1  C   -0.154489
     3  C   -0.205569
     4  C    1.478224
     5  O   -0.788604
     6  O   -0.960916
     7  C    0.501445
     8  C    0.037174
    14  O    0.092736
 Electronic spatial extent (au):  <R**2>=           1262.0769
 Charge=              0.0000 electrons
 Dipole moment (field-independent basis, Debye):
    X=             -2.1025    Y=             -0.7835    Z=              0.0000  Tot=              2.2437
 Quadrupole moment (field-independent basis, Debye-Ang):
   XX=            -39.6732   YY=            -56.5168   ZZ=            -47.7311
   XY=              7.4666   XZ=              0.0000   YZ=              0.0000
 Traceless Quadrupole moment (field-independent basis, Debye-Ang):
   XX=              8.3005   YY=             -8.5431   ZZ=              0.2426
   XY=              7.4666   XZ=              0.0000   YZ=              0.0000
 Octapole moment (field-independent basis, Debye-Ang**2):
  XXX=              3.1914  YYY=            -18.3230  ZZZ=              0.0000  XYY=            -10.5820
  XXY=             16.1811  XXZ=             -0.0001  XZZ=             -5.2428  YZZ=              1.2410
  YYZ=              0.0001  XYZ=              0.0000
 Hexadecapole moment (field-independent basis, Debye-Ang**3):
 XXXX=           -954.2415 YYYY=           -506.5123 ZZZZ=            -60.8672 XXXY=             42.0413
 XXXZ=             -0.0004 YYYX=              6.9637 YYYZ=              0.0012 ZZZX=             -0.0002
 ZZZY=              0.0010 XXYY=           -304.2865 XXZZ=           -205.4334 YYZZ=            -86.9874
 XXYZ=              0.0005 YYXZ=             -0.0002 ZZXY=             -3.2879
 N-N= 3.486659076809D+02 E-N=-1.681579395728D+03  KE= 4.187988022817D+02
  Exact polarizability:  90.483  -9.925  91.015   0.000   0.000  47.451
 Approx polarizability:  97.264 -17.644 102.161   0.000   0.000  56.812
                          Isotropic Fermi Contact Couplings
        Atom                 a.u.       MegaHertz       Gauss      10(-4) cm-1
     1  C(13)              0.00539       6.06440       2.16393       2.02287
     2  H(1)               0.00937      41.88600      14.94596      13.97166
     3  C(13)              0.06456      72.58262      25.89928      24.21096
     4  C(13)             -0.01743     -19.58999      -6.99020      -6.53452
     5  O(17)              0.01008      -6.10897      -2.17983      -2.03773
     6  O(17)              0.02244     -13.60574      -4.85487      -4.53839
     7  C(13)              0.00300       3.37817       1.20541       1.12684
     8  C(13)              0.00016       0.18352       0.06548       0.06122
     9  H(1)              -0.00003      -0.13004      -0.04640      -0.04338
    10  H(1)              -0.00003      -0.13004      -0.04640      -0.04338
    11  H(1)              -0.00001      -0.03123      -0.01114      -0.01042
    12  H(1)              -0.00001      -0.03123      -0.01114      -0.01042
    13  H(1)               0.00009       0.41796       0.14914       0.13941
    14  O(17)              0.11723     -71.06382     -25.35734     -23.70434
    15  H(1)              -0.01232     -55.08127     -19.65437     -18.37314
 --------------------------------------------------------
       Center         ----  Spin Dipole Couplings  ----
                      3XX-RR        3YY-RR        3ZZ-RR
 --------------------------------------------------------
     1   Atom        0.109506     -0.064793     -0.044713
     2   Atom       -0.003707      0.008030     -0.004324
     3   Atom       -0.256928      0.455186     -0.198258
     4   Atom        0.009490      0.003971     -0.013461
     5   Atom        0.054839     -0.044109     -0.010730
     6   Atom        0.026746     -0.018185     -0.008562
     7   Atom        0.007983     -0.003801     -0.004182
     8   Atom        0.002255     -0.000648     -0.001606
     9   Atom        0.002331     -0.001075     -0.001257
    10   Atom        0.002331     -0.001075     -0.001257
    11   Atom        0.001952     -0.000737     -0.001215
    12   Atom        0.001952     -0.000737     -0.001215
    13   Atom        0.001329     -0.000544     -0.000786
    14   Atom       -1.392118      2.824278     -1.432159
    15   Atom        0.133154     -0.031383     -0.101771
 --------------------------------------------------------
                        XY            XZ            YZ
 --------------------------------------------------------
     1   Atom       -0.028557      0.000000      0.000000
     2   Atom        0.010543      0.000000      0.000000
     3   Atom        0.171634     -0.000001     -0.000003
     4   Atom       -0.005337      0.000000      0.000000
     5   Atom       -0.010212      0.000000      0.000000
     6   Atom        0.003017      0.000000      0.000000
     7   Atom        0.000401      0.000000      0.000000
     8   Atom        0.000978      0.000000      0.000000
     9   Atom       -0.000660     -0.001138      0.000320
    10   Atom       -0.000660      0.001138     -0.000320
    11   Atom        0.000731      0.000676      0.000252
    12   Atom        0.000731     -0.000676     -0.000252
    13   Atom        0.000223      0.000000      0.000000
    14   Atom       -0.443389      0.000002     -0.000022
    15   Atom        0.022433      0.000000      0.000000
 --------------------------------------------------------


 ---------------------------------------------------------------------------------
              Anisotropic Spin Dipole Couplings in Principal Axis System
 ---------------------------------------------------------------------------------

       Atom             a.u.   MegaHertz   Gauss  10(-4) cm-1        Axes

              Baa    -0.0694    -9.306    -3.321    -3.104  0.1577  0.9875  0.0000
     1 C(13)  Bbb    -0.0447    -6.000    -2.141    -2.001  0.0000  0.0000  1.0000
              Bcc     0.1141    15.306     5.462     5.106  0.9875 -0.1577  0.0000
 
              Baa    -0.0099    -5.285    -1.886    -1.763  0.8621 -0.5068  0.0000
     2 H(1)   Bbb    -0.0043    -2.307    -0.823    -0.770  0.0000  0.0000  1.0000
              Bcc     0.0142     7.592     2.709     2.532  0.5068  0.8621  0.0000
 
              Baa    -0.2961   -39.739   -14.180   -13.255  0.9749 -0.2227  0.0000
     3 C(13)  Bbb    -0.1983   -26.604    -9.493    -8.874  0.0000  0.0000  1.0000
              Bcc     0.4944    66.343    23.673    22.130  0.2227  0.9749  0.0000
 
              Baa    -0.0135    -1.806    -0.645    -0.603  0.0000  0.0000  1.0000
     4 C(13)  Bbb     0.0007     0.097     0.035     0.032  0.5200  0.8542  0.0000
              Bcc     0.0127     1.709     0.610     0.570  0.8542 -0.5200  0.0000
 
              Baa    -0.0452     3.267     1.166     1.090  0.1016  0.9948  0.0000
     5 O(17)  Bbb    -0.0107     0.776     0.277     0.259  0.0000  0.0000  1.0000
              Bcc     0.0559    -4.044    -1.443    -1.349  0.9948 -0.1016  0.0000
 
              Baa    -0.0184     1.330     0.475     0.444 -0.0667  0.9978  0.0000
     6 O(17)  Bbb    -0.0086     0.620     0.221     0.207  0.0000  0.0000  1.0000
              Bcc     0.0269    -1.950    -0.696    -0.650  0.9978  0.0667  0.0000
 
              Baa    -0.0042    -0.561    -0.200    -0.187  0.0000  0.0000  1.0000
     7 C(13)  Bbb    -0.0038    -0.512    -0.183    -0.171 -0.0340  0.9994  0.0000
              Bcc     0.0080     1.073     0.383     0.358  0.9994  0.0340  0.0000
 
              Baa    -0.0016    -0.216    -0.077    -0.072  0.0000  0.0000  1.0000
     8 C(13)  Bbb    -0.0009    -0.127    -0.045    -0.042 -0.2922  0.9564  0.0000
              Bcc     0.0026     0.343     0.122     0.114  0.9564  0.2922  0.0000
 
              Baa    -0.0016    -0.866    -0.309    -0.289  0.2227 -0.2774  0.9346
     9 H(1)   Bbb    -0.0012    -0.626    -0.224    -0.209  0.2490  0.9430  0.2206
              Bcc     0.0028     1.492     0.532     0.498  0.9426 -0.1836 -0.2791
 
              Baa    -0.0016    -0.866    -0.309    -0.289 -0.2227  0.2774  0.9346
    10 H(1)   Bbb    -0.0012    -0.626    -0.224    -0.209  0.2490  0.9430 -0.2206
              Bcc     0.0028     1.492     0.532     0.498  0.9426 -0.1836  0.2791
 
              Baa    -0.0014    -0.734    -0.262    -0.245 -0.1502 -0.2104  0.9660
    11 H(1)   Bbb    -0.0009    -0.485    -0.173    -0.162 -0.2799  0.9462  0.1625
              Bcc     0.0023     1.219     0.435     0.407  0.9482  0.2460  0.2010
 
              Baa    -0.0014    -0.734    -0.262    -0.245  0.1502  0.2104  0.9660
    12 H(1)   Bbb    -0.0009    -0.485    -0.173    -0.162 -0.2799  0.9462 -0.1625
              Bcc     0.0023     1.219     0.435     0.407  0.9482  0.2460 -0.2010
 
              Baa    -0.0008    -0.419    -0.150    -0.140  0.0000  0.0000  1.0000
    13 H(1)   Bbb    -0.0006    -0.304    -0.108    -0.101 -0.1164  0.9932  0.0000
              Bcc     0.0014     0.723     0.258     0.241  0.9932  0.1164  0.0000
 
              Baa    -1.4382   104.070    37.135    34.714  0.9946  0.1035  0.0000
    14 O(17)  Bbb    -1.4322   103.630    36.978    34.567  0.0000  0.0000  1.0000
              Bcc     2.8704  -207.700   -74.113   -69.281 -0.1035  0.9946  0.0000
 
              Baa    -0.1018   -54.300   -19.376   -18.113  0.0000  0.0000  1.0000
    15 H(1)   Bbb    -0.0344   -18.347    -6.547    -6.120 -0.1327  0.9912  0.0000
              Bcc     0.1362    72.647    25.922    24.233  0.9912  0.1327  0.0000
 

 ---------------------------------------------------------------------------------

 Calling FoFJK, ICntrl=    100127 FMM=F ISym2X=0 I1Cent= 0 IOpClX= 1 NMat=1 NMatS=1 NMatT=0.
 Full mass-weighted force constant matrix:
 Low frequencies --- -689.2282   -0.0004    0.0002    0.0008   16.4522   22.4103
 Low frequencies ---   30.6390   63.1911   75.5867
 ******    1 imaginary frequencies (negative Signs) ****** 
 Diagonal vibrational polarizability:
       24.0600765      19.9027790      76.5012876
 Harmonic frequencies (cm**-1), IR intensities (KM/Mole), Raman scattering
 activities (A**4/AMU), depolarization ratios for plane and unpolarized
 incident light, reduced masses (AMU), force constants (mDyne/A),
 and normal coordinates:
                      1                      2                      3
                      A                      A                      A
 Frequencies --   -689.2282                62.6846                71.2105
 Red. masses --     10.9374                 5.6426                 7.7442
 Frc consts  --      3.0612                 0.0131                 0.0231
 IR Inten    --     98.7936                 1.0290                 5.1663
  Atom  AN      X      Y      Z        X      Y      Z        X      Y      Z
     1   6     0.13   0.75   0.00    -0.03  -0.06   0.00     0.00   0.00   0.29
     2   1     0.04  -0.32   0.00    -0.04  -0.24   0.00     0.00   0.00   0.44
     3   6    -0.02  -0.07   0.00     0.05   0.14   0.00     0.00   0.00   0.27
     4   6     0.00   0.00   0.00     0.04   0.09   0.00     0.00   0.00   0.03
     5   8     0.00   0.00   0.00    -0.03   0.06   0.00     0.00   0.00  -0.35
     6   8    -0.01   0.00   0.00     0.12   0.04   0.00     0.00   0.00   0.26
     7   6     0.00   0.00   0.00     0.11  -0.08   0.00     0.00   0.00  -0.02
     8   6     0.00   0.00   0.00     0.24  -0.14   0.00     0.00   0.00   0.05
     9   1     0.00   0.00   0.00     0.06  -0.11   0.00    -0.15   0.12  -0.15
    10   1     0.00   0.00   0.00     0.06  -0.11   0.00     0.15  -0.12  -0.15
    11   1     0.00   0.00   0.00     0.30  -0.11   0.00     0.14  -0.11   0.17
    12   1     0.00   0.00   0.00     0.30  -0.11   0.00    -0.14   0.11   0.17
    13   1     0.00   0.00   0.00     0.23  -0.26   0.00     0.00   0.00  -0.13
    14   8    -0.07  -0.48   0.00    -0.43  -0.02   0.00     0.00   0.00  -0.38
    15   1    -0.10  -0.26   0.00    -0.45   0.19   0.00     0.00   0.00  -0.24
                      4                      5                      6
                      A                      A                      A
 Frequencies --     85.8121               135.4835               185.5588
 Red. masses --      2.6502                 2.2970                 4.6689
 Frc consts  --      0.0115                 0.0248                 0.0947
 IR Inten    --      0.3877                 2.9603                 4.5717
  Atom  AN      X      Y      Z        X      Y      Z        X      Y      Z
     1   6     0.00   0.00   0.08     0.00   0.00  -0.19    -0.12  -0.13   0.00
     2   1     0.00   0.00   0.13     0.00   0.00  -0.39    -0.12  -0.11   0.00
     3   6     0.00   0.00   0.05     0.00   0.00   0.01    -0.09  -0.05   0.00
     4   6     0.00   0.00   0.00     0.00   0.00   0.10    -0.06   0.14   0.00
     5   8     0.00   0.00   0.11     0.00   0.00   0.04     0.04   0.19   0.00
     6   8     0.00   0.00  -0.17     0.00   0.00   0.18    -0.10   0.18   0.00
     7   6     0.00   0.00  -0.20     0.00   0.00  -0.15    -0.11   0.02   0.00
     8   6     0.00   0.00   0.21     0.00   0.00  -0.04     0.20  -0.13   0.00
     9   1     0.01   0.25  -0.36    -0.20   0.16  -0.31    -0.20  -0.04   0.01
    10   1    -0.01  -0.25  -0.36     0.20  -0.16  -0.31    -0.20  -0.04  -0.01
    11   1     0.00  -0.27   0.37     0.25  -0.18   0.16     0.36  -0.05   0.00
    12   1     0.00   0.27   0.37    -0.25   0.18   0.16     0.36  -0.05   0.00
    13   1     0.00   0.00   0.18     0.00   0.00  -0.37     0.18  -0.43   0.00
    14   8     0.00   0.00  -0.05     0.00   0.00   0.03     0.17  -0.19   0.00
    15   1     0.00   0.00  -0.14     0.00   0.00   0.21     0.18  -0.31   0.00
                      7                      8                      9
                      A                      A                      A
 Frequencies --    255.5644               264.4817               285.3924
 Red. masses --      1.2513                 1.2053                 6.9136
 Frc consts  --      0.0482                 0.0497                 0.3318
 IR Inten    --     35.5777                65.2550                 2.2447
  Atom  AN      X      Y      Z        X      Y      Z        X      Y      Z
     1   6     0.00   0.00   0.05     0.00   0.00  -0.06     0.14   0.14   0.00
     2   1     0.00   0.00   0.19     0.00   0.00  -0.15     0.15   0.23   0.00
     3   6     0.00   0.00  -0.12     0.00   0.00   0.07    -0.01  -0.26   0.00
     4   6     0.00   0.00  -0.03     0.00   0.00   0.04     0.04  -0.10   0.00
     5   8     0.00   0.00   0.03     0.00   0.00  -0.03     0.38   0.03   0.00
     6   8     0.00   0.00   0.03     0.00   0.00   0.04    -0.19   0.04   0.00
     7   6     0.00   0.00   0.04     0.00   0.00  -0.05    -0.21  -0.03   0.00
     8   6     0.00   0.00   0.00     0.00   0.00   0.00     0.01  -0.15   0.00
     9   1    -0.01  -0.01   0.05    -0.04   0.04  -0.08    -0.27  -0.07   0.01
    10   1     0.01   0.01   0.05     0.04  -0.04  -0.08    -0.27  -0.07  -0.01
    11   1     0.30  -0.09   0.16    -0.29   0.07  -0.15     0.14  -0.08   0.00
    12   1    -0.30   0.09   0.16     0.29  -0.07  -0.15     0.14  -0.08   0.00
    13   1     0.00   0.00  -0.40     0.00   0.00   0.37    -0.01  -0.39   0.00
    14   8     0.00   0.00   0.03     0.00   0.00   0.05    -0.14   0.23   0.00
    15   1     0.00   0.00  -0.73     0.00   0.00  -0.76    -0.15   0.33   0.00
                     10                     11                     12
                      A                      A                      A
 Frequencies --    301.6198               387.3547               544.0369
 Red. masses --      2.6472                 3.4696                 6.4386
 Frc consts  --      0.1419                 0.3067                 1.1228
 IR Inten    --      2.7650                10.3411                 0.0221
  Atom  AN      X      Y      Z        X      Y      Z        X      Y      Z
     1   6     0.00   0.00  -0.12     0.00  -0.02   0.00     0.23  -0.07   0.00
     2   1     0.00   0.00  -0.43     0.00  -0.07   0.00     0.24  -0.23   0.00
     3   6     0.00   0.00   0.28     0.05   0.11   0.00     0.35   0.36   0.00
     4   6     0.00   0.00   0.03     0.03   0.12   0.00     0.07  -0.06   0.00
     5   8     0.00   0.00  -0.07     0.11   0.15   0.00    -0.08  -0.13   0.00
     6   8     0.00   0.00  -0.16     0.07   0.05   0.00    -0.15   0.05   0.00
     7   6     0.00   0.00   0.09     0.01  -0.21   0.00    -0.30   0.09   0.00
     8   6     0.00   0.00   0.01    -0.25  -0.15   0.00    -0.06  -0.07   0.00
     9   1     0.15  -0.11   0.21    -0.04  -0.23  -0.01    -0.30   0.06   0.01
    10   1    -0.15   0.11   0.21    -0.04  -0.23   0.01    -0.30   0.06  -0.01
    11   1     0.34  -0.06   0.17    -0.47  -0.25  -0.01     0.13   0.02   0.01
    12   1    -0.34   0.06   0.17    -0.47  -0.25   0.01     0.13   0.02  -0.01
    13   1     0.00   0.00  -0.42    -0.23   0.24   0.00    -0.08  -0.41   0.00
    14   8     0.00   0.00   0.03     0.02  -0.04   0.00     0.01  -0.08   0.00
    15   1     0.00   0.00  -0.21     0.02  -0.02   0.00     0.00   0.10   0.00
                     13                     14                     15
                      A                      A                      A
 Frequencies --    603.1544               775.1061               789.5131
 Red. masses --      8.6849                 3.7477                 1.6148
 Frc consts  --      1.8615                 1.3266                 0.5930
 IR Inten    --      7.1987                 2.0246                55.0123
  Atom  AN      X      Y      Z        X      Y      Z        X      Y      Z
     1   6    -0.36   0.06   0.00     0.00   0.00   0.16     0.00   0.00  -0.14
     2   1    -0.36   0.14   0.00     0.00   0.00  -0.81     0.00   0.00   0.95
     3   6    -0.15   0.48   0.00     0.00   0.00  -0.20     0.00   0.00  -0.01
     4   6    -0.04  -0.20   0.00     0.00   0.00   0.39     0.00   0.00   0.17
     5   8     0.38  -0.05   0.00     0.00   0.00  -0.11     0.00   0.00  -0.05
     6   8    -0.04  -0.22   0.00     0.00   0.00  -0.09     0.00   0.00  -0.04
     7   6    -0.01   0.04   0.00     0.00   0.00  -0.03     0.00   0.00  -0.02
     8   6     0.05   0.05   0.00     0.00   0.00  -0.01     0.00   0.00   0.00
     9   1     0.08   0.06   0.01     0.06  -0.16   0.10     0.03  -0.09   0.05
    10   1     0.08   0.06  -0.01    -0.06   0.16   0.10    -0.03   0.09   0.05
    11   1     0.16   0.10   0.01    -0.03  -0.11   0.05    -0.02  -0.07   0.03
    12   1     0.16   0.10  -0.01     0.03   0.11   0.05     0.02   0.07   0.03
    13   1     0.04  -0.14   0.00     0.00   0.00   0.04     0.00   0.00   0.03
    14   8     0.02  -0.05   0.00     0.00   0.00  -0.01     0.00   0.00   0.01
    15   1     0.04  -0.33   0.00     0.00   0.00   0.00     0.00   0.00   0.04
                     16                     17                     18
                      A                      A                      A
 Frequencies --    810.2998               826.1174               875.1502
 Red. masses --      1.1272                 1.1430                 1.1267
 Frc consts  --      0.4361                 0.4596                 0.5084
 IR Inten    --    180.0992                 0.0820                 9.9412
  Atom  AN      X      Y      Z        X      Y      Z        X      Y      Z
     1   6     0.01  -0.02   0.00     0.00   0.00   0.00     0.02  -0.01   0.00
     2   1     0.05   0.73   0.00     0.00   0.00   0.05     0.06   0.68   0.00
     3   6    -0.01   0.01   0.00     0.00   0.00  -0.02     0.01   0.01   0.00
     4   6    -0.02   0.00   0.00     0.00   0.00   0.06     0.02  -0.02   0.00
     5   8     0.00   0.01   0.00     0.00   0.00  -0.02    -0.01  -0.03   0.00
     6   8     0.00  -0.01   0.00     0.00   0.00  -0.04    -0.01   0.06   0.00
     7   6     0.00   0.00   0.00     0.00   0.00   0.07     0.02  -0.01   0.00
     8   6     0.00   0.01   0.00     0.00   0.00   0.04     0.02  -0.01   0.00
     9   1     0.01   0.00   0.00     0.02   0.45  -0.23    -0.03  -0.02   0.00
    10   1     0.01   0.00   0.00    -0.02  -0.45  -0.23    -0.03  -0.02   0.00
    11   1     0.01   0.01   0.00     0.12   0.42  -0.18    -0.06  -0.04  -0.01
    12   1     0.01   0.01   0.00    -0.12  -0.42  -0.18    -0.06  -0.04   0.01
    13   1     0.00   0.01   0.00     0.00   0.00  -0.19     0.02   0.11   0.00
    14   8     0.01  -0.08   0.00     0.00   0.00   0.00    -0.04   0.00   0.00
    15   1    -0.06   0.67   0.00     0.00   0.00   0.00     0.01  -0.71   0.00
                     19                     20                     21
                      A                      A                      A
 Frequencies --    903.4223               957.3131              1082.9588
 Red. masses --      2.1453                 5.7308                 3.3626
 Frc consts  --      1.0316                 3.0944                 2.3235
 IR Inten    --      6.3945                 7.7989                38.6811
  Atom  AN      X      Y      Z        X      Y      Z        X      Y      Z
     1   6     0.04  -0.01   0.00     0.20  -0.04   0.00     0.05  -0.01   0.00
     2   1     0.06   0.26   0.00     0.22   0.01   0.00     0.06  -0.04   0.00
     3   6     0.01  -0.04   0.00     0.12   0.03   0.00     0.03   0.03   0.00
     4   6    -0.01   0.08   0.00    -0.27   0.04   0.00    -0.11  -0.04   0.00
     5   8    -0.02   0.11   0.00     0.00   0.23   0.00     0.01   0.02   0.00
     6   8     0.12  -0.15   0.00    -0.20  -0.26   0.00    -0.20   0.04   0.00
     7   6    -0.08   0.06   0.00     0.04  -0.17   0.00     0.31   0.11   0.00
     8   6    -0.13  -0.02   0.00     0.16   0.17   0.00    -0.11  -0.14   0.00
     9   1     0.13   0.15   0.00    -0.04  -0.22   0.01     0.43   0.26  -0.05
    10   1     0.13   0.15   0.00    -0.04  -0.22  -0.01     0.43   0.26   0.05
    11   1     0.27   0.12   0.04    -0.01   0.15  -0.03     0.03  -0.18   0.06
    12   1     0.27   0.12  -0.04    -0.01   0.15   0.03     0.03  -0.18  -0.06
    13   1    -0.17  -0.68   0.00     0.19   0.56   0.00    -0.12  -0.44   0.00
    14   8    -0.02   0.00   0.00    -0.02   0.00   0.00     0.00  -0.01   0.00
    15   1     0.01  -0.32   0.00     0.01  -0.29   0.00     0.00   0.01   0.00
                     22                     23                     24
                      A                      A                      A
 Frequencies --   1151.2032              1186.7211              1273.7836
 Red. masses --      2.2514                 1.5734                 9.0125
 Frc consts  --      1.7579                 1.3055                 8.6156
 IR Inten    --     15.1343                 4.2772               639.0770
  Atom  AN      X      Y      Z        X      Y      Z        X      Y      Z
     1   6     0.01   0.00   0.00     0.00   0.00   0.00    -0.13   0.02   0.00
     2   1     0.01   0.00   0.00     0.00   0.00   0.00    -0.15   0.13   0.00
     3   6     0.00  -0.01   0.00     0.00   0.00   0.00    -0.02  -0.03   0.00
     4   6    -0.03   0.00   0.00     0.00   0.00   0.01     0.60   0.30   0.00
     5   8     0.00   0.05   0.00     0.00   0.00   0.00    -0.08   0.02   0.00
     6   8     0.04  -0.10   0.00     0.00   0.00  -0.05    -0.32  -0.26   0.00
     7   6    -0.08   0.22   0.00     0.00   0.00   0.18     0.14   0.04   0.00
     8   6     0.10  -0.17   0.00     0.00   0.00  -0.13     0.00   0.00   0.00
     9   1    -0.01   0.25   0.01    -0.36   0.32  -0.14    -0.35  -0.13  -0.01
    10   1    -0.01   0.25  -0.01     0.36  -0.32  -0.14    -0.35  -0.13   0.01
    11   1    -0.42  -0.33  -0.07    -0.07  -0.41   0.11     0.00  -0.07   0.03
    12   1    -0.42  -0.33   0.07     0.07   0.41   0.11     0.00  -0.07  -0.03
    13   1     0.13   0.41   0.00     0.00   0.00   0.26     0.00   0.01   0.00
    14   8     0.00   0.00   0.00     0.00   0.00   0.00     0.01   0.01   0.00
    15   1     0.00  -0.01   0.00     0.00   0.00   0.00    -0.01   0.06   0.00
                     25                     26                     27
                      A                      A                      A
 Frequencies --   1315.8364              1402.7872              1442.1432
 Red. masses --      1.0819                 1.2466                 1.4662
 Frc consts  --      1.1037                 1.4453                 1.7967
 IR Inten    --      1.7750                 4.6874                16.1123
  Atom  AN      X      Y      Z        X      Y      Z        X      Y      Z
     1   6     0.00   0.00   0.00     0.01   0.00   0.00    -0.01   0.00   0.00
     2   1     0.00   0.00   0.00     0.01  -0.01   0.00    -0.01   0.01   0.00
     3   6     0.00   0.00   0.00     0.00   0.00   0.00     0.00   0.00   0.00
     4   6     0.00   0.00   0.00    -0.04  -0.01   0.00     0.05   0.01   0.00
     5   8     0.00   0.00   0.00     0.01   0.00   0.00    -0.01   0.00   0.00
     6   8     0.00   0.00   0.04     0.03  -0.01   0.00    -0.03   0.01   0.00
     7   6     0.00   0.00   0.00     0.06   0.06   0.00    -0.09  -0.11   0.00
     8   6     0.00   0.00  -0.07     0.02   0.10   0.00     0.09   0.10   0.00
     9   1     0.62   0.27   0.02    -0.34  -0.25   0.07     0.42   0.25  -0.08
    10   1    -0.62  -0.27   0.02    -0.34  -0.25  -0.07     0.42   0.25   0.08
    11   1    -0.03  -0.19   0.04    -0.22  -0.31   0.17    -0.34  -0.18   0.03
    12   1     0.03   0.19   0.04    -0.22  -0.31  -0.17    -0.34  -0.18  -0.03
    13   1     0.00   0.00   0.09    -0.03  -0.51   0.00     0.04  -0.40   0.00
    14   8     0.00   0.00   0.00     0.00   0.00   0.00     0.00   0.00   0.00
    15   1     0.00   0.00   0.00     0.00   0.00   0.00     0.00   0.00   0.00
                     28                     29                     30
                      A                      A                      A
 Frequencies --   1493.7909              1507.4593              1530.0076
 Red. masses --      1.0373                 1.0526                 1.0854
 Frc consts  --      1.3638                 1.4093                 1.4970
 IR Inten    --      9.1126                 3.3811                 8.5890
  Atom  AN      X      Y      Z        X      Y      Z        X      Y      Z
     1   6     0.00   0.00   0.00     0.00   0.00   0.00     0.00   0.00   0.00
     2   1     0.00   0.00   0.00     0.00   0.00   0.00    -0.01   0.00   0.00
     3   6     0.00   0.00   0.00     0.00   0.00   0.00     0.00   0.00   0.00
     4   6     0.00   0.00   0.00     0.00   0.00   0.00     0.02   0.00   0.00
     5   8     0.00   0.00   0.00     0.00   0.00   0.00     0.00   0.00   0.00
     6   8     0.00   0.00   0.00     0.01   0.00   0.00    -0.02   0.01   0.00
     7   6     0.00   0.00  -0.02    -0.02  -0.04   0.00    -0.06   0.05   0.00
     8   6     0.00   0.00  -0.05    -0.03   0.04   0.00    -0.01   0.01   0.00
     9   1     0.00  -0.04   0.00    -0.07   0.23  -0.18     0.37  -0.36   0.38
    10   1     0.00   0.04   0.00    -0.07   0.23   0.18     0.37  -0.36  -0.38
    11   1     0.48   0.14   0.05     0.29  -0.38   0.36     0.13  -0.17   0.16
    12   1    -0.48  -0.14   0.05     0.29  -0.38  -0.36     0.13  -0.17  -0.16
    13   1     0.00   0.00   0.70     0.00   0.29   0.00     0.00   0.15   0.00
    14   8     0.00   0.00   0.00     0.00   0.00   0.00     0.00   0.00   0.00
    15   1     0.00   0.00   0.00     0.00   0.00   0.00     0.00   0.00   0.00
                     31                     32                     33
                      A                      A                      A
 Frequencies --   1850.2161              2083.9310              3069.2113
 Red. masses --     12.4647                 6.4679                 1.0355
 Frc consts  --     25.1407                16.5494                 5.7472
 IR Inten    --    428.4692                90.8158                 7.6287
  Atom  AN      X      Y      Z        X      Y      Z        X      Y      Z
     1   6     0.09  -0.03   0.00    -0.38   0.10   0.00     0.00   0.00   0.00
     2   1     0.14  -0.02   0.00    -0.68   0.20   0.00     0.00   0.00   0.00
     3   6    -0.07   0.02   0.00     0.54  -0.18   0.00     0.00   0.00   0.00
     4   6    -0.31   0.73   0.00    -0.13   0.05   0.00     0.00   0.00   0.00
     5   8     0.21  -0.49   0.00     0.01  -0.02   0.00     0.00   0.00   0.00
     6   8     0.00  -0.06   0.00     0.00   0.00   0.00     0.00   0.00   0.00
     7   6    -0.03   0.01   0.00     0.00   0.00   0.00     0.00   0.00   0.00
     8   6     0.01  -0.01   0.00     0.00   0.00   0.00    -0.02  -0.04   0.00
     9   1     0.11   0.07   0.03     0.00   0.00   0.00     0.00  -0.01  -0.01
    10   1     0.11   0.07  -0.03     0.00   0.00   0.00     0.00  -0.01   0.01
    11   1    -0.02  -0.03   0.00     0.00   0.00   0.00    -0.16   0.28   0.46
    12   1    -0.02  -0.03   0.00     0.00   0.00   0.00    -0.16   0.28  -0.46
    13   1     0.01   0.05   0.00     0.00   0.00   0.00     0.60  -0.05   0.00
    14   8     0.00   0.00   0.00     0.01   0.03   0.00     0.00   0.00   0.00
    15   1     0.00  -0.04   0.00     0.00   0.04   0.00     0.00   0.00   0.00
                     34                     35                     36
                      A                      A                      A
 Frequencies --   3104.1880              3142.2993              3148.4621
 Red. masses --      1.0589                 1.1068                 1.1013
 Frc consts  --      6.0115                 6.4388                 6.4323
 IR Inten    --      9.6981                 0.0729                11.8802
  Atom  AN      X      Y      Z        X      Y      Z        X      Y      Z
     1   6     0.00   0.00   0.00     0.00   0.00   0.00     0.00   0.00   0.00
     2   1     0.00   0.00   0.00     0.00   0.00   0.00     0.00   0.00   0.00
     3   6     0.00   0.00   0.00     0.00   0.00   0.00     0.00   0.00   0.00
     4   6     0.00   0.00   0.00     0.00   0.00   0.00     0.00   0.00   0.00
     5   8     0.00   0.00   0.00     0.00   0.00   0.00     0.00   0.00   0.00
     6   8     0.00   0.00   0.00     0.00   0.00   0.00     0.00   0.00   0.00
     7   6     0.03  -0.06   0.00     0.00   0.00  -0.07    -0.01   0.01   0.00
     8   6    -0.01   0.01   0.00     0.00   0.00   0.07    -0.08   0.04   0.00
     9   1    -0.17   0.36   0.58    -0.13   0.27   0.41     0.02  -0.05  -0.08
    10   1    -0.17   0.36  -0.58     0.13  -0.27   0.41     0.02  -0.05   0.08
    11   1     0.01  -0.02  -0.04     0.14  -0.25  -0.39     0.10  -0.21  -0.35
    12   1     0.01  -0.02   0.04    -0.14   0.25  -0.39     0.10  -0.21   0.35
    13   1     0.12  -0.01   0.00     0.00   0.00   0.01     0.78  -0.06   0.00
    14   8     0.00   0.00   0.00     0.00   0.00   0.00     0.00   0.00   0.00
    15   1     0.00   0.00   0.00     0.00   0.00   0.00     0.00   0.00   0.00
                     37                     38                     39
                      A                      A                      A
 Frequencies --   3164.8322              3415.1512              3785.1191
 Red. masses --      1.1073                 1.1447                 1.0678
 Frc consts  --      6.5347                 7.8663                 9.0137
 IR Inten    --     21.0487                67.7209                37.0449
  Atom  AN      X      Y      Z        X      Y      Z        X      Y      Z
     1   6     0.00   0.00   0.00    -0.11   0.01   0.00     0.00   0.00   0.00
     2   1     0.00   0.00   0.00     0.99  -0.06   0.00     0.00   0.00   0.00
     3   6     0.00   0.00   0.00     0.03  -0.01   0.00     0.00   0.00   0.00
     4   6     0.00   0.00   0.00     0.00   0.00   0.00     0.00   0.00   0.00
     5   8     0.00   0.00   0.00     0.00   0.00   0.00     0.00   0.00   0.00
     6   8     0.00   0.00   0.00     0.00   0.00   0.00     0.00   0.00   0.00
     7   6     0.00   0.00   0.07     0.00   0.00   0.00     0.00   0.00   0.00
     8   6     0.00   0.00   0.07     0.00   0.00   0.00     0.00   0.00   0.00
     9   1     0.12  -0.26  -0.39     0.00   0.00   0.00     0.00   0.00   0.00
    10   1    -0.12   0.26  -0.39     0.00   0.00   0.00     0.00   0.00   0.00
    11   1     0.14  -0.26  -0.41     0.00   0.00   0.00     0.00   0.00   0.00
    12   1    -0.14   0.26  -0.41     0.00   0.00   0.00     0.00   0.00   0.00
    13   1     0.00   0.00   0.01     0.00   0.00   0.00     0.00   0.00   0.00
    14   8     0.00   0.00   0.00     0.00   0.00   0.00     0.06   0.01   0.00
    15   1     0.00   0.00   0.00     0.00   0.00   0.00    -0.99  -0.08   0.00

 -------------------
 - Thermochemistry -
 -------------------
 Temperature   298.150 Kelvin.  Pressure   1.00000 Atm.
 Atom     1 has atomic number  6 and mass  12.00000
 Atom     2 has atomic number  1 and mass   1.00783
 Atom     3 has atomic number  6 and mass  12.00000
 Atom     4 has atomic number  6 and mass  12.00000
 Atom     5 has atomic number  8 and mass  15.99491
 Atom     6 has atomic number  8 and mass  15.99491
 Atom     7 has atomic number  6 and mass  12.00000
 Atom     8 has atomic number  6 and mass  12.00000
 Atom     9 has atomic number  1 and mass   1.00783
 Atom    10 has atomic number  1 and mass   1.00783
 Atom    11 has atomic number  1 and mass   1.00783
 Atom    12 has atomic number  1 and mass   1.00783
 Atom    13 has atomic number  1 and mass   1.00783
 Atom    14 has atomic number  8 and mass  15.99491
 Atom    15 has atomic number  1 and mass   1.00783
 Molecular mass:   115.03952 amu.
 Principal axes and moments of inertia in atomic units:
                           1         2         3
     Eigenvalues --   627.505121448.746252053.68476
           X            0.99924   0.03901   0.00000
           Y           -0.03901   0.99924   0.00000
           Z            0.00000   0.00000   1.00000
 This molecule is an asymmetric top.
 Rotational symmetry number  1.
 Warning -- assumption of classical behavior for rotation
           may cause significant error
 Rotational temperatures (Kelvin)      0.13803     0.05979     0.04217
 Rotational constants (GHZ):           2.87606     1.24573     0.87878
    1 imaginary frequencies ignored.
 Zero-point vibrational energy     294696.3 (Joules/Mol)
                                   70.43411 (Kcal/Mol)
 Warning -- explicit consideration of  12 degrees of freedom as
           vibrations may cause significant error
 Vibrational temperatures:     90.19   102.46   123.46   194.93   266.98
          (Kelvin)            367.70   380.53   410.62   433.96   557.32
                              782.75   867.80  1115.20  1135.93  1165.84
                             1188.60  1259.14  1299.82  1377.36  1558.13
                             1656.32  1707.42  1832.69  1893.19  2018.30
                             2074.92  2149.23  2168.89  2201.34  2662.05
                             2998.31  4415.91  4466.23  4521.06  4529.93
                             4553.48  4913.63  5445.94
 
 Zero-point correction=                           0.112244 (Hartree/Particle)
 Thermal correction to Energy=                    0.121754
 Thermal correction to Enthalpy=                  0.122698
 Thermal correction to Gibbs Free Energy=         0.076290
 Sum of electronic and zero-point Energies=           -420.092678
 Sum of electronic and thermal Energies=              -420.083168
 Sum of electronic and thermal Enthalpies=            -420.082224
 Sum of electronic and thermal Free Energies=         -420.128632
 
                     E (Thermal)             CV                S
                      KCal/Mol        Cal/Mol-Kelvin    Cal/Mol-Kelvin
 Total                   76.402             31.729             97.674
 Electronic               0.000              0.000              1.377
 Translational            0.889              2.981             40.136
 Rotational               0.889              2.981             29.014
 Vibrational             74.624             25.767             27.147
 Vibration     1          0.597              1.972              4.371
 Vibration     2          0.598              1.968              4.120
 Vibration     3          0.601              1.959              3.753
 Vibration     4          0.613              1.918              2.867
 Vibration     5          0.632              1.860              2.272
 Vibration     6          0.666              1.753              1.692
 Vibration     7          0.671              1.738              1.632
 Vibration     8          0.683              1.701              1.501
 Vibration     9          0.694              1.671              1.408
 Vibration    10          0.756              1.497              1.010
 Vibration    11          0.899              1.153              0.557
 Vibration    12          0.962              1.025              0.444
                       Q            Log10(Q)             Ln(Q)
 Total Bot       0.811517D-35        -35.090702        -80.799328
 Total V=0       0.344983D+17         16.537797         38.079686
 Vib (Bot)       0.171050D-48        -48.766876       -112.289882
 Vib (Bot)    1  0.329326D+01          0.517627          1.191879
 Vib (Bot)    2  0.289576D+01          0.461763          1.063248
 Vib (Bot)    3  0.239770D+01          0.379795          0.874509
 Vib (Bot)    4  0.150262D+01          0.176848          0.407207
 Vib (Bot)    5  0.108031D+01          0.033547          0.077244
 Vib (Bot)    6  0.761657D+00         -0.118240         -0.272259
 Vib (Bot)    7  0.732756D+00         -0.135041         -0.310942
 Vib (Bot)    8  0.671745D+00         -0.172796         -0.397877
 Vib (Bot)    9  0.629942D+00         -0.200699         -0.462127
 Vib (Bot)   10  0.464356D+00         -0.333149         -0.767105
 Vib (Bot)   11  0.290108D+00         -0.537440         -1.237502
 Vib (Bot)   12  0.246761D+00         -0.607723         -1.399334
 Vib (V=0)       0.727149D+03          2.861624          6.589132
 Vib (V=0)    1  0.383100D+01          0.583313          1.343127
 Vib (V=0)    2  0.343861D+01          0.536383          1.235068
 Vib (V=0)    3  0.294928D+01          0.469716          1.081560
 Vib (V=0)    4  0.208362D+01          0.318819          0.734107
 Vib (V=0)    5  0.169040D+01          0.227990          0.524967
 Vib (V=0)    6  0.141111D+01          0.149561          0.344377
 Vib (V=0)    7  0.138709D+01          0.142105          0.327209
 Vib (V=0)    8  0.133740D+01          0.126262          0.290728
 Vib (V=0)    9  0.130426D+01          0.115363          0.265633
 Vib (V=0)   10  0.118237D+01          0.072753          0.167519
 Vib (V=0)   11  0.107807D+01          0.032646          0.075171
 Vib (V=0)   12  0.105758D+01          0.024312          0.055980
 Electronic      0.200000D+01          0.301030          0.693147
 Translational   0.484982D+08          7.685726         17.697038
 Rotational      0.489123D+06          5.689418         13.100369
 ***** Axes restored to original set *****
 -------------------------------------------------------------------
 Center     Atomic                   Forces (Hartrees/Bohr)
 Number     Number              X              Y              Z
 -------------------------------------------------------------------
      1        6          -0.000784524   -0.007544798    0.000000051
      2        1          -0.000233637    0.000299171   -0.000000008
      3        6          -0.000188226    0.000815956   -0.000000022
      4        6           0.000042154   -0.000096988    0.000000048
      5        8           0.000076369    0.000027235   -0.000000014
      6        8           0.000064489    0.000015590    0.000000035
      7        6          -0.000011598   -0.000007600   -0.000000496
      8        6           0.000009699   -0.000000347   -0.000000539
      9        1           0.000004956    0.000003592    0.000001080
     10        1           0.000004992    0.000003243   -0.000000598
     11        1          -0.000001985    0.000003755    0.000000701
     12        1          -0.000001897    0.000003485   -0.000000256
     13        1          -0.000000746    0.000007316    0.000000054
     14        8           0.000891993    0.006256977   -0.000000033
     15        1           0.000127962    0.000213414   -0.000000003
 -------------------------------------------------------------------
 Cartesian Forces:  Max     0.007544798 RMS     0.001478849

 GradGradGradGradGradGradGradGradGradGradGradGradGradGradGradGradGradGrad
 Berny optimization.
 Search for a local minimum.
 Step number   1 out of a maximum of    2
 All quantities printed in internal units (Hartrees-Bohrs-Radians)
 Second derivative matrix not updated -- analytic derivatives used.
 ITU=  0
     Eigenvalues ---   -0.22806   0.00077   0.00091   0.00160   0.00187
     Eigenvalues ---    0.00422   0.00574   0.00625   0.01936   0.02069
     Eigenvalues ---    0.02595   0.03196   0.03517   0.05314   0.06026
     Eigenvalues ---    0.07818   0.08512   0.09334   0.09970   0.11459
     Eigenvalues ---    0.11620   0.14707   0.15013   0.16829   0.20206
     Eigenvalues ---    0.29493   0.30315   0.44979   0.47564   0.63851
     Eigenvalues ---    0.70265   0.73547   0.79287   0.86410   0.89303
     Eigenvalues ---    0.92247   0.99916   1.75083   2.30096
 Eigenvalue     1 is  -2.28D-01 should be greater than     0.000000 Eigenvector:
                          Y1        Y14       X1        Y3        X15
   1                    0.78636  -0.58525   0.12647  -0.08036  -0.07244
                          Y2        Y15       X14       X2        X3
   1                   -0.06347  -0.05721  -0.04541   0.03019  -0.02990
 Angle between quadratic step and forces=  26.17 degrees.
 Linear search not attempted -- first point.
 TrRot=  0.000132  0.000571  0.000000  0.000108  0.000000  0.000108
 Variable       Old X    -DE/DX   Delta X   Delta X   Delta X     New X
                                 (Linear)    (Quad)   (Total)
    X1        4.83198  -0.00078   0.00000  -0.00329  -0.00322   4.82876
    Y1        0.30572  -0.00754   0.00000  -0.03046  -0.02884   0.27688
    Z1        0.00000   0.00000   0.00000   0.00000   0.00000   0.00000
    X2        6.84722  -0.00023   0.00000   0.00062   0.00071   6.84793
    Y2        0.19510   0.00030   0.00000  -0.00046   0.00160   0.19669
    Z2        0.00000   0.00000   0.00000   0.00000   0.00000   0.00000
    X3        2.71182  -0.00019   0.00000   0.00044   0.00031   2.71212
    Y3        1.21219   0.00082   0.00000   0.00044   0.00160   1.21379
    Z3       -0.00001   0.00000   0.00000   0.00000   0.00000  -0.00001
    X4        0.02655   0.00004   0.00000  -0.00054  -0.00080   0.02575
    Y4        1.80088  -0.00010   0.00000  -0.00297  -0.00240   1.79849
    Z4       -0.00001   0.00000   0.00000   0.00000   0.00000  -0.00001
    X5       -0.83268   0.00008   0.00000   0.00108   0.00037  -0.83231
    Y5        3.89410   0.00003   0.00000  -0.00203  -0.00164   3.89246
    Z5       -0.00002   0.00000   0.00000   0.00000   0.00000  -0.00002
    X6       -1.32956   0.00006   0.00000  -0.00183  -0.00162  -1.33118
    Y6       -0.33077   0.00002   0.00000  -0.00160  -0.00132  -0.33209
    Z6        0.00000   0.00000   0.00000   0.00000   0.00000   0.00000
    X7       -4.03810  -0.00001   0.00000  -0.00201  -0.00188  -4.03998
    Y7       -0.00087  -0.00001   0.00000   0.00061   0.00031  -0.00057
    Z7        0.00000   0.00000   0.00000   0.00000   0.00000   0.00000
    X8       -5.20594   0.00001   0.00000  -0.00425  -0.00356  -5.20950
    Y8       -2.60491   0.00000   0.00000   0.00163   0.00107  -2.60384
    Z8        0.00001   0.00000   0.00000   0.00000   0.00000   0.00001
    X9       -4.55790   0.00000   0.00000  -0.00119  -0.00129  -4.55920
    Y9        1.09269   0.00000   0.00000   0.00115   0.00074   1.09342
    Z9        1.67020   0.00000   0.00000  -0.00005  -0.00006   1.67015
   X10       -4.55790   0.00000   0.00000  -0.00119  -0.00130  -4.55920
   Y10        1.09267   0.00000   0.00000   0.00116   0.00074   1.09341
   Z10       -1.67022   0.00000   0.00000   0.00006   0.00006  -1.67016
   X11       -4.63564   0.00000   0.00000  -0.00531  -0.00439  -4.64003
   Y11       -3.66095   0.00000   0.00000   0.00123   0.00080  -3.66015
   Z11       -1.67577   0.00000   0.00000  -0.00004  -0.00004  -1.67581
   X12       -4.63564   0.00000   0.00000  -0.00531  -0.00438  -4.64003
   Y12       -3.66093   0.00000   0.00000   0.00123   0.00079  -3.66014
   Z12        1.67579   0.00000   0.00000   0.00004   0.00003   1.67583
   X13       -7.26129   0.00000   0.00000  -0.00417  -0.00351  -7.26480
   Y13       -2.43910   0.00001   0.00000   0.00355   0.00255  -2.43655
   Z13        0.00001   0.00000   0.00000   0.00000   0.00000   0.00001
   X14        4.43816   0.00089   0.00000   0.01068   0.01155   4.44971
   Y14       -3.40916   0.00626   0.00000   0.03084   0.03237  -3.37679
   Z14        0.00002   0.00000   0.00000   0.00000   0.00000   0.00002
   X15        2.60914   0.00013   0.00000   0.01212   0.01302   2.62216
   Y15       -3.55594   0.00021   0.00000  -0.00950  -0.00836  -3.56430
   Z15        0.00002   0.00000   0.00000   0.00000   0.00000   0.00002
         Item               Value     Threshold  Converged?
 Maximum Force            0.007545     0.000450     NO 
 RMS     Force            0.001479     0.000300     NO 
 Maximum Displacement     0.032374     0.001800     NO 
 RMS     Displacement     0.007246     0.001200     NO 
 Predicted change in Energy=-6.420741D-04
 GradGradGradGradGradGradGradGradGradGradGradGradGradGradGradGradGradGrad

 1|1|UNPC-DIT|Freq|UM062X|6-311++G(d,p)|C5H7O3(2)|NDITM|28-Mar-2025|0||
 # freq 6-311++g(d,p) m062x||Title Card Required||0,2|C,2.556974,0.1617
 79,0.|H,3.623392,0.10324,0.000001|C,1.435031,0.641465,-0.000003|C,0.01
 4048,0.952987,-0.000005|O,-0.440636,2.060669,-0.00001|O,-0.703572,-0.1
 75037,0.|C,-2.136871,-0.000463,-0.000001|C,-2.754867,-1.378459,0.00000
 5|H,-2.411939,0.578225,0.883834|H,-2.411938,0.578218,-0.883842|H,-2.45
 3077,-1.937289,-0.886778|H,-2.453077,-1.937281,0.886792|H,-3.842511,-1
 .290714,0.000004|O,2.348573,-1.80405,0.00001|H,1.380695,-1.881721,0.00
 001||Version=IA32W-G09RevD.01|State=2-A|HF=-420.2049214|S2=0.777744|S2
 -1=0.|S2A=0.750295|RMSD=8.766e-009|RMSF=1.479e-003|ZeroPoint=0.1122439
 |Thermal=0.1217537|Dipole=-0.8272852,-0.3079453,0.0000011|DipoleDeriv=
 -0.110129,0.4933281,-0.0000137,0.2104321,-1.0675942,-0.0000018,-0.0000
 182,-0.0000124,-0.0336994,0.2703963,-0.0019262,0.0000082,-0.056871,0.2
 805051,-0.0000002,0.0000013,0.0000006,0.1970539,-0.5979042,-0.4324858,
 -0.0000081,0.0219387,0.07641,0.0000033,0.0000029,0.0000021,-0.0952137,
 2.1596571,-0.3668649,0.000016,0.4502666,1.87787,-0.0000047,0.0000058,0
 .0000008,0.3971439,-0.8318726,0.4626177,-0.0000011,0.0140308,-1.191491
 5,0.0000004,0.0000017,0.000006,-0.3424469,-1.6607338,-0.331211,-0.0000
 026,-0.6452006,-0.9414621,0.0000044,0.0000072,0.000008,-0.280552,1.017
 8685,0.1890827,-0.0000018,0.0910618,0.3367977,0.,0.0000133,0.0000136,0
 .2986294,-0.0304119,-0.0422358,-0.0000068,-0.0573703,-0.0435256,0.0000
 01,-0.0000168,-0.0000168,0.0566575,-0.041546,-0.0434457,-0.0108628,0.0
 25973,0.0038969,-0.0621109,0.0332884,-0.0613159,-0.0368349,-0.0415475,
 -0.0434475,0.010865,0.0259773,0.0039027,0.0621085,-0.0333032,0.0613004
 ,-0.0368328,0.0715807,0.0376066,0.0577945,-0.0141196,0.0104464,-0.0423
 123,0.037716,-0.0697678,-0.0385628,0.0715868,0.0376123,-0.0577962,-0.0
 141289,0.0104385,0.0423123,-0.0376991,0.0697843,-0.0385657,-0.1019942,
 -0.0053851,0.0000103,0.0143482,0.0522367,-0.0000009,0.0000009,0.000001
 2,0.0916356,-0.2860771,-0.0793146,-0.0000034,-0.0090578,0.2482801,-0.0
 000032,-0.0000006,-0.0000043,-0.4469012,0.1111269,0.1260692,0.0000027,
 -0.0572802,0.3432895,0.0000041,0.0000004,0.0000002,0.308489|Polar=90.4
 762709,-9.9244975,91.0222798,0.0003064,0.0000275,47.4510362|PG=C01 [X(
 C5H7O3)]|NImag=1||1.27876677,-0.26377040,-0.07758529,0.00000115,0.0000
 0019,0.07161177,-0.40633694,0.03534754,0.00000020,0.39877939,0.0082629
 0,0.00236874,-0.00000014,-0.02317523,0.02716605,-0.00000028,-0.0000001
 4,-0.03175149,0.00000031,-0.00000007,0.01792903,-0.84809976,0.20800426
 ,-0.00000219,0.00940549,0.02596224,-0.00000008,1.16719442,0.29541131,-
 0.06425421,0.00000054,-0.00718176,-0.00834102,0.00000009,-0.34419504,0
 .21828160,-0.00000200,0.00000019,-0.03397455,-0.00000001,0.00000007,0.
 00705703,0.00000235,-0.00000083,0.05603804,0.01006399,-0.00767221,0.00
 000100,-0.00117517,0.00189525,-0.00000001,-0.25736173,0.04735137,-0.00
 000024,0.68403438,0.01774760,-0.01063588,0.00000018,0.00038679,0.00483
 524,0.,0.01170644,-0.04963152,-0.00000009,-0.17898485,0.93987873,0.000
 00061,0.00000040,0.00148996,-0.00000034,0.00000002,0.00606198,0.000000
 19,-0.00000039,-0.07042001,0.00000014,-0.00000317,0.21000267,-0.006916
 18,0.00450019,0.00000007,0.00036509,-0.00153388,0.,-0.02659662,0.04569
 305,-0.00000021,-0.21645872,0.25542249,-0.00000115,0.21752168,-0.00100
 997,0.00230121,-0.00000025,-0.00015487,-0.00021955,0.,0.04503895,-0.02
 594684,0.00000022,0.23883570,-0.66521729,0.00000265,-0.27830904,0.8009
 6780,0.,0.00000002,0.00072686,-0.00000005,-0.00000001,-0.00119876,-0.0
 0000012,0.00000024,0.02113735,-0.00000104,0.00000248,-0.08084262,0.000
 00119,-0.00000329,0.03388062,-0.00169968,0.00374199,-0.00000026,0.0007
 0671,0.00035710,0.,-0.05726154,-0.03544434,0.00000016,-0.17399525,-0.0
 9489281,0.00000052,0.03013655,-0.01600835,0.00000008,0.48003582,-0.001
 13414,0.00191854,0.00000011,0.00019192,-0.00064424,0.00000001,-0.01530
 920,0.00314000,0.00000009,-0.06023939,-0.22810926,0.00000051,-0.020606
 52,-0.11011653,0.00000064,0.08777516,0.43080346,0.00000030,0.00000017,
 0.00056031,-0.00000018,0.,-0.00055066,0.00000025,-0.00000009,0.0116782
 9,-0.00000010,0.00000063,-0.06951075,0.00000006,0.00000071,0.03108070,
 -0.00000019,-0.00000159,0.08093597,0.00149249,-0.00273761,-0.00000008,
 -0.00035016,0.00032158,-0.00000001,0.00314903,0.00016852,-0.00000005,-
 0.04613701,-0.03715971,0.00000029,-0.00219383,0.02020326,-0.00000010,-
 0.17753521,0.02388338,-0.00000010,0.44064180,0.00003433,-0.00016679,0.
 00000003,-0.00003828,0.00020181,-0.00000001,-0.00401452,-0.00341109,0.
 ,-0.03834151,0.00478842,0.00000002,-0.00330971,-0.00219170,-0.00000004
 ,0.04887524,-0.09579013,0.00000012,-0.01034552,0.58806843,0.00000055,0
 .00000039,-0.00029082,-0.00000044,-0.00000002,-0.00021360,0.00000062,-
 0.00000016,0.00609034,-0.00000055,-0.00000013,0.00176736,-0.00000006,0
 .00000017,-0.00605695,-0.00000003,0.00000004,-0.06901349,-0.00000056,0
 .00000114,0.63143825,-0.00017048,0.00024028,-0.00000049,0.00004499,0.0
 0004419,0.00000001,-0.00157913,-0.00136719,0.00000003,-0.00561576,0.00
 698389,0.00000027,0.00298186,-0.00225171,0.00000004,-0.03834315,-0.044
 18891,0.00000034,-0.08845667,-0.03936908,0.00000050,0.57518030,0.00018
 790,-0.00026259,0.,-0.00001685,0.00001248,0.00000002,0.00038321,0.0005
 2725,0.00000007,0.00212165,-0.00251582,-0.00000009,-0.00146332,0.00102
 768,0.00000002,0.00039602,0.00669993,-0.00000004,-0.05580810,-0.214646
 34,0.00000048,-0.03260825,0.52134638,-0.00000049,-0.00000041,0.0000344
 9,0.00000052,0.00000004,0.00000605,-0.00000079,0.00000013,-0.00011516,
 0.00000071,0.00000012,-0.00006024,0.00000008,-0.00000020,0.00103279,-0
 .00000022,0.,0.00142649,0.00000021,0.00000062,-0.08663143,0.00000024,-
 0.00000037,0.58820817,-0.00009021,0.00014825,0.00007191,0.00004850,-0.
 00001407,0.00003597,-0.00055997,-0.00013458,-0.00110064,0.00168491,0.0
 0886949,0.00147445,0.00155558,-0.00315511,-0.00002675,-0.03164355,0.01
 634073,0.03028235,-0.06162941,0.02955585,0.04391903,0.00519728,-0.0075
 7338,-0.01317570,0.08117305,-0.00002676,-0.00004287,0.00002320,0.00000
 194,0.00001291,0.00002422,0.00025400,-0.00000981,-0.00041483,-0.002083
 62,0.00137325,0.00061303,0.00078264,-0.00023884,0.00018678,0.00514717,
 -0.00167884,-0.00140742,0.03351013,-0.12433578,-0.11543705,0.00623977,
 -0.01477650,-0.02427490,-0.03706031,0.13314307,-0.00014709,0.00009144,
 0.00003096,0.00000109,-0.00001755,0.00002139,0.00018706,0.00018193,-0.
 00051053,-0.00012879,-0.00323091,0.00055988,-0.00172320,0.00082229,0.0
 0026441,0.00310946,0.00333088,0.00623456,0.05243206,-0.11504923,-0.238
 67104,-0.00164332,0.00176543,0.00297039,-0.05716986,0.12595971,0.24780
 318,-0.00009024,0.00014821,-0.00007178,0.00004855,-0.00001406,-0.00003
 597,-0.00056006,-0.00013457,0.00110064,0.00168496,0.00886948,-0.001474
 61,0.00155560,-0.00315511,0.00002678,-0.03164357,0.01634047,-0.0302825
 5,-0.06162922,0.02955503,-0.04391868,0.00519722,-0.00757326,0.01317587
 ,0.00446932,-0.00462722,0.00559901,0.08117288,-0.00002654,-0.00004274,
 -0.00002335,0.00000179,0.00001290,-0.00002422,0.00025418,-0.00000989,0
 .00041483,-0.00208386,0.00137324,-0.00061294,0.00078264,-0.00023877,-0
 .00018676,0.00514723,-0.00167889,0.00140756,0.03350926,-0.12433336,0.1
 1543526,0.00623990,-0.01477628,0.02427491,-0.00462727,0.00919187,-0.01
 395869,-0.03705943,0.13314046,0.00014638,-0.00009190,0.00003119,-0.000
 00059,0.00001757,0.00002139,-0.00018770,-0.00018166,-0.00051054,0.0001
 2966,0.00323102,0.00055972,0.00172328,-0.00082251,0.00026441,-0.003109
 77,-0.00333066,0.00623445,-0.05243172,0.11504731,-0.23867176,0.0016428
 4,-0.00176527,0.00297039,-0.00559891,0.01395841,-0.02085200,0.05716956
 ,-0.12595792,0.24780416,-0.00003313,0.00006261,-0.00000828,-0.00001821
 ,-0.00001127,0.,0.00013389,0.00002555,0.00007089,-0.00010211,-0.001108
 96,-0.00001002,-0.00044376,0.00047053,0.00005692,0.00219679,0.00114994
 ,-0.00031055,0.00244726,-0.00862826,-0.01329701,-0.06891821,0.04010139
 ,0.06301141,-0.00069712,-0.00270989,0.00008012,0.00018027,0.00084178,0
 .00027088,0.07031032,-0.00005152,0.00004596,0.00000743,0.00000325,-0.0
 0000754,-0.00000212,-0.00000041,0.00000152,-0.00004531,0.00024174,-0.0
 0077655,0.00006399,-0.00060858,0.00028619,0.00020164,0.00135780,0.0024
 2095,0.00103834,0.01027692,-0.01804125,-0.02834705,0.03779391,-0.11619
 841,-0.10982387,-0.00334910,-0.00443395,0.00109067,0.00057052,0.000991
 08,0.00027595,-0.04053057,0.12819727,-0.00008574,0.00015581,-0.0000042
 4,-0.00000471,-0.00001977,-0.00000139,0.00002946,-0.00004487,0.0000224
 4,-0.00006514,-0.00014470,0.00002229,-0.00004938,0.00030377,-0.0000534
 6,-0.00053903,0.00009021,0.00016372,-0.00054397,0.00073345,0.00139547,
 0.06231063,-0.11183318,-0.23195720,0.00060104,0.00054883,0.00144393,-0
 .00061151,-0.00019940,0.00075295,-0.06850220,0.12239869,0.24657368,-0.
 00003293,0.00006277,0.00000817,-0.00001840,-0.00001128,0.00000002,0.00
 013417,0.00002548,-0.00007086,-0.00010239,-0.00110900,0.00001006,-0.00
 044379,0.00047061,-0.00005691,0.00219687,0.00114993,0.00031057,0.00244
 728,-0.00862820,0.01329719,-0.06891794,0.04010110,-0.06301222,0.000180
 25,0.00084179,-0.00027090,-0.00069715,-0.00270986,-0.00008018,0.002005
 97,-0.00596547,0.00817752,0.07031021,-0.00005176,0.00004576,-0.0000073
 7,0.00000351,-0.00000752,0.00000212,-0.00000082,0.00000158,0.00004528,
 0.00024210,-0.00077650,-0.00006398,-0.00060854,0.00028609,-0.00020165,
 0.00135771,0.00242097,-0.00103837,0.01027690,-0.01804101,0.02834721,0.
 03779340,-0.11619657,0.10982352,0.00057055,0.00099105,-0.00027598,-0.0
 0334907,-0.00443400,-0.00109055,-0.00596556,0.00919419,-0.01367595,-0.
 04053024,0.12819524,0.00008626,-0.00015540,-0.00000441,0.00000419,0.00
 001974,-0.00000137,-0.00002869,0.00004471,0.00002251,0.00006440,0.0001
 4460,0.00002232,0.00004932,-0.00030358,-0.00005342,0.00053921,-0.00009
 029,0.00016377,0.00054392,-0.00073336,0.00139538,-0.06231089,0.1118328
 5,-0.23196004,0.00061146,0.00019943,0.00075298,-0.00060108,-0.00054870
 ,0.00144377,-0.00817743,0.01367569,-0.01940736,0.06850296,-0.12239832,
 0.24657669,-0.00004362,0.00001680,0.00000074,0.00002641,0.00000113,-0.
 00000003,-0.00026260,-0.00010677,-0.00000008,0.00044043,0.00161994,-0.
 00000041,0.00018692,-0.00070851,-0.00000006,-0.00101992,-0.00407497,-0
 .00000021,-0.01232001,0.00462405,-0.00000059,-0.31659512,0.02169031,0.
 00000044,0.00028444,-0.00025941,-0.00030717,0.00028451,-0.00025960,0.0
 0030782,-0.00701852,0.00028287,-0.00061690,-0.00701874,0.00028320,0.00
 061625,0.34303413,-0.00015681,0.00023396,-0.00000008,0.00001465,-0.000
 00512,0.,-0.00044967,-0.00049829,0.,-0.00126984,0.00212949,0.00000006,
 0.00057276,-0.00061359,0.,-0.00604395,-0.00778420,0.00000006,-0.027967
 95,0.00713778,0.,0.02443611,-0.05038936,0.00000002,0.00066414,0.000787
 43,-0.00067959,0.00066414,0.00078746,0.00067951,0.01635898,-0.00167721
 ,0.00182932,0.01635877,-0.00167723,-0.00182926,-0.02309650,0.05171094,
 0.00000009,0.00000004,-0.00001997,-0.00000004,0.,0.00000469,0.00000004
 ,-0.00000004,0.00000424,-0.00000008,-0.00000002,0.00043490,-0.00000001
 ,0.00000002,-0.00014958,0.00000005,0.00000002,0.00098650,0.00000014,-0
 .00000004,-0.00251544,-0.00000018,0.00000006,-0.04605806,0.00005316,0.
 00003879,-0.00004753,-0.00005317,-0.00003878,-0.00004755,0.02685936,-0
 .00051661,0.00108682,-0.02685951,0.00051661,0.00108686,0.00000017,-0.0
 0000004,0.04527705,-0.02523443,0.01393390,-0.00000035,-0.00157844,-0.0
 1188714,0.00000007,0.00916871,0.00132941,0.00000002,-0.00268886,-0.001
 63095,0.00000016,0.00032197,0.00061507,0.00000002,0.00047048,0.0014454
 6,0.00000008,0.00047978,0.00006398,0.00000022,-0.00002445,-0.00006014,
 -0.00000026,-0.00004495,0.00004365,0.00002274,-0.00004497,0.00004373,-
 0.00002299,0.00007052,0.00001763,0.00007233,0.00007062,0.00001750,-0.0
 0007207,-0.00004679,0.00005579,0.00000002,0.53245295,-0.04370117,0.142
 35577,-0.00000078,-0.00449096,-0.02268343,0.00000011,0.07124992,-0.065
 77246,0.00000034,-0.00151279,0.00594420,0.00000004,-0.00033542,-0.0012
 5115,-0.00000002,0.00045581,-0.00143547,0.00000002,0.00014443,0.000068
 96,-0.00000004,0.00009049,0.00004012,0.00000009,0.00004782,-0.00002369
 ,-0.00002667,0.00004784,-0.00002370,0.00002669,-0.00003777,-0.00002241
 ,-0.00003497,-0.00003779,-0.00002236,0.00003489,0.00002484,-0.00000880
 ,0.,0.02238101,-0.03244246,0.00000012,-0.00000080,-0.00802786,0.000000
 06,0.00000012,0.00206686,-0.00000038,0.00000038,0.00391771,0.00000009,
 -0.00000002,-0.00094841,0.00000001,-0.00000001,0.00000874,-0.00000002,
 0.00000003,0.00058487,-0.00000001,0.,-0.00000012,-0.00000004,0.0000000
 1,-0.00020771,-0.00003648,0.00004361,0.00001943,0.00003649,-0.00004363
 ,0.00001945,0.00006280,0.00003749,0.00004186,-0.00006280,-0.00003749,0
 .00004186,0.00000005,0.,0.00005308,0.00000008,0.00000019,0.00446446,-0
 .00157565,0.00797345,0.00000019,0.00005218,-0.00019747,0.,0.00309571,-
 0.00144045,0.,0.00572833,0.00328016,-0.00000016,-0.00157235,-0.0008814
 6,-0.00000001,-0.00260136,-0.00272386,-0.00000007,-0.00040609,-0.00003
 342,-0.00000019,0.00001926,0.00012172,0.00000021,0.00007189,-0.0000538
 9,-0.00004122,0.00007191,-0.00005396,0.00004144,-0.00011396,-0.0000389
 9,-0.00017240,-0.00011404,-0.00003888,0.00017219,0.00006850,-0.0001406
 3,-0.00000002,-0.51337217,-0.04432626,0.00000004,0.51064784,-0.0117149
 8,0.00372042,0.00000028,-0.00089345,-0.00270168,0.,0.00111647,-0.00407
 681,-0.00000001,0.00150028,-0.00265975,-0.00000015,-0.00097875,0.00116
 529,-0.00000003,-0.00222178,-0.00016627,-0.00000010,0.00172449,0.00069
 204,-0.00000024,-0.00007681,0.00010803,0.00000028,-0.00028301,0.000040
 70,-0.00000374,-0.00028298,0.00004061,0.00000401,-0.00001852,0.0000201
 8,-0.00010726,-0.00001862,0.00002033,0.00010698,-0.00003738,-0.0001332
 6,-0.00000002,-0.02636891,-0.02472311,0.00000013,0.03855394,0.02865328
 ,0.00000014,0.,-0.00041221,-0.00000002,0.00000002,0.00054884,-0.000000
 01,0.,-0.00043715,-0.00000007,0.00000001,0.00086093,0.,0.,-0.00004108,
 0.00000002,-0.00000002,-0.00097473,0.,0.,-0.00002214,0.00000002,-0.000
 00001,0.00034106,0.00005899,-0.00006182,-0.00002001,-0.00005899,0.0000
 6183,-0.00002003,-0.00010688,-0.00005491,-0.00007953,0.00010688,0.0000
 5491,-0.00007954,-0.00000002,0.,-0.00009601,-0.00000006,0.00000011,-0.
 00203421,0.,-0.00000013,0.00246582||0.00078452,0.00754480,-0.00000005,
 0.00023364,-0.00029917,0.,0.00018823,-0.00081596,0.00000002,-0.0000421
 5,0.00009699,-0.00000005,-0.00007637,-0.00002723,0.00000001,-0.0000644
 9,-0.00001559,-0.00000004,0.00001160,0.00000760,0.00000050,-0.00000970
 ,0.00000035,0.00000054,-0.00000496,-0.00000359,-0.00000108,-0.00000499
 ,-0.00000324,0.00000060,0.00000198,-0.00000375,-0.00000070,0.00000190,
 -0.00000349,0.00000026,0.00000075,-0.00000732,-0.00000005,-0.00089199,
 -0.00625698,0.00000003,-0.00012796,-0.00021341,0.|||@


 QED = W**5 (WHICH WAS WHAT WE WANTED)
 Job cpu time:       0 days  0 hours 21 minutes 35.0 seconds.
 File lengths (MBytes):  RWF=    152 Int=      0 D2E=      0 Chk=      9 Scr=      1
 Normal termination of Gaussian 09 at Fri Mar 28 13:32:33 2025.
