 Entering Gaussian System, Link 0=g16
 Initial command:
 /opt/g16/l1.exe "/home/aayush/scratches/g16/Gau-12591.inp" -scrdir="/home/aayush/scratches/g16/"
 Entering Link 1 = /opt/g16/l1.exe PID=     12596.
  
 Copyright (c) 1988,1990,1992,1993,1995,1998,2003,2009,2016,
            Gaussian, Inc.  All Rights Reserved.
  
 This is part of the Gaussian(R) 16 program.  It is based on
 the Gaussian(R) 09 system (copyright 2009, Gaussian, Inc.),
 the Gaussian(R) 03 system (copyright 2003, Gaussian, Inc.),
 the Gaussian(R) 98 system (copyright 1998, Gaussian, Inc.),
 the Gaussian(R) 94 system (copyright 1995, Gaussian, Inc.),
 the Gaussian 92(TM) system (copyright 1992, Gaussian, Inc.),
 the Gaussian 90(TM) system (copyright 1990, Gaussian, Inc.),
 the Gaussian 88(TM) system (copyright 1988, Gaussian, Inc.),
 the Gaussian 86(TM) system (copyright 1986, Carnegie Mellon
 University), and the Gaussian 82(TM) system (copyright 1983,
 Carnegie Mellon University). Gaussian is a federally registered
 trademark of Gaussian, Inc.
  
 This software contains proprietary and confidential information,
 including trade secrets, belonging to Gaussian, Inc.
  
 This software is provided under written license and may be
 used, copied, transmitted, or stored only in accord with that
 written license.
  
 The following legend is applicable only to US Government
 contracts under FAR:
  
                    RESTRICTED RIGHTS LEGEND
  
 Use, reproduction and disclosure by the US Government is
 subject to restrictions as set forth in subparagraphs (a)
 and (c) of the Commercial Computer Software - Restricted
 Rights clause in FAR 52.227-19.
  
 Gaussian, Inc.
 340 Quinnipiac St., Bldg. 40, Wallingford CT 06492
  
  
 ---------------------------------------------------------------
 Warning -- This program may not be used in any manner that
 competes with the business of Gaussian, Inc. or will provide
 assistance to any competitor of Gaussian, Inc.  The licensee
 of this program is prohibited from giving any competitor of
 Gaussian, Inc. access to this program.  By using this program,
 the user acknowledges that Gaussian, Inc. is engaged in the
 business of creating and licensing software in the field of
 computational chemistry and represents and warrants to the
 licensee that it is not a competitor of Gaussian, Inc. and that
 it will not use this program in any manner prohibited above.
 ---------------------------------------------------------------
  

 Cite this work as:
 Gaussian 16, Revision A.03,
 M. J. Frisch, G. W. Trucks, H. B. Schlegel, G. E. Scuseria, 
 M. A. Robb, J. R. Cheeseman, G. Scalmani, V. Barone, 
 G. A. Petersson, H. Nakatsuji, X. Li, M. Caricato, A. V. Marenich, 
 J. Bloino, B. G. Janesko, R. Gomperts, B. Mennucci, H. P. Hratchian, 
 J. V. Ortiz, A. F. Izmaylov, J. L. Sonnenberg, D. Williams-Young, 
 F. Ding, F. Lipparini, F. Egidi, J. Goings, B. Peng, A. Petrone, 
 T. Henderson, D. Ranasinghe, V. G. Zakrzewski, J. Gao, N. Rega, 
 G. Zheng, W. Liang, M. Hada, M. Ehara, K. Toyota, R. Fukuda, 
 J. Hasegawa, M. Ishida, T. Nakajima, Y. Honda, O. Kitao, H. Nakai, 
 T. Vreven, K. Throssell, J. A. Montgomery, Jr., J. E. Peralta, 
 F. Ogliaro, M. J. Bearpark, J. J. Heyd, E. N. Brothers, K. N. Kudin, 
 V. N. Staroverov, T. A. Keith, R. Kobayashi, J. Normand, 
 K. Raghavachari, A. P. Rendell, J. C. Burant, S. S. Iyengar, 
 J. Tomasi, M. Cossi, J. M. Millam, M. Klene, C. Adamo, R. Cammi, 
 J. W. Ochterski, R. L. Martin, K. Morokuma, O. Farkas, 
 J. B. Foresman, and D. J. Fox, Gaussian, Inc., Wallingford CT, 2016.
 
 ******************************************
 Gaussian 16:  ES64L-G16RevA.03 25-Dec-2016
                22-Apr-2025 
 ******************************************
 %chk=ethyl_propiolate.chk
 %nprocshared=24
 Will use up to   24 processors via shared memory.
 %mem=12GB
 --------------------------
 # ccsd(t)/6-311++g(d,p) sp
 --------------------------
 1/38=1,172=1/1;
 2/12=2,17=6,18=5,40=1/2;
 3/5=4,6=6,7=1111,11=9,25=1,30=1/1,2,3;
 4//1;
 5/5=2,38=5/2;
 8/6=4,9=120000,10=2/1,4;
 9/5=7,14=2/13;
 6/7=2,8=2,9=2,10=2/1;
 99/5=1,9=1/99;
 -------------------
 Title Card Required
 -------------------
 Symbolic Z-matrix:
 Charge =  0 Multiplicity = 2
 C                     2.54335   0.0795    0. 
 H                     3.61487   0.141     0. 
 C                     1.43706   0.65184  0. 
 C                     0.01406   0.95212  -0.00001 
 O                    -0.44037   2.06066  -0.00001 
 O                    -0.70315  -0.17512   0. 
 C                    -2.13703  -0.00056  0. 
 C                    -2.75487  -1.37846   0.00001 
 H                    -2.41163   0.57822   0.88389 
 H                    -2.41163   0.57821  -0.8839 
 H                    -2.45308  -1.93728  -0.88674 
 H                    -2.45308  -1.93727   0.88676 
 H                    -3.8425   -1.29044   0.00001 
 O                     2.35648  -1.75352   0.00001 
 H                     1.3923   -1.85257   0.00001 
 
                          Input orientation:                          
 ---------------------------------------------------------------------
 Center     Atomic      Atomic             Coordinates (Angstroms)
 Number     Number       Type             X           Y           Z
 ---------------------------------------------------------------------
      1          6           0        2.543348    0.079496    0.000001
      2          1           0        3.614868    0.141004    0.000001
      3          6           0        1.437057    0.651840   -0.000003
      4          6           0        0.014059    0.952124   -0.000005
      5          8           0       -0.440373    2.060660   -0.000010
      6          8           0       -0.703153   -0.175122    0.000000
      7          6           0       -2.137034   -0.000555   -0.000001
      8          6           0       -2.754866   -1.378455    0.000005
      9          1           0       -2.411628    0.578220    0.883891
     10          1           0       -2.411628    0.578212   -0.883898
     11          1           0       -2.453075   -1.937276   -0.886740
     12          1           0       -2.453075   -1.937268    0.886755
     13          1           0       -3.842497   -1.290438    0.000005
     14          8           0        2.356475   -1.753520    0.000010
     15          1           0        1.392297   -1.852573    0.000010
 ---------------------------------------------------------------------
                    Distance matrix (angstroms):
                    1          2          3          4          5
     1  C    0.000000
     2  H    1.073284   0.000000
     3  C    1.245575   2.236921   0.000000
     4  C    2.675590   3.691035   1.454336   0.000000
     5  O    3.581564   4.486653   2.347236   1.198065   0.000000
     6  O    3.256470   4.329577   2.294420   1.336068   2.251172
     7  C    4.681067   5.753644   3.633145   2.352615   2.669694
     8  C    5.495152   6.548455   4.657716   3.619191   4.145406
     9  H    5.057843   6.106642   3.949565   2.608646   2.620068
    10  H    5.057844   6.106642   3.949566   2.608646   2.620068
    11  H    5.460579   6.474990   4.756359   3.901497   4.562976
    12  H    5.460578   6.474989   4.756359   3.901497   4.562976
    13  H    6.531136   7.593505   5.625490   4.461178   4.775385
    14  O    1.842517   2.274373   2.575090   3.578746   4.729728
    15  H    2.248957   2.985661   2.504813   3.125038   4.321119
                    6          7          8          9         10
     6  O    0.000000
     7  C    1.444468   0.000000
     8  C    2.378558   1.510074   0.000000
     9  H    2.065835   1.091626   2.174315   0.000000
    10  H    2.065835   1.091626   2.174314   1.767789   0.000000
    11  H    2.636991   2.153387   1.090722   3.076454   2.515831
    12  H    2.636991   2.153387   1.090722   2.515831   3.076454
    13  H    3.331578   2.138318   1.091187   2.514065   2.514065
    14  O    3.442770   4.823330   5.125083   5.380805   5.380806
    15  H    2.684167   3.985743   4.174176   4.599983   4.599984
                   11         12         13         14         15
    11  H    0.000000
    12  H    1.773495   0.000000
    13  H    1.770652   1.770652   0.000000
    14  O    4.894064   4.894063   6.216245   0.000000
    15  H    3.947200   3.947198   5.264890   0.969253   0.000000
 Stoichiometry    C5H7O3(2)
 Framework group  C1[X(C5H7O3)]
 Deg. of freedom    39
 Full point group                 C1      NOp   1
 Largest Abelian subgroup         C1      NOp   1
 Largest concise Abelian subgroup C1      NOp   1
                         Standard orientation:                         
 ---------------------------------------------------------------------
 Center     Atomic      Atomic             Coordinates (Angstroms)
 Number     Number       Type             X           Y           Z
 ---------------------------------------------------------------------
      1          6           0        2.612744    0.130219    0.000001
      2          1           0        3.684164    0.193453    0.000001
      3          6           0        1.505532    0.700779   -0.000003
      4          6           0        0.082052    0.998770   -0.000005
      5          8           0       -0.374165    2.106573   -0.000010
      6          8           0       -0.633342   -0.129630   -0.000000
      7          6           0       -2.067503    0.042626   -0.000001
      8          6           0       -2.683114   -1.336267    0.000005
      9          1           0       -2.343029    0.620958    0.883891
     10          1           0       -2.343029    0.620950   -0.883898
     11          1           0       -2.380423   -1.894601   -0.886740
     12          1           0       -2.380423   -1.894593    0.886755
     13          1           0       -3.770885   -1.250003    0.000005
     14          8           0        2.428825   -1.703096    0.000010
     15          1           0        1.464808   -1.803702    0.000010
 ---------------------------------------------------------------------
 Rotational constants (GHZ):           2.9278659           1.2462531           0.8838243
 Standard basis: 6-311++G(d,p) (5D, 7F)
 There are   233 symmetry adapted cartesian basis functions of A   symmetry.
 There are   225 symmetry adapted basis functions of A   symmetry.
   225 basis functions,   351 primitive gaussians,   233 cartesian basis functions
    31 alpha electrons       30 beta electrons
       nuclear repulsion energy       349.6987338012 Hartrees.
 NAtoms=   15 NActive=   15 NUniq=   15 SFac= 1.00D+00 NAtFMM=   60 NAOKFM=F Big=F
 Integral buffers will be    131072 words long.
 Raffenetti 2 integral format.
 Two-electron integral symmetry is turned on.
 One-electron integrals computed using PRISM.
 NBasis=   225 RedAO= T EigKep=  1.74D-06  NBF=   225
 NBsUse=   225 1.00D-06 EigRej= -1.00D+00 NBFU=   225
 ExpMin= 3.60D-02 ExpMax= 8.59D+03 ExpMxC= 1.30D+03 IAcc=3 IRadAn=         5 AccDes= 0.00D+00
 Harris functional with IExCor=  205 and IRadAn=       5 diagonalized for initial guess.
 HarFok:  IExCor=  205 AccDes= 0.00D+00 IRadAn=         5 IDoV= 1 UseB2=F ITyADJ=14
 ICtDFT=  3500011 ScaDFX=  1.000000  1.000000  1.000000  1.000000
 FoFCou: FMM=F IPFlag=           0 FMFlag=      100000 FMFlg1=           0
         NFxFlg=           0 DoJE=T BraDBF=F KetDBF=T FulRan=T
         wScrn=  0.000000 ICntrl=       500 IOpCl=  0 I1Cent=   200000004 NGrid=           0
         NMat0=    1 NMatS0=      1 NMatT0=    0 NMatD0=    1 NMtDS0=    0 NMtDT0=    0
 Petite list used in FoFCou.
 Initial guess <Sx>= 0.0000 <Sy>= 0.0000 <Sz>= 0.5000 <S**2>= 0.7500 S= 0.5000
 Requested convergence on RMS density matrix=1.00D-08 within 128 cycles.
 Requested convergence on MAX density matrix=1.00D-06.
 Requested convergence on             energy=1.00D-06.
 No special actions if energy rises.
 Initial convergence to 1.0D-05 achieved.  Increase integral accuracy.
 SCF Done:  E(UHF) =  -417.983551101     A.U. after   31 cycles
            NFock= 31  Conv=0.72D-08     -V/T= 2.0008
 <Sx>= 0.0000 <Sy>= 0.0000 <Sz>= 0.5000 <S**2>= 1.1371 S= 0.6778
 <L.S>=  0.00000000000    
 Annihilation of the first spin contaminant:
 S**2 before annihilation     1.1371,   after     0.8578
 ExpMin= 3.60D-02 ExpMax= 8.59D+03 ExpMxC= 1.30D+03 IAcc=3 IRadAn=         5 AccDes= 0.00D+00
 HarFok:  IExCor=  205 AccDes= 0.00D+00 IRadAn=         5 IDoV=-2 UseB2=F ITyADJ=14
 ICtDFT= 12500011 ScaDFX=  1.000000  1.000000  1.000000  1.000000
 Range of M.O.s used for correlation:     9   225
 NBasis=   225 NAE=    31 NBE=    30 NFC=     8 NFV=     0
 NROrb=    217 NOA=    23 NOB=    22 NVA=   194 NVB=   195

 **** Warning!!: The largest alpha MO coefficient is  0.19812319D+03


 **** Warning!!: The largest beta MO coefficient is  0.20393924D+03

 Semi-Direct transformation.
 ModeAB=           4 MOrb=            23 LenV=    1609178857
 LASXX=    109339976 LTotXX=   109339976 LenRXX=   221407890
 LTotAB=   112067914 MaxLAS=   125503686 LenRXY=           0
 NonZer=   330747866 LenScr=   498067456 LnRSAI=   125503686
 LnScr1=   189036544 LExtra=           0 Total=   1034015576
 MaxDsk=          -1 SrtSym=           T ITran=            4
 JobTyp=1 Pass  1:  I=   1 to  23.
 (rs|ai) integrals will be sorted in core.
 ModeAB=           4 MOrb=            22 LenV=    1609178857
 LASXX=    104936601 LTotXX=   104936601 LenRXX=   190867446
 LTotAB=    85930845 MaxLAS=   120047004 LenRXY=           0
 NonZer=   295804047 LenScr=   445446144 LnRSAI=   120047004
 LnScr1=   180837888 LExtra=           0 Total=    937198482
 MaxDsk=          -1 SrtSym=           T ITran=            4
 JobTyp=2 Pass  1:  I=   1 to  22.
 (rs|ai) integrals will be sorted in core.
 SymMOI:  orbitals are not symmetric.
 Spin components of T(2) and E(2):
     alpha-alpha T2 =       0.5049867009D-01 E2=     -0.1677057941D+00
     alpha-beta  T2 =       0.2781124192D+00 E2=     -0.9249015446D+00
     beta-beta   T2 =       0.5104971400D-01 E2=     -0.1597930116D+00
 ANorm=    0.1174589632D+01
 E2 =    -0.1252400350D+01 EUMP2 =    -0.41923595145122D+03
 (S**2,0)=  0.11371D+01           (S**2,1)=  0.10333D+01
 E(PUHF)=      -0.41801570247D+03        E(PMP2)=      -0.41926440029D+03
 Keep R2 and R3 ints in memory in canonical form, NReq=652884060.
 CIDS: In Core Option IDoMem=           1.
 Iterations=  50 Convergence= 0.100D-06
 Produce multiple copies of IABC intergrals
 Iteration Nr.   1
 **********************
 DD1Dir will call FoFMem   1 times, MxPair=      1496
 NAB=   506 NAA=   253 NBB=   231.
 E(PMP3)=      -0.41928911538D+03
 MP4(R+Q)=  0.24137076D-01
 E3=       -0.30887114D-01        EUMP3=      -0.41926683857D+03
 E4(DQ)=   -0.63165334D-02        UMP4(DQ)=   -0.41927315510D+03
 E4(SDQ)=  -0.29081772D-01        UMP4(SDQ)=  -0.41929592034D+03
 DE(Corr)=  -1.2590463     E(Corr)=     -419.24259735    
 NORM(A)=   0.11861388D+01
 Iteration Nr.   2
 **********************
 DD1Dir will call FoFMem   1 times, MxPair=      1496
 NAB=   506 NAA=   253 NBB=   231.
 DE(Corr)=  -1.3039534     E(CORR)=     -419.28750449     Delta=-4.49D-02
 NORM(A)=   0.12105746D+01
 Iteration Nr.   3
 **********************
 DD1Dir will call FoFMem   1 times, MxPair=      1496
 NAB=   506 NAA=   253 NBB=   231.
 DE(Corr)=  -1.3086111     E(CORR)=     -419.29216223     Delta=-4.66D-03
 NORM(A)=   0.12279580D+01
 Iteration Nr.   4
 **********************
 DD1Dir will call FoFMem   1 times, MxPair=      1496
 NAB=   506 NAA=   253 NBB=   231.
 DE(Corr)=  -1.3181673     E(CORR)=     -419.30171837     Delta=-9.56D-03
 NORM(A)=   0.12400176D+01
 Iteration Nr.   5
 **********************
 DD1Dir will call FoFMem   1 times, MxPair=      1496
 NAB=   506 NAA=   253 NBB=   231.
 DE(Corr)=  -1.3213037     E(CORR)=     -419.30485481     Delta=-3.14D-03
 NORM(A)=   0.12452874D+01
 Iteration Nr.   6
 **********************
 DD1Dir will call FoFMem   1 times, MxPair=      1496
 NAB=   506 NAA=   253 NBB=   231.
 DE(Corr)=  -1.3221754     E(CORR)=     -419.30572645     Delta=-8.72D-04
 NORM(A)=   0.12460179D+01
 Iteration Nr.   7
 **********************
 DD1Dir will call FoFMem   1 times, MxPair=      1496
 NAB=   506 NAA=   253 NBB=   231.
 DE(Corr)=  -1.3222832     E(CORR)=     -419.30583433     Delta=-1.08D-04
 NORM(A)=   0.12462374D+01
 Iteration Nr.   8
 **********************
 DD1Dir will call FoFMem   1 times, MxPair=      1496
 NAB=   506 NAA=   253 NBB=   231.
 DE(Corr)=  -1.3222674     E(CORR)=     -419.30581850     Delta= 1.58D-05
 NORM(A)=   0.12462840D+01
 Iteration Nr.   9
 **********************
 DD1Dir will call FoFMem   1 times, MxPair=      1496
 NAB=   506 NAA=   253 NBB=   231.
 DE(Corr)=  -1.3222813     E(CORR)=     -419.30583240     Delta=-1.39D-05
 NORM(A)=   0.12462880D+01
 Iteration Nr.  10
 **********************
 DD1Dir will call FoFMem   1 times, MxPair=      1496
 NAB=   506 NAA=   253 NBB=   231.
 DE(Corr)=  -1.3222817     E(CORR)=     -419.30583275     Delta=-3.56D-07
 NORM(A)=   0.12463096D+01
 Iteration Nr.  11
 **********************
 DD1Dir will call FoFMem   1 times, MxPair=      1496
 NAB=   506 NAA=   253 NBB=   231.
 DE(Corr)=  -1.3222951     E(CORR)=     -419.30584619     Delta=-1.34D-05
 NORM(A)=   0.12463431D+01
 Iteration Nr.  12
 **********************
 DD1Dir will call FoFMem   1 times, MxPair=      1496
 NAB=   506 NAA=   253 NBB=   231.
 DE(Corr)=  -1.3223043     E(CORR)=     -419.30585536     Delta=-9.17D-06
 NORM(A)=   0.12463803D+01
 Iteration Nr.  13
 **********************
 DD1Dir will call FoFMem   1 times, MxPair=      1496
 NAB=   506 NAA=   253 NBB=   231.
 DE(Corr)=  -1.3223136     E(CORR)=     -419.30586470     Delta=-9.34D-06
 NORM(A)=   0.12464073D+01
 Iteration Nr.  14
 **********************
 DD1Dir will call FoFMem   1 times, MxPair=      1496
 NAB=   506 NAA=   253 NBB=   231.
 DE(Corr)=  -1.3223203     E(CORR)=     -419.30587140     Delta=-6.70D-06
 NORM(A)=   0.12464235D+01
 Iteration Nr.  15
 **********************
 DD1Dir will call FoFMem   1 times, MxPair=      1496
 NAB=   506 NAA=   253 NBB=   231.
 DE(Corr)=  -1.3223234     E(CORR)=     -419.30587447     Delta=-3.07D-06
 NORM(A)=   0.12464306D+01
 Iteration Nr.  16
 **********************
 DD1Dir will call FoFMem   1 times, MxPair=      1496
 NAB=   506 NAA=   253 NBB=   231.
 DE(Corr)=  -1.3223249     E(CORR)=     -419.30587603     Delta=-1.56D-06
 NORM(A)=   0.12464330D+01
 Iteration Nr.  17
 **********************
 DD1Dir will call FoFMem   1 times, MxPair=      1496
 NAB=   506 NAA=   253 NBB=   231.
 DE(Corr)=  -1.3223253     E(CORR)=     -419.30587641     Delta=-3.88D-07
 NORM(A)=   0.12464333D+01
 Iteration Nr.  18
 **********************
 DD1Dir will call FoFMem   1 times, MxPair=      1496
 NAB=   506 NAA=   253 NBB=   231.
 DE(Corr)=  -1.3223253     E(CORR)=     -419.30587639     Delta= 2.60D-08
 NORM(A)=   0.12464332D+01
 Wavefunction amplitudes converged. E(Corr)=     -419.30587639    
 Dominant configurations:
 ***********************
 Spin Case        I    J    A    B          Value
    BB           30        37            0.103319D+00
 Largest amplitude= 1.03D-01
 Time for triples=    36133.15 seconds.
 T4(CCSD)= -0.59313986D-01
 T5(CCSD)=  0.44516439D-02
 CCSD(T)= -0.41936073873D+03

 S**2, projected HF & approx projected MPn energies after annihilation of
 unwanted spin states (see manual for definitions):

 spins       (S**2,0) (S**2,1)    PUHF        PMP2        PMP3        PMP4
 annihilated
 s+1         0.68643  0.72428 -418.015702 -419.264400 -419.289115
 s+1,s+2     0.75153  0.74978 -418.011660 -419.260538 -419.285502
 s+1 to s+3  0.74999  0.75001 -418.011779 -419.260625 -419.285541
 s+1 to s+4  0.75000  0.75000 -418.011778 -419.260624 -419.285540
 s+1 to s+5  0.75000  0.75000 -418.011778
 s+1 to s+6  0.75000  0.75000 -418.011778

 Discarding MO integrals.

 **********************************************************************

            Population analysis using the SCF density.

 **********************************************************************

 Orbital symmetries:
 Alpha Orbitals:
       Occupied  (A) (A) (A) (A) (A) (A) (A) (A) (A) (A) (A) (A)
                 (A) (A) (A) (A) (A) (A) (A) (A) (A) (A) (A) (A)
                 (A) (A) (A) (A) (A) (A) (A)
       Virtual   (A) (A) (A) (A) (A) (A) (A) (A) (A) (A) (A) (A)
                 (A) (A) (A) (A) (A) (A) (A) (A) (A) (A) (A) (A)
                 (A) (A) (A) (A) (A) (A) (A) (A) (A) (A) (A) (A)
                 (A) (A) (A) (A) (A) (A) (A) (A) (A) (A) (A) (A)
                 (A) (A) (A) (A) (A) (A) (A) (A) (A) (A) (A) (A)
                 (A) (A) (A) (A) (A) (A) (A) (A) (A) (A) (A) (A)
                 (A) (A) (A) (A) (A) (A) (A) (A) (A) (A) (A) (A)
                 (A) (A) (A) (A) (A) (A) (A) (A) (A) (A) (A) (A)
                 (A) (A) (A) (A) (A) (A) (A) (A) (A) (A) (A) (A)
                 (A) (A) (A) (A) (A) (A) (A) (A) (A) (A) (A) (A)
                 (A) (A) (A) (A) (A) (A) (A) (A) (A) (A) (A) (A)
                 (A) (A) (A) (A) (A) (A) (A) (A) (A) (A) (A) (A)
                 (A) (A) (A) (A) (A) (A) (A) (A) (A) (A) (A) (A)
                 (A) (A) (A) (A) (A) (A) (A) (A) (A) (A) (A) (A)
                 (A) (A) (A) (A) (A) (A) (A) (A) (A) (A) (A) (A)
                 (A) (A) (A) (A) (A) (A) (A) (A) (A) (A) (A) (A)
                 (A) (A)
 Beta  Orbitals:
       Occupied  (A) (A) (A) (A) (A) (A) (A) (A) (A) (A) (A) (A)
                 (A) (A) (A) (A) (A) (A) (A) (A) (A) (A) (A) (A)
                 (A) (A) (A) (A) (A) (A)
       Virtual   (A) (A) (A) (A) (A) (A) (A) (A) (A) (A) (A) (A)
                 (A) (A) (A) (A) (A) (A) (A) (A) (A) (A) (A) (A)
                 (A) (A) (A) (A) (A) (A) (A) (A) (A) (A) (A) (A)
                 (A) (A) (A) (A) (A) (A) (A) (A) (A) (A) (A) (A)
                 (A) (A) (A) (A) (A) (A) (A) (A) (A) (A) (A) (A)
                 (A) (A) (A) (A) (A) (A) (A) (A) (A) (A) (A) (A)
                 (A) (A) (A) (A) (A) (A) (A) (A) (A) (A) (A) (A)
                 (A) (A) (A) (A) (A) (A) (A) (A) (A) (A) (A) (A)
                 (A) (A) (A) (A) (A) (A) (A) (A) (A) (A) (A) (A)
                 (A) (A) (A) (A) (A) (A) (A) (A) (A) (A) (A) (A)
                 (A) (A) (A) (A) (A) (A) (A) (A) (A) (A) (A) (A)
                 (A) (A) (A) (A) (A) (A) (A) (A) (A) (A) (A) (A)
                 (A) (A) (A) (A) (A) (A) (A) (A) (A) (A) (A) (A)
                 (A) (A) (A) (A) (A) (A) (A) (A) (A) (A) (A) (A)
                 (A) (A) (A) (A) (A) (A) (A) (A) (A) (A) (A) (A)
                 (A) (A) (A) (A) (A) (A) (A) (A) (A) (A) (A) (A)
                 (A) (A) (A)
 The electronic state is 2-A.
 Alpha  occ. eigenvalues --  -20.62535 -20.60678 -20.57487 -11.41970 -11.30705
 Alpha  occ. eigenvalues --  -11.28958 -11.27961 -11.23861  -1.49450  -1.39707
 Alpha  occ. eigenvalues --   -1.36138  -1.10521  -1.05215  -0.92280  -0.84603
 Alpha  occ. eigenvalues --   -0.78593  -0.73784  -0.70633  -0.70360  -0.64414
 Alpha  occ. eigenvalues --   -0.63072  -0.61645  -0.60146  -0.56857  -0.54154
 Alpha  occ. eigenvalues --   -0.53489  -0.53274  -0.49611  -0.48729  -0.43680
 Alpha  occ. eigenvalues --   -0.42737
 Alpha virt. eigenvalues --    0.03650   0.04823   0.05685   0.06069   0.06881
 Alpha virt. eigenvalues --    0.08889   0.09401   0.09573   0.11079   0.12250
 Alpha virt. eigenvalues --    0.12449   0.12847   0.15685   0.15714   0.16116
 Alpha virt. eigenvalues --    0.16870   0.18205   0.18441   0.18480   0.18907
 Alpha virt. eigenvalues --    0.19242   0.19960   0.21691   0.22370   0.22977
 Alpha virt. eigenvalues --    0.24250   0.26057   0.27540   0.27806   0.28329
 Alpha virt. eigenvalues --    0.28904   0.30034   0.30728   0.31429   0.31547
 Alpha virt. eigenvalues --    0.33227   0.35240   0.36622   0.37475   0.37965
 Alpha virt. eigenvalues --    0.39231   0.39832   0.39970   0.41314   0.41863
 Alpha virt. eigenvalues --    0.42878   0.44884   0.45547   0.46294   0.48170
 Alpha virt. eigenvalues --    0.50549   0.55005   0.56232   0.56257   0.63337
 Alpha virt. eigenvalues --    0.64521   0.64715   0.67568   0.69515   0.71139
 Alpha virt. eigenvalues --    0.76315   0.78864   0.79168   0.81665   0.83061
 Alpha virt. eigenvalues --    0.83254   0.84213   0.85298   0.85935   0.86388
 Alpha virt. eigenvalues --    0.88163   0.90014   0.95497   0.96001   0.96369
 Alpha virt. eigenvalues --    1.01563   1.04813   1.07886   1.08657   1.13100
 Alpha virt. eigenvalues --    1.20882   1.22329   1.24981   1.26327   1.28396
 Alpha virt. eigenvalues --    1.33119   1.34268   1.35970   1.37536   1.37538
 Alpha virt. eigenvalues --    1.39329   1.41823   1.42435   1.48138   1.49077
 Alpha virt. eigenvalues --    1.50856   1.54622   1.55744   1.64070   1.65687
 Alpha virt. eigenvalues --    1.70704   1.72091   1.72392   1.73831   1.77677
 Alpha virt. eigenvalues --    1.79298   1.80912   1.81660   1.82556   1.84018
 Alpha virt. eigenvalues --    1.88727   1.91212   1.94044   1.97403   1.99613
 Alpha virt. eigenvalues --    2.01066   2.07171   2.09627   2.13545   2.13613
 Alpha virt. eigenvalues --    2.15127   2.16396   2.26949   2.27976   2.35161
 Alpha virt. eigenvalues --    2.39310   2.40741   2.45577   2.49053   2.55233
 Alpha virt. eigenvalues --    2.60029   2.61577   2.64413   2.77039   2.81231
 Alpha virt. eigenvalues --    2.84560   2.87348   2.90079   2.92535   2.93981
 Alpha virt. eigenvalues --    2.95230   2.97553   2.97755   3.02260   3.04029
 Alpha virt. eigenvalues --    3.10213   3.11819   3.14993   3.17533   3.19225
 Alpha virt. eigenvalues --    3.21279   3.26494   3.29806   3.30127   3.34900
 Alpha virt. eigenvalues --    3.38490   3.43203   3.49711   3.49850   3.56348
 Alpha virt. eigenvalues --    3.59465   3.63078   3.67762   3.69470   3.76778
 Alpha virt. eigenvalues --    3.82648   3.94274   4.01741   4.10829   4.19068
 Alpha virt. eigenvalues --    4.20927   4.21107   4.28119   4.40332   4.48360
 Alpha virt. eigenvalues --    4.52237   4.68442   5.51050   5.55239   5.56652
 Alpha virt. eigenvalues --    5.59824   5.75921   5.90419   6.05421   6.20243
 Alpha virt. eigenvalues --    6.41509  24.69263  25.00193  25.00717  25.13193
 Alpha virt. eigenvalues --   25.89883  51.54347  51.59813  51.70937
  Beta  occ. eigenvalues --  -20.62474 -20.57574 -20.56875 -11.42458 -11.31300
  Beta  occ. eigenvalues --  -11.30684 -11.25084 -11.23859  -1.49045  -1.38651
  Beta  occ. eigenvalues --   -1.25735  -1.07599  -1.04763  -0.93059  -0.84172
  Beta  occ. eigenvalues --   -0.78032  -0.73235  -0.70461  -0.69614  -0.62020
  Beta  occ. eigenvalues --   -0.60730  -0.59658  -0.56683  -0.53191  -0.53048
  Beta  occ. eigenvalues --   -0.51494  -0.48413  -0.47329  -0.46559  -0.42242
  Beta virt. eigenvalues --    0.03622   0.04767   0.05090   0.06053   0.06704
  Beta virt. eigenvalues --    0.06998   0.08421   0.09322   0.10262   0.11869
  Beta virt. eigenvalues --    0.11935   0.12495   0.13539   0.15146   0.15778
  Beta virt. eigenvalues --    0.16334   0.17275   0.18293   0.18415   0.18479
  Beta virt. eigenvalues --    0.18913   0.19234   0.20059   0.21652   0.22549
  Beta virt. eigenvalues --    0.23426   0.24979   0.25716   0.28021   0.28038
  Beta virt. eigenvalues --    0.28505   0.29069   0.31131   0.31138   0.31594
  Beta virt. eigenvalues --    0.31609   0.33381   0.35526   0.37257   0.38297
  Beta virt. eigenvalues --    0.39312   0.39927   0.40601   0.40822   0.41404
  Beta virt. eigenvalues --    0.42424   0.43124   0.45198   0.45967   0.47431
  Beta virt. eigenvalues --    0.48467   0.50885   0.55796   0.56221   0.56869
  Beta virt. eigenvalues --    0.63034   0.64692   0.64911   0.68154   0.69303
  Beta virt. eigenvalues --    0.69880   0.75787   0.77163   0.80274   0.81443
  Beta virt. eigenvalues --    0.83791   0.85001   0.85057   0.86062   0.86153
  Beta virt. eigenvalues --    0.86678   0.88527   0.90233   0.95843   0.96239
  Beta virt. eigenvalues --    0.97560   1.01158   1.04996   1.07992   1.09497
  Beta virt. eigenvalues --    1.13258   1.20934   1.22293   1.24594   1.26439
  Beta virt. eigenvalues --    1.28634   1.34536   1.35676   1.37050   1.39242
  Beta virt. eigenvalues --    1.41072   1.42520   1.42784   1.44751   1.48137
  Beta virt. eigenvalues --    1.49319   1.51475   1.54813   1.55947   1.63899
  Beta virt. eigenvalues --    1.68943   1.70718   1.71744   1.72691   1.74990
  Beta virt. eigenvalues --    1.78212   1.79317   1.81565   1.82880   1.83085
  Beta virt. eigenvalues --    1.84478   1.88973   1.91250   1.94042   1.98080
  Beta virt. eigenvalues --    1.99624   2.01261   2.07226   2.09608   2.13575
  Beta virt. eigenvalues --    2.13699   2.15456   2.16607   2.27647   2.27998
  Beta virt. eigenvalues --    2.35428   2.40030   2.40977   2.45433   2.48931
  Beta virt. eigenvalues --    2.55242   2.59960   2.62581   2.64547   2.77039
  Beta virt. eigenvalues --    2.81238   2.84596   2.87353   2.90120   2.92655
  Beta virt. eigenvalues --    2.93868   2.95199   2.97555   2.97633   3.01597
  Beta virt. eigenvalues --    3.04812   3.11957   3.12114   3.17114   3.20116
  Beta virt. eigenvalues --    3.22219   3.26197   3.27038   3.30205   3.31074
  Beta virt. eigenvalues --    3.36503   3.40955   3.43555   3.49979   3.51274
  Beta virt. eigenvalues --    3.59479   3.62773   3.63758   3.68728   3.70063
  Beta virt. eigenvalues --    3.77759   3.84432   3.93823   4.02176   4.11174
  Beta virt. eigenvalues --    4.19082   4.20929   4.21127   4.30674   4.40821
  Beta virt. eigenvalues --    4.48495   4.52427   4.68503   5.52828   5.55414
  Beta virt. eigenvalues --    5.61342   5.66478   5.76359   5.90526   6.07381
  Beta virt. eigenvalues --    6.20494   6.41661  24.69407  24.99860  25.00679
  Beta virt. eigenvalues --   25.13196  25.90106  51.56070  51.59924  51.71270
          Condensed to atoms (all electrons):
               1          2          3          4          5          6
     1  C   15.275491   0.654012  -2.513309  -5.401416   0.065207  -0.017897
     2  H    0.654012   0.409529  -0.183512  -0.062627   0.001631  -0.000431
     3  C   -2.513309  -0.183512  12.667880  -4.816032   0.061119  -0.311258
     4  C   -5.401416  -0.062627  -4.816032  15.552030   0.220173   0.072679
     5  O    0.065207   0.001631   0.061119   0.220173   8.092888  -0.110703
     6  O   -0.017897  -0.000431  -0.311258   0.072679  -0.110703   8.566861
     7  C   -0.189823  -0.000401  -0.504571   0.198457  -0.030294   0.187536
     8  C   -0.051530   0.000762  -0.321047   0.351800   0.019106  -0.158502
     9  H    0.003293  -0.000059  -0.002303  -0.004734  -0.015161  -0.036289
    10  H    0.003293  -0.000059  -0.002303  -0.004734  -0.015161  -0.036289
    11  H    0.004528  -0.000041   0.017728  -0.011341  -0.000703  -0.008152
    12  H    0.004528  -0.000041   0.017728  -0.011341  -0.000703  -0.008152
    13  H   -0.002823   0.000029  -0.004863   0.007014   0.001360   0.020108
    14  O   -0.172923  -0.031676  -0.068148   0.151071  -0.002006   0.003910
    15  H    0.110602   0.004613  -0.005668  -0.112335   0.001208   0.011364
               7          8          9         10         11         12
     1  C   -0.189823  -0.051530   0.003293   0.003293   0.004528   0.004528
     2  H   -0.000401   0.000762  -0.000059  -0.000059  -0.000041  -0.000041
     3  C   -0.504571  -0.321047  -0.002303  -0.002303   0.017728   0.017728
     4  C    0.198457   0.351800  -0.004734  -0.004734  -0.011341  -0.011341
     5  O   -0.030294   0.019106  -0.015161  -0.015161  -0.000703  -0.000703
     6  O    0.187536  -0.158502  -0.036289  -0.036289  -0.008152  -0.008152
     7  C    5.612005  -0.052970   0.440105   0.440105  -0.031647  -0.031647
     8  C   -0.052970   5.746772  -0.055385  -0.055385   0.387912   0.387912
     9  H    0.440105  -0.055385   0.539633  -0.045380   0.004145  -0.006118
    10  H    0.440105  -0.055385  -0.045380   0.539633  -0.006118   0.004145
    11  H   -0.031647   0.387912   0.004145  -0.006118   0.566399  -0.043569
    12  H   -0.031647   0.387912  -0.006118   0.004145  -0.043569   0.566399
    13  H   -0.054243   0.424602  -0.004197  -0.004197  -0.032740  -0.032740
    14  O   -0.002429   0.004427   0.000192   0.000192  -0.000360  -0.000360
    15  H    0.003000  -0.001171   0.000054   0.000054  -0.001010  -0.001010
              13         14         15
     1  C   -0.002823  -0.172923   0.110602
     2  H    0.000029  -0.031676   0.004613
     3  C   -0.004863  -0.068148  -0.005668
     4  C    0.007014   0.151071  -0.112335
     5  O    0.001360  -0.002006   0.001208
     6  O    0.020108   0.003910   0.011364
     7  C   -0.054243  -0.002429   0.003000
     8  C    0.424602   0.004427  -0.001171
     9  H   -0.004197   0.000192   0.000054
    10  H   -0.004197   0.000192   0.000054
    11  H   -0.032740  -0.000360  -0.001010
    12  H   -0.032740  -0.000360  -0.001010
    13  H    0.540991  -0.000073  -0.000103
    14  O   -0.000073   8.107512   0.284458
    15  H   -0.000103   0.284458   0.452082
          Atomic-Atomic Spin Densities.
               1          2          3          4          5          6
     1  C    0.681357   0.106069   0.280829  -2.088286   0.038591  -0.064359
     2  H    0.106069   0.069409  -0.048994  -0.041766   0.000011  -0.000694
     3  C    0.280829  -0.048994   3.102898  -1.675826   0.050796  -0.186597
     4  C   -2.088286  -0.041766  -1.675826   3.356203  -0.116299   0.229363
     5  O    0.038591   0.000011   0.050796  -0.116299   0.166945  -0.007671
     6  O   -0.064359  -0.000694  -0.186597   0.229363  -0.007671  -0.001228
     7  C   -0.054212  -0.000776  -0.094762   0.138160  -0.005140   0.017175
     8  C   -0.032741   0.000130  -0.115573   0.103720  -0.002717  -0.001182
     9  H   -0.001354   0.000019  -0.007525   0.006797  -0.000344   0.000167
    10  H   -0.001354   0.000019  -0.007526   0.006797  -0.000344   0.000167
    11  H    0.000583  -0.000013   0.000701  -0.001023  -0.000000   0.000611
    12  H    0.000583  -0.000013   0.000701  -0.001023  -0.000000   0.000611
    13  H   -0.000044  -0.000006  -0.001573   0.000495  -0.000060   0.000752
    14  O    0.022870   0.003728  -0.120734   0.090403  -0.000948   0.010430
    15  H    0.001873  -0.000061   0.022789  -0.017366   0.000464  -0.003039
               7          8          9         10         11         12
     1  C   -0.054212  -0.032741  -0.001354  -0.001354   0.000583   0.000583
     2  H   -0.000776   0.000130   0.000019   0.000019  -0.000013  -0.000013
     3  C   -0.094762  -0.115573  -0.007525  -0.007526   0.000701   0.000701
     4  C    0.138160   0.103720   0.006797   0.006797  -0.001023  -0.001023
     5  O   -0.005140  -0.002717  -0.000344  -0.000344  -0.000000  -0.000000
     6  O    0.017175  -0.001182   0.000167   0.000167   0.000611   0.000611
     7  C    0.002184   0.011293  -0.000564  -0.000564  -0.002653  -0.002654
     8  C    0.011293   0.023642   0.002607   0.002607   0.002243   0.002243
     9  H   -0.000564   0.002607  -0.000292   0.000412   0.000007  -0.000030
    10  H   -0.000564   0.002607   0.000412  -0.000292  -0.000030   0.000007
    11  H   -0.002653   0.002243   0.000007  -0.000030  -0.000191  -0.000161
    12  H   -0.002654   0.002243  -0.000030   0.000007  -0.000161  -0.000191
    13  H   -0.003038   0.003968   0.000052   0.000052  -0.000258  -0.000258
    14  O    0.003509   0.000311  -0.000073  -0.000073   0.000204   0.000204
    15  H    0.000727  -0.002067  -0.000001  -0.000001   0.000011   0.000011
              13         14         15
     1  C   -0.000044   0.022870   0.001873
     2  H   -0.000006   0.003728  -0.000061
     3  C   -0.001573  -0.120734   0.022789
     4  C    0.000495   0.090403  -0.017366
     5  O   -0.000060  -0.000948   0.000464
     6  O    0.000752   0.010430  -0.003039
     7  C   -0.003038   0.003509   0.000727
     8  C    0.003968   0.000311  -0.002067
     9  H    0.000052  -0.000073  -0.000001
    10  H    0.000052  -0.000073  -0.000001
    11  H   -0.000258   0.000204   0.000011
    12  H   -0.000258   0.000204   0.000011
    13  H    0.000157   0.000098  -0.000056
    14  O    0.000098   0.719557   0.001291
    15  H   -0.000056   0.001291  -0.027824
 Mulliken charges and spin densities:
               1          2
     1  C   -1.771234  -1.109595
     2  H    0.208272   0.087061
     3  C    1.968561   1.199604
     4  C   -0.128664  -0.009650
     5  O   -0.287961   0.123283
     6  O   -0.174784  -0.005494
     7  C    0.016819   0.008684
     8  C   -0.627304  -0.001516
     9  H    0.182205  -0.000124
    10  H    0.182205  -0.000124
    11  H    0.154967   0.000031
    12  H    0.154967   0.000031
    13  H    0.141876   0.000279
    14  O   -0.273787   0.730776
    15  H    0.253861  -0.023248
 Sum of Mulliken charges =  -0.00000   1.00000
 Mulliken charges and spin densities with hydrogens summed into heavy atoms:
               1          2
     1  C   -1.562962  -1.022533
     3  C    1.968561   1.199604
     4  C   -0.128664  -0.009650
     5  O   -0.287961   0.123283
     6  O   -0.174784  -0.005494
     7  C    0.381229   0.008436
     8  C   -0.175493  -0.001174
    14  O   -0.019926   0.707528
 Electronic spatial extent (au):  <R**2>=           1256.5376
 Charge=             -0.0000 electrons
 Dipole moment (field-independent basis, Debye):
    X=             -1.8721    Y=             -1.2820    Z=              0.0000  Tot=              2.2690
 Quadrupole moment (field-independent basis, Debye-Ang):
   XX=            -40.2148   YY=            -56.9016   ZZ=            -47.5358
   XY=              6.9694   XZ=             -0.0000   YZ=              0.0000
 Traceless Quadrupole moment (field-independent basis, Debye-Ang):
   XX=              8.0026   YY=             -8.6842   ZZ=              0.6816
   XY=              6.9694   XZ=             -0.0000   YZ=              0.0000
 Octapole moment (field-independent basis, Debye-Ang**2):
  XXX=              1.0744  YYY=            -22.2652  ZZZ=             -0.0000  XYY=             -8.3461
  XXY=             16.0154  XXZ=             -0.0001  XZZ=             -4.8853  YZZ=              0.7681
  YYZ=              0.0001  XYZ=              0.0000
 Hexadecapole moment (field-independent basis, Debye-Ang**3):
 XXXX=           -967.7389 YYYY=           -498.5887 ZZZZ=            -59.4118 XXXY=             38.5733
 XXXZ=             -0.0004 YYYX=              3.3909 YYYZ=              0.0012 ZZZX=             -0.0002
 ZZZY=              0.0009 XXYY=           -300.1016 XXZZ=           -204.1223 YYZZ=            -84.9756
 XXYZ=              0.0005 YYXZ=             -0.0002 ZZXY=             -4.5531
 N-N= 3.496987338012D+02 E-N=-1.681982700017D+03  KE= 4.176509971546D+02
 1\1\GINC-AJ\SP\UCCSD(T)-FC\6-311++G(d,p)\C5H7O3(2)\AAYUSH\22-Apr-2025\
 0\\# ccsd(t)/6-311++g(d,p) sp\\Title Card Required\\0,2\C,0,2.543348,0
 .079496,0.000001\H,0,3.614868,0.141004,0.000001\C,0,1.437057,0.65184,-
 0.000003\C,0,0.014059,0.952124,-0.000005\O,0,-0.440373,2.06066,-0.0000
 1\O,0,-0.703153,-0.175122,0.\C,0,-2.137034,-0.000555,-0.000001\C,0,-2.
 754866,-1.378455,0.000005\H,0,-2.411628,0.57822,0.883891\H,0,-2.411628
 ,0.578212,-0.883898\H,0,-2.453075,-1.937276,-0.88674\H,0,-2.453075,-1.
 937268,0.886755\H,0,-3.842497,-1.290438,0.000005\O,0,2.356475,-1.75352
 ,0.00001\H,0,1.392297,-1.852573,0.00001\\Version=ES64L-G16RevA.03\Stat
 e=2-A\HF=-417.9835511\MP2=-419.2359515\MP3=-419.2668386\MP4D=-419.2972
 922\MP4DQ=-419.2731551\PUHF=-418.0157025\PMP2-0=-419.2644003\PMP3-0=-4
 19.2891154\MP4SDQ=-419.2959203\CCSD=-419.3058764\CCSD(T)=-419.3607387\
 S2=1.137128\S2-1=1.033324\S2A=0.857784\RMSD=7.188e-09\PG=C01 [X(C5H7O3
 )]\\@


    UPON JULIA'S CLOTHES

 WHENAS IN SILKS MY JULIA GOES,
 THEN, THEN, METHINKS, HOW SWEETLY FLOWS
 THAT LIQUEFACTION OF HER CLOTHES.

 NEXT, WHEN I CAST MINE EYES, AND SEE
 THAT BRAVE VIBRATION, EACH WAY FREE,
 O, HOW THAT GLITTERING TAKETH ME!
     -- ROBERT HERRICK, 1648
 Job cpu time:       0 days 16 hours 38 minutes 29.8 seconds.
 Elapsed time:       0 days  0 hours 59 minutes 48.3 seconds.
 File lengths (MBytes):  RWF=  44733 Int=      0 D2E=      0 Chk=      6 Scr=      1
 Normal termination of Gaussian 16 at Tue Apr 22 11:27:44 2025.
