 Entering Gaussian System, Link 0=g16
 Initial command:
 /opt/g16/l1.exe "/home/aayush/scratches/g16/Gau-40931.inp" -scrdir="/home/aayush/scratches/g16/"
 Entering Link 1 = /opt/g16/l1.exe PID=     40934.
  
 Copyright (c) 1988,1990,1992,1993,1995,1998,2003,2009,2016,
            Gaussian, Inc.  All Rights Reserved.
  
 This is part of the Gaussian(R) 16 program.  It is based on
 the Gaussian(R) 09 system (copyright 2009, Gaussian, Inc.),
 the Gaussian(R) 03 system (copyright 2003, Gaussian, Inc.),
 the Gaussian(R) 98 system (copyright 1998, Gaussian, Inc.),
 the Gaussian(R) 94 system (copyright 1995, Gaussian, Inc.),
 the Gaussian 92(TM) system (copyright 1992, Gaussian, Inc.),
 the Gaussian 90(TM) system (copyright 1990, Gaussian, Inc.),
 the Gaussian 88(TM) system (copyright 1988, Gaussian, Inc.),
 the Gaussian 86(TM) system (copyright 1986, Carnegie Mellon
 University), and the Gaussian 82(TM) system (copyright 1983,
 Carnegie Mellon University). Gaussian is a federally registered
 trademark of Gaussian, Inc.
  
 This software contains proprietary and confidential information,
 including trade secrets, belonging to Gaussian, Inc.
  
 This software is provided under written license and may be
 used, copied, transmitted, or stored only in accord with that
 written license.
  
 The following legend is applicable only to US Government
 contracts under FAR:
  
                    RESTRICTED RIGHTS LEGEND
  
 Use, reproduction and disclosure by the US Government is
 subject to restrictions as set forth in subparagraphs (a)
 and (c) of the Commercial Computer Software - Restricted
 Rights clause in FAR 52.227-19.
  
 Gaussian, Inc.
 340 Quinnipiac St., Bldg. 40, Wallingford CT 06492
  
  
 ---------------------------------------------------------------
 Warning -- This program may not be used in any manner that
 competes with the business of Gaussian, Inc. or will provide
 assistance to any competitor of Gaussian, Inc.  The licensee
 of this program is prohibited from giving any competitor of
 Gaussian, Inc. access to this program.  By using this program,
 the user acknowledges that Gaussian, Inc. is engaged in the
 business of creating and licensing software in the field of
 computational chemistry and represents and warrants to the
 licensee that it is not a competitor of Gaussian, Inc. and that
 it will not use this program in any manner prohibited above.
 ---------------------------------------------------------------
  

 Cite this work as:
 Gaussian 16, Revision A.03,
 M. J. Frisch, G. W. Trucks, H. B. Schlegel, G. E. Scuseria, 
 M. A. Robb, J. R. Cheeseman, G. Scalmani, V. Barone, 
 G. A. Petersson, H. Nakatsuji, X. Li, M. Caricato, A. V. Marenich, 
 J. Bloino, B. G. Janesko, R. Gomperts, B. Mennucci, H. P. Hratchian, 
 J. V. Ortiz, A. F. Izmaylov, J. L. Sonnenberg, D. Williams-Young, 
 F. Ding, F. Lipparini, F. Egidi, J. Goings, B. Peng, A. Petrone, 
 T. Henderson, D. Ranasinghe, V. G. Zakrzewski, J. Gao, N. Rega, 
 G. Zheng, W. Liang, M. Hada, M. Ehara, K. Toyota, R. Fukuda, 
 J. Hasegawa, M. Ishida, T. Nakajima, Y. Honda, O. Kitao, H. Nakai, 
 T. Vreven, K. Throssell, J. A. Montgomery, Jr., J. E. Peralta, 
 F. Ogliaro, M. J. Bearpark, J. J. Heyd, E. N. Brothers, K. N. Kudin, 
 V. N. Staroverov, T. A. Keith, R. Kobayashi, J. Normand, 
 K. Raghavachari, A. P. Rendell, J. C. Burant, S. S. Iyengar, 
 J. Tomasi, M. Cossi, J. M. Millam, M. Klene, C. Adamo, R. Cammi, 
 J. W. Ochterski, R. L. Martin, K. Morokuma, O. Farkas, 
 J. B. Foresman, and D. J. Fox, Gaussian, Inc., Wallingford CT, 2016.
 
 ******************************************
 Gaussian 16:  ES64L-G16RevA.03 25-Dec-2016
                 8-Jun-2025 
 ******************************************
 %nprocshared=24
 Will use up to   24 processors via shared memory.
 %mem=12GB
 %chk=ethyl_propiolate_ts1.chk
 --------------------------------------------------
 # opt=(calcfc,tight,noeigentest) freq 6-31+g m062x
 --------------------------------------------------
 1/7=10,10=4,11=1,18=20,19=15,26=3,38=1/1,3;
 2/9=110,12=2,17=6,18=5,40=1/2;
 3/5=1,6=6,7=10,11=2,25=1,30=1,71=2,74=-55,140=1/1,2,3;
 4//1;
 5/5=2,38=5/2;
 8/6=4,10=90,11=11/1;
 11/6=1,8=1,9=11,15=111,16=1/1,2,10;
 10/6=1,13=1/2;
 6/7=2,8=2,9=2,10=2,28=1/1;
 7/10=1,18=20,25=1/1,2,3,16;
 1/7=10,10=4,11=1,18=20,19=15,26=3/3(2);
 2/9=110/2;
 99//99;
 2/9=110/2;
 3/5=1,6=6,7=10,11=2,25=1,30=1,71=1,74=-55/1,2,3;
 4/5=5,16=3,69=1/1;
 5/5=2,38=5/2;
 7//1,2,3,16;
 1/7=10,11=1,18=20,19=15,26=3/3(-5);
 2/9=110/2;
 6/7=2,8=2,9=2,10=2,19=2,28=1/1;
 99/9=1/99;
 -------------------
 Title Card Required
 -------------------
 Symbolic Z-matrix:
 Charge =  0 Multiplicity = 2
 O                    -2.07528   1.37916  -0.97211 
 H                    -1.98723   2.16423  -0.42667 
 C                    -2.76069  -0.41617   0.48611 
 H                    -3.53973  -0.91832   1.02075 
 C                    -1.774     0.21983  -0.19103 
 C                    -0.32832  -0.30596  -0.11935 
 O                    -0.06319  -1.32617   0.568 
 O                     0.61913   0.30475  -0.76955 
 C                     1.96155  -0.18348  -0.70299 
 C                     2.69283   0.48447   0.47628 
 H                     2.47072   0.04746  -1.61531 
 H                     1.94877  -1.24384  -0.56023 
 H                     3.6973    0.11915   0.52608 
 H                     2.70562   1.54483   0.33352 
 H                     2.18367   0.25353   1.38859 
 

 GradGradGradGradGradGradGradGradGradGradGradGradGradGradGradGradGradGrad
 Berny optimization.
 Initialization pass.
                           ----------------------------
                           !    Initial Parameters    !
                           ! (Angstroms and Degrees)  !
 --------------------------                            --------------------------
 ! Name  Definition              Value          Derivative Info.                !
 --------------------------------------------------------------------------------
 ! R1    R(1,2)                  0.96           calculate D2E/DX2 analytically  !
 ! R2    R(1,5)                  1.43           calculate D2E/DX2 analytically  !
 ! R3    R(3,4)                  1.07           calculate D2E/DX2 analytically  !
 ! R4    R(3,5)                  1.3552         calculate D2E/DX2 analytically  !
 ! R5    R(5,6)                  1.54           calculate D2E/DX2 analytically  !
 ! R6    R(6,7)                  1.2584         calculate D2E/DX2 analytically  !
 ! R7    R(6,8)                  1.3013         calculate D2E/DX2 analytically  !
 ! R8    R(8,9)                  1.43           calculate D2E/DX2 analytically  !
 ! R9    R(9,10)                 1.54           calculate D2E/DX2 analytically  !
 ! R10   R(9,11)                 1.07           calculate D2E/DX2 analytically  !
 ! R11   R(9,12)                 1.07           calculate D2E/DX2 analytically  !
 ! R12   R(10,13)                1.07           calculate D2E/DX2 analytically  !
 ! R13   R(10,14)                1.07           calculate D2E/DX2 analytically  !
 ! R14   R(10,15)                1.07           calculate D2E/DX2 analytically  !
 ! A1    A(2,1,5)              109.4712         calculate D2E/DX2 analytically  !
 ! A2    A(1,5,3)              120.0            calculate D2E/DX2 analytically  !
 ! A3    A(1,5,6)              120.0            calculate D2E/DX2 analytically  !
 ! A4    A(3,5,6)              120.0            calculate D2E/DX2 analytically  !
 ! A5    A(5,6,7)              120.0            calculate D2E/DX2 analytically  !
 ! A6    A(5,6,8)              120.0            calculate D2E/DX2 analytically  !
 ! A7    A(7,6,8)              120.0            calculate D2E/DX2 analytically  !
 ! A8    A(6,8,9)              120.0            calculate D2E/DX2 analytically  !
 ! A9    A(8,9,10)             109.4712         calculate D2E/DX2 analytically  !
 ! A10   A(8,9,11)             109.4712         calculate D2E/DX2 analytically  !
 ! A11   A(8,9,12)             109.4712         calculate D2E/DX2 analytically  !
 ! A12   A(10,9,11)            109.4712         calculate D2E/DX2 analytically  !
 ! A13   A(10,9,12)            109.4712         calculate D2E/DX2 analytically  !
 ! A14   A(11,9,12)            109.4712         calculate D2E/DX2 analytically  !
 ! A15   A(9,10,13)            109.4712         calculate D2E/DX2 analytically  !
 ! A16   A(9,10,14)            109.4712         calculate D2E/DX2 analytically  !
 ! A17   A(9,10,15)            109.4712         calculate D2E/DX2 analytically  !
 ! A18   A(13,10,14)           109.4712         calculate D2E/DX2 analytically  !
 ! A19   A(13,10,15)           109.4712         calculate D2E/DX2 analytically  !
 ! A20   A(14,10,15)           109.4712         calculate D2E/DX2 analytically  !
 ! A21   L(4,3,5,7,-1)         179.9999         calculate D2E/DX2 analytically  !
 ! A22   L(4,3,5,7,-2)         180.0            calculate D2E/DX2 analytically  !
 ! D1    D(2,1,5,3)             90.0            calculate D2E/DX2 analytically  !
 ! D2    D(2,1,5,6)            -90.0            calculate D2E/DX2 analytically  !
 ! D3    D(1,5,6,7)           -179.9999         calculate D2E/DX2 analytically  !
 ! D4    D(1,5,6,8)              0.0002         calculate D2E/DX2 analytically  !
 ! D5    D(3,5,6,7)              0.0001         calculate D2E/DX2 analytically  !
 ! D6    D(3,5,6,8)           -179.9998         calculate D2E/DX2 analytically  !
 ! D7    D(5,6,8,9)            180.0            calculate D2E/DX2 analytically  !
 ! D8    D(7,6,8,9)              0.0            calculate D2E/DX2 analytically  !
 ! D9    D(6,8,9,10)           -90.0            calculate D2E/DX2 analytically  !
 ! D10   D(6,8,9,11)           150.0            calculate D2E/DX2 analytically  !
 ! D11   D(6,8,9,12)            30.0            calculate D2E/DX2 analytically  !
 ! D12   D(8,9,10,13)          180.0            calculate D2E/DX2 analytically  !
 ! D13   D(8,9,10,14)          -60.0            calculate D2E/DX2 analytically  !
 ! D14   D(8,9,10,15)           60.0            calculate D2E/DX2 analytically  !
 ! D15   D(11,9,10,13)         -60.0            calculate D2E/DX2 analytically  !
 ! D16   D(11,9,10,14)          60.0            calculate D2E/DX2 analytically  !
 ! D17   D(11,9,10,15)        -180.0            calculate D2E/DX2 analytically  !
 ! D18   D(12,9,10,13)          60.0            calculate D2E/DX2 analytically  !
 ! D19   D(12,9,10,14)        -180.0            calculate D2E/DX2 analytically  !
 ! D20   D(12,9,10,15)         -60.0            calculate D2E/DX2 analytically  !
 --------------------------------------------------------------------------------
 Trust Radius=3.00D-01 FncErr=1.00D-07 GrdErr=1.00D-06 EigMax=2.50D+02 EigMin=1.00D-04
 Number of steps in this run=     66 maximum allowed number of steps=    100.
 GradGradGradGradGradGradGradGradGradGradGradGradGradGradGradGradGradGrad

                          Input orientation:                          
 ---------------------------------------------------------------------
 Center     Atomic      Atomic             Coordinates (Angstroms)
 Number     Number       Type             X           Y           Z
 ---------------------------------------------------------------------
      1          8           0       -2.075277    1.379162   -0.972110
      2          1           0       -1.987235    2.164235   -0.426666
      3          6           0       -2.760691   -0.416167    0.486111
      4          1           0       -3.539730   -0.918321    1.020750
      5          6           0       -1.774002    0.219830   -0.191031
      6          6           0       -0.328316   -0.305956   -0.119348
      7          8           0       -0.063194   -1.326170    0.567999
      8          8           0        0.619130    0.304748   -0.769555
      9          6           0        1.961553   -0.183483   -0.702992
     10          6           0        2.692832    0.484469    0.476276
     11          1           0        2.470716    0.047458   -1.615307
     12          1           0        1.948765   -1.243839   -0.560231
     13          1           0        3.697303    0.119150    0.526082
     14          1           0        2.705620    1.544826    0.333516
     15          1           0        2.183669    0.253528    1.388591
 ---------------------------------------------------------------------
                    Distance matrix (angstroms):
                    1          2          3          4          5
     1  O    0.000000
     2  H    0.960000   0.000000
     3  C    2.412344   2.844269   0.000000
     4  H    3.375580   3.742647   1.070000   0.000000
     5  C    1.430000   1.970203   1.355200   2.425200   0.000000
     6  C    2.572683   2.991371   2.509019   3.462369   1.540000
     7  O    3.706647   4.107823   2.848034   3.529536   2.427572
     8  O    2.907787   3.220000   3.676901   4.690118   2.463531
     9  C    4.337082   4.602289   4.875213   5.811660   3.791984
    10  C    5.062920   5.053706   5.527400   6.411638   4.524151
    11  H    4.780501   5.076114   5.656724   6.633777   4.480615
    12  H    4.821068   5.208157   4.894778   5.720930   4.017168
    13  H    6.095481   6.115886   6.480266   7.327734   5.519019
    14  H    4.958738   4.794208   5.809418   6.748614   4.700828
    15  H    4.997858   4.933802   5.070469   5.853703   4.261397
                    6          7          8          9         10
     6  C    0.000000
     7  O    1.258400   0.000000
     8  O    1.301300   2.216869   0.000000
     9  C    2.366250   2.649671   1.430000   0.000000
    10  C    3.179131   3.298865   2.425826   1.540000   0.000000
    11  H    3.193333   3.615852   2.051796   1.070000   2.148263
    12  H    2.501819   2.308173   2.051796   1.070000   2.148263
    13  H    4.099134   4.028901   3.344887   2.148263   1.070000
    14  H    3.582632   3.995489   2.666083   2.148263   1.070000
    15  H    2.982779   2.866568   2.666083   2.148263   1.070000
                   11         12         13         14         15
    11  H    0.000000
    12  H    1.747303   0.000000
    13  H    2.468846   2.468846   0.000000
    14  H    2.468846   3.024610   1.747303   0.000000
    15  H    3.024610   2.468846   1.747303   1.747303   0.000000
 Stoichiometry    C5H7O3(2)
 Framework group  C1[X(C5H7O3)]
 Deg. of freedom    39
 Full point group                 C1      NOp   1
 Largest Abelian subgroup         C1      NOp   1
 Largest concise Abelian subgroup C1      NOp   1
                         Standard orientation:                         
 ---------------------------------------------------------------------
 Center     Atomic      Atomic             Coordinates (Angstroms)
 Number     Number       Type             X           Y           Z
 ---------------------------------------------------------------------
      1          8           0        2.050456   -1.459273   -0.008731
      2          1           0        1.987771   -1.835285    0.872340
      3          6           0        2.627205    0.867658    0.259894
      4          1           0        3.372806    1.614324    0.437285
      5          6           0        1.682867   -0.078025    0.035221
      6          6           0        0.213890    0.334835   -0.172756
      7          8           0       -0.109588    1.550333   -0.134082
      8          8           0       -0.692890   -0.573236   -0.388489
      9          6           0       -2.056940   -0.189866   -0.581611
     10          6           0       -2.779110   -0.159597    0.778225
     11          1           0       -2.538204   -0.896142   -1.225396
     12          1           0       -2.094561    0.782234   -1.027150
     13          1           0       -3.799763    0.127260    0.633722
     14          1           0       -2.741489   -1.131697    1.223765
     15          1           0       -2.297845    0.546679    1.422010
 ---------------------------------------------------------------------
 Rotational constants (GHZ):           4.1903516           1.2270447           1.0373136
 Standard basis: 6-31+G (6D, 7F)
 There are   118 symmetry adapted cartesian basis functions of A   symmetry.
 There are   118 symmetry adapted basis functions of A   symmetry.
   118 basis functions,   236 primitive gaussians,   118 cartesian basis functions
    31 alpha electrons       30 beta electrons
       nuclear repulsion energy       361.7856913346 Hartrees.
 NAtoms=   15 NActive=   15 NUniq=   15 SFac= 1.00D+00 NAtFMM=   60 NAOKFM=F Big=F
 Integral buffers will be    131072 words long.
 Raffenetti 2 integral format.
 Two-electron integral symmetry is turned on.
 One-electron integrals computed using PRISM.
 NBasis=   118 RedAO= T EigKep=  4.15D-05  NBF=   118
 NBsUse=   118 1.00D-06 EigRej= -1.00D+00 NBFU=   118
 ExpMin= 4.38D-02 ExpMax= 5.48D+03 ExpMxC= 8.25D+02 IAcc=3 IRadAn=         5 AccDes= 0.00D+00
 Harris functional with IExCor= 1009 and IRadAn=       5 diagonalized for initial guess.
 HarFok:  IExCor= 1009 AccDes= 0.00D+00 IRadAn=         5 IDoV= 1 UseB2=F ITyADJ=14
 ICtDFT=  3500011 ScaDFX=  1.000000  1.000000  1.000000  1.000000
 FoFCou: FMM=F IPFlag=           0 FMFlag=      100000 FMFlg1=           0
         NFxFlg=           0 DoJE=T BraDBF=F KetDBF=T FulRan=T
         wScrn=  0.000000 ICntrl=       500 IOpCl=  0 I1Cent=   200000004 NGrid=           0
         NMat0=    1 NMatS0=      1 NMatT0=    0 NMatD0=    1 NMtDS0=    0 NMtDT0=    0
 Petite list used in FoFCou.
 Initial guess <Sx>= 0.0000 <Sy>= 0.0000 <Sz>= 0.5000 <S**2>= 0.7500 S= 0.5000
 Requested convergence on RMS density matrix=1.00D-08 within 128 cycles.
 Requested convergence on MAX density matrix=1.00D-06.
 Requested convergence on             energy=1.00D-06.
 No special actions if energy rises.
 SCF Done:  E(UM062X) =  -419.983518171     A.U. after   18 cycles
            NFock= 18  Conv=0.94D-08     -V/T= 2.0057
 <Sx>= 0.0000 <Sy>= 0.0000 <Sz>= 0.5000 <S**2>= 0.7816 S= 0.5157
 <L.S>=  0.00000000000    
 Annihilation of the first spin contaminant:
 S**2 before annihilation     0.7816,   after     0.7503
 DoSCS=F DFT=T ScalE2(SS,OS)=  1.000000  1.000000
 Range of M.O.s used for correlation:     1   118
 NBasis=   118 NAE=    31 NBE=    30 NFC=     0 NFV=     0
 NROrb=    118 NOA=    31 NOB=    30 NVA=    87 NVB=    88

 **** Warning!!: The largest alpha MO coefficient is  0.53477107D+02


 **** Warning!!: The largest beta MO coefficient is  0.45848672D+02

 Symmetrizing basis deriv contribution to polar:
 IMax=3 JMax=2 DiffMx= 0.00D+00
 G2DrvN: will do    16 centers at a time, making    1 passes.
 Calling FoFCou, ICntrl=  3107 FMM=F I1Cent=   0 AccDes= 0.00D+00.
 End of G2Drv F.D. properties file   721 does not exist.
 End of G2Drv F.D. properties file   722 does not exist.
 End of G2Drv F.D. properties file   788 does not exist.
          IDoAtm=111111111111111
          Differentiating once with respect to nuclear coordinates.
 Keep R1 and R2 ints in memory in canonical form, NReq=71861349.
          There are    48 degrees of freedom in the 1st order CPHF.  IDoFFX=6 NUNeed=     0.
     42 vectors produced by pass  0 Test12= 1.11D-14 2.08D-09 XBig12= 3.54D-01 8.57D-02.
 AX will form    42 AO Fock derivatives at one time.
     42 vectors produced by pass  1 Test12= 1.11D-14 2.08D-09 XBig12= 2.40D-02 3.76D-02.
     42 vectors produced by pass  2 Test12= 1.11D-14 2.08D-09 XBig12= 8.12D-04 7.65D-03.
     42 vectors produced by pass  3 Test12= 1.11D-14 2.08D-09 XBig12= 7.67D-06 5.28D-04.
     42 vectors produced by pass  4 Test12= 1.11D-14 2.08D-09 XBig12= 5.68D-08 3.45D-05.
     42 vectors produced by pass  5 Test12= 1.11D-14 2.08D-09 XBig12= 4.40D-10 2.50D-06.
     32 vectors produced by pass  6 Test12= 1.11D-14 2.08D-09 XBig12= 3.26D-12 1.72D-07.
     12 vectors produced by pass  7 Test12= 1.11D-14 2.08D-09 XBig12= 2.59D-14 1.58D-08.
 InvSVY:  IOpt=1 It=  1 EMax= 1.55D-15
 Solved reduced A of dimension   296 with    42 vectors.
 End of Minotr F.D. properties file   721 does not exist.
 End of Minotr F.D. properties file   722 does not exist.
 End of Minotr F.D. properties file   788 does not exist.

 **********************************************************************

            Population analysis using the SCF density.

 **********************************************************************

 Orbital symmetries:
 Alpha Orbitals:
       Occupied  (A) (A) (A) (A) (A) (A) (A) (A) (A) (A) (A) (A)
                 (A) (A) (A) (A) (A) (A) (A) (A) (A) (A) (A) (A)
                 (A) (A) (A) (A) (A) (A) (A)
       Virtual   (A) (A) (A) (A) (A) (A) (A) (A) (A) (A) (A) (A)
                 (A) (A) (A) (A) (A) (A) (A) (A) (A) (A) (A) (A)
                 (A) (A) (A) (A) (A) (A) (A) (A) (A) (A) (A) (A)
                 (A) (A) (A) (A) (A) (A) (A) (A) (A) (A) (A) (A)
                 (A) (A) (A) (A) (A) (A) (A) (A) (A) (A) (A) (A)
                 (A) (A) (A) (A) (A) (A) (A) (A) (A) (A) (A) (A)
                 (A) (A) (A) (A) (A) (A) (A) (A) (A) (A) (A) (A)
                 (A) (A) (A)
 Beta  Orbitals:
       Occupied  (A) (A) (A) (A) (A) (A) (A) (A) (A) (A) (A) (A)
                 (A) (A) (A) (A) (A) (A) (A) (A) (A) (A) (A) (A)
                 (A) (A) (A) (A) (A) (A)
       Virtual   (A) (A) (A) (A) (A) (A) (A) (A) (A) (A) (A) (A)
                 (A) (A) (A) (A) (A) (A) (A) (A) (A) (A) (A) (A)
                 (A) (A) (A) (A) (A) (A) (A) (A) (A) (A) (A) (A)
                 (A) (A) (A) (A) (A) (A) (A) (A) (A) (A) (A) (A)
                 (A) (A) (A) (A) (A) (A) (A) (A) (A) (A) (A) (A)
                 (A) (A) (A) (A) (A) (A) (A) (A) (A) (A) (A) (A)
                 (A) (A) (A) (A) (A) (A) (A) (A) (A) (A) (A) (A)
                 (A) (A) (A) (A)
 The electronic state is 2-A.
 Alpha  occ. eigenvalues --  -19.70935 -19.67783 -19.64217 -10.71772 -10.66174
 Alpha  occ. eigenvalues --  -10.61387 -10.61079 -10.54207  -1.27699  -1.18630
 Alpha  occ. eigenvalues --   -1.14753  -0.90438  -0.88041  -0.78399  -0.71409
 Alpha  occ. eigenvalues --   -0.66022  -0.64220  -0.60588  -0.57582  -0.55995
 Alpha  occ. eigenvalues --   -0.53814  -0.50140  -0.48503  -0.45979  -0.45404
 Alpha  occ. eigenvalues --   -0.42015  -0.41128  -0.37348  -0.35710  -0.34877
 Alpha  occ. eigenvalues --   -0.30617
 Alpha virt. eigenvalues --   -0.03435   0.01142   0.02612   0.03160   0.03647
 Alpha virt. eigenvalues --    0.05568   0.06429   0.06841   0.08131   0.08552
 Alpha virt. eigenvalues --    0.09167   0.09650   0.10010   0.10676   0.11297
 Alpha virt. eigenvalues --    0.12173   0.14166   0.14605   0.15477   0.16443
 Alpha virt. eigenvalues --    0.17325   0.18783   0.20883   0.21981   0.22888
 Alpha virt. eigenvalues --    0.23590   0.25238   0.25569   0.26459   0.27521
 Alpha virt. eigenvalues --    0.28180   0.29505   0.30660   0.31398   0.32033
 Alpha virt. eigenvalues --    0.32940   0.34193   0.34564   0.36538   0.37467
 Alpha virt. eigenvalues --    0.38605   0.39156   0.40068   0.42138   0.44742
 Alpha virt. eigenvalues --    0.47961   0.52111   0.60381   0.68891   0.70176
 Alpha virt. eigenvalues --    0.70777   0.71875   0.72879   0.74401   0.78265
 Alpha virt. eigenvalues --    0.79924   0.81296   0.82486   0.84546   0.91131
 Alpha virt. eigenvalues --    0.94406   0.98020   1.04877   1.09818   1.11998
 Alpha virt. eigenvalues --    1.12352   1.15070   1.16579   1.18426   1.21675
 Alpha virt. eigenvalues --    1.22140   1.25844   1.28914   1.30527   1.33850
 Alpha virt. eigenvalues --    1.38442   1.39437   1.42233   1.42691   1.44987
 Alpha virt. eigenvalues --    1.46623   1.49911   1.65308   1.69319   1.92211
 Alpha virt. eigenvalues --    2.00795   2.17324
  Beta  occ. eigenvalues --  -19.70926 -19.67624 -19.64252 -10.71691 -10.66392
  Beta  occ. eigenvalues --  -10.61382 -10.60188 -10.54208  -1.27663  -1.18165
  Beta  occ. eigenvalues --   -1.14813  -0.90097  -0.86215  -0.77831  -0.69490
  Beta  occ. eigenvalues --   -0.65477  -0.63706  -0.59909  -0.57417  -0.55937
  Beta  occ. eigenvalues --   -0.53720  -0.49840  -0.48511  -0.45907  -0.45291
  Beta  occ. eigenvalues --   -0.41749  -0.40656  -0.37380  -0.35615  -0.33218
  Beta virt. eigenvalues --   -0.05020  -0.02318   0.01136   0.02622   0.03255
  Beta virt. eigenvalues --    0.03683   0.05599   0.06265   0.06745   0.07807
  Beta virt. eigenvalues --    0.08164   0.08594   0.09075   0.09904   0.10656
  Beta virt. eigenvalues --    0.11247   0.12681   0.13943   0.14534   0.15025
  Beta virt. eigenvalues --    0.16150   0.17149   0.19432   0.21144   0.22447
  Beta virt. eigenvalues --    0.23014   0.23329   0.25361   0.25552   0.26502
  Beta virt. eigenvalues --    0.27493   0.28156   0.29516   0.30746   0.31260
  Beta virt. eigenvalues --    0.32045   0.32895   0.34231   0.34425   0.36413
  Beta virt. eigenvalues --    0.37630   0.38673   0.39145   0.40254   0.41961
  Beta virt. eigenvalues --    0.45425   0.48119   0.52241   0.60806   0.69420
  Beta virt. eigenvalues --    0.70429   0.71311   0.72453   0.74940   0.75350
  Beta virt. eigenvalues --    0.78353   0.80018   0.81100   0.82778   0.84953
  Beta virt. eigenvalues --    0.91786   0.95988   0.98228   1.05823   1.09904
  Beta virt. eigenvalues --    1.12062   1.13516   1.15612   1.16630   1.18585
  Beta virt. eigenvalues --    1.21479   1.22135   1.25689   1.29568   1.30797
  Beta virt. eigenvalues --    1.33857   1.38479   1.39394   1.42230   1.42844
  Beta virt. eigenvalues --    1.45006   1.46342   1.49940   1.65424   1.69364
  Beta virt. eigenvalues --    1.92219   2.00760   2.17308
          Condensed to atoms (all electrons):
               1          2          3          4          5          6
     1  O    8.373453   0.213498  -0.401424   0.001003   0.550262  -0.156988
     2  H    0.213498   0.341139   0.015547  -0.000019  -0.042245   0.005998
     3  C   -0.401424   0.015547   7.741457   0.344032  -1.907530  -0.146461
     4  H    0.001003  -0.000019   0.344032   0.363867  -0.030680   0.014915
     5  C    0.550262  -0.042245  -1.907530  -0.030680  10.985338  -2.285697
     6  C   -0.156988   0.005998  -0.146461   0.014915  -2.285697   8.247225
     7  O    0.006779   0.000301   0.015797   0.000423  -0.164710   0.480756
     8  O    0.020458  -0.007069   0.254218  -0.000129  -0.834597  -0.180529
     9  C    0.004691  -0.000465   0.055121   0.000410  -0.195178  -0.080588
    10  C   -0.008577   0.001267   0.000446  -0.000020  -0.008189  -0.114437
    11  H   -0.000210  -0.000001  -0.000362  -0.000000   0.007596   0.006396
    12  H    0.000082  -0.000002  -0.001734   0.000000  -0.002166   0.015460
    13  H   -0.000001  -0.000000  -0.000094   0.000000   0.002280   0.001245
    14  H   -0.000017  -0.000002  -0.000386   0.000000   0.000684   0.002960
    15  H   -0.000017   0.000000   0.001094  -0.000000  -0.003271   0.000078
               7          8          9         10         11         12
     1  O    0.006779   0.020458   0.004691  -0.008577  -0.000210   0.000082
     2  H    0.000301  -0.007069  -0.000465   0.001267  -0.000001  -0.000002
     3  C    0.015797   0.254218   0.055121   0.000446  -0.000362  -0.001734
     4  H    0.000423  -0.000129   0.000410  -0.000020  -0.000000   0.000000
     5  C   -0.164710  -0.834597  -0.195178  -0.008189   0.007596  -0.002166
     6  C    0.480756  -0.180529  -0.080588  -0.114437   0.006396   0.015460
     7  O    8.596213  -0.411714  -0.010977  -0.055937   0.000925  -0.001308
     8  O   -0.411714   9.451159   0.072920  -0.003936  -0.065823  -0.046407
     9  C   -0.010977   0.072920   5.795748  -0.110521   0.401331   0.434254
    10  C   -0.055937  -0.003936  -0.110521   5.761364  -0.045924  -0.084716
    11  H    0.000925  -0.065823   0.401331  -0.045924   0.511247  -0.034861
    12  H   -0.001308  -0.046407   0.434254  -0.084716  -0.034861   0.476258
    13  H    0.000332   0.007654  -0.078867   0.413899  -0.000074  -0.001083
    14  H   -0.000536  -0.004288  -0.048784   0.395818  -0.005356   0.004126
    15  H    0.001163  -0.004855  -0.045987   0.402547   0.004049  -0.005131
              13         14         15
     1  O   -0.000001  -0.000017  -0.000017
     2  H   -0.000000  -0.000002   0.000000
     3  C   -0.000094  -0.000386   0.001094
     4  H    0.000000   0.000000  -0.000000
     5  C    0.002280   0.000684  -0.003271
     6  C    0.001245   0.002960   0.000078
     7  O    0.000332  -0.000536   0.001163
     8  O    0.007654  -0.004288  -0.004855
     9  C   -0.078867  -0.048784  -0.045987
    10  C    0.413899   0.395818   0.402547
    11  H   -0.000074  -0.005356   0.004049
    12  H   -0.001083   0.004126  -0.005131
    13  H    0.497607  -0.026684  -0.022925
    14  H   -0.026684   0.495243  -0.029098
    15  H   -0.022925  -0.029098   0.476223
          Atomic-Atomic Spin Densities.
               1          2          3          4          5          6
     1  O    0.133463  -0.004182  -0.113297   0.000084   0.031718  -0.006423
     2  H   -0.004182  -0.008653   0.006251  -0.000012   0.006286  -0.000931
     3  C   -0.113297   0.006251   1.745583  -0.011343  -0.214453  -0.090261
     4  H    0.000084  -0.000012  -0.011343  -0.038206   0.003783  -0.003013
     5  C    0.031718   0.006286  -0.214453   0.003783  -0.227095   0.102340
     6  C   -0.006423  -0.000931  -0.090261  -0.003013   0.102340   0.024012
     7  O   -0.002985   0.000064  -0.012586   0.000100   0.016169   0.004615
     8  O    0.003350  -0.000496  -0.006231   0.000024  -0.006902  -0.008898
     9  C   -0.000047  -0.000058  -0.005872  -0.000038  -0.000136   0.009201
    10  C   -0.000447   0.000000  -0.000917  -0.000004   0.003142  -0.001902
    11  H    0.000007  -0.000000  -0.000010  -0.000000  -0.000209   0.000647
    12  H    0.000002  -0.000000  -0.000101  -0.000000   0.000168   0.000228
    13  H   -0.000000  -0.000000   0.000004  -0.000000   0.000127  -0.000032
    14  H    0.000001  -0.000000   0.000002  -0.000000  -0.000106   0.000081
    15  H    0.000003  -0.000000  -0.000018   0.000000  -0.000111   0.000241
               7          8          9         10         11         12
     1  O   -0.002985   0.003350  -0.000047  -0.000447   0.000007   0.000002
     2  H    0.000064  -0.000496  -0.000058   0.000000  -0.000000  -0.000000
     3  C   -0.012586  -0.006231  -0.005872  -0.000917  -0.000010  -0.000101
     4  H    0.000100   0.000024  -0.000038  -0.000004  -0.000000  -0.000000
     5  C    0.016169  -0.006902  -0.000136   0.003142  -0.000209   0.000168
     6  C    0.004615  -0.008898   0.009201  -0.001902   0.000647   0.000228
     7  O   -0.030531  -0.006138   0.001613   0.000249  -0.000008   0.000020
     8  O   -0.006138   0.024792  -0.003699  -0.000091  -0.000165  -0.000047
     9  C    0.001613  -0.003699   0.003041  -0.001071   0.000002  -0.000268
    10  C    0.000249  -0.000091  -0.001071   0.000389  -0.000242  -0.000087
    11  H   -0.000008  -0.000165   0.000002  -0.000242  -0.000070   0.000073
    12  H    0.000020  -0.000047  -0.000268  -0.000087   0.000073  -0.000064
    13  H   -0.000012   0.000012  -0.000431   0.000351  -0.000028  -0.000006
    14  H   -0.000012   0.000000   0.000042  -0.000000  -0.000001  -0.000001
    15  H    0.000039  -0.000115   0.000134  -0.000130  -0.000000   0.000003
              13         14         15
     1  O   -0.000000   0.000001   0.000003
     2  H   -0.000000  -0.000000  -0.000000
     3  C    0.000004   0.000002  -0.000018
     4  H   -0.000000  -0.000000   0.000000
     5  C    0.000127  -0.000106  -0.000111
     6  C   -0.000032   0.000081   0.000241
     7  O   -0.000012  -0.000012   0.000039
     8  O    0.000012   0.000000  -0.000115
     9  C   -0.000431   0.000042   0.000134
    10  C    0.000351  -0.000000  -0.000130
    11  H   -0.000028  -0.000001  -0.000000
    12  H   -0.000006  -0.000001   0.000003
    13  H    0.000175  -0.000034  -0.000042
    14  H   -0.000034   0.000036   0.000004
    15  H   -0.000042   0.000004   0.000064
 Mulliken charges and spin densities:
               1          2
     1  O   -0.602991   0.041247
     2  H    0.472053  -0.001730
     3  C    0.030278   1.296750
     4  H    0.306200  -0.048625
     5  C   -0.071898  -0.285276
     6  C    0.189667   0.029905
     7  O   -0.457507  -0.029402
     8  O   -0.247062  -0.004603
     9  C   -0.193110   0.002412
    10  C   -0.543085  -0.000761
    11  H    0.221066  -0.000005
    12  H    0.247229  -0.000079
    13  H    0.206712   0.000084
    14  H    0.216320   0.000012
    15  H    0.226128   0.000070
 Sum of Mulliken charges =  -0.00000   1.00000
 Mulliken charges and spin densities with hydrogens summed into heavy atoms:
               1          2
     1  O   -0.130938   0.039516
     3  C    0.336478   1.248124
     5  C   -0.071898  -0.285276
     6  C    0.189667   0.029905
     7  O   -0.457507  -0.029402
     8  O   -0.247062  -0.004603
     9  C    0.275185   0.002329
    10  C    0.106074  -0.000594
 APT charges:
               1
     1  O   -0.792074
     2  H    0.656530
     3  C    0.179253
     4  H    0.947807
     5  C   -0.868081
     6  C    0.125303
     7  O   -0.436466
     8  O    0.086274
     9  C   -0.839821
    10  C   -1.460598
    11  H    0.620614
    12  H    0.437415
    13  H    0.680750
    14  H    0.407642
    15  H    0.255452
 Sum of APT charges =  -0.00000
 APT charges with hydrogens summed into heavy atoms:
               1
     1  O   -0.135544
     3  C    1.127061
     5  C   -0.868081
     6  C    0.125303
     7  O   -0.436466
     8  O    0.086274
     9  C    0.218208
    10  C   -0.116755
 Electronic spatial extent (au):  <R**2>=           1136.5945
 Charge=             -0.0000 electrons
 Dipole moment (field-independent basis, Debye):
    X=             -0.7350    Y=             -0.7381    Z=              1.8801  Tot=              2.1494
 Quadrupole moment (field-independent basis, Debye-Ang):
   XX=            -37.5063   YY=            -52.8835   ZZ=            -46.0173
   XY=              5.4201   XZ=              5.9808   YZ=             -3.3767
 Traceless Quadrupole moment (field-independent basis, Debye-Ang):
   XX=              7.9627   YY=             -7.4145   ZZ=             -0.5482
   XY=              5.4201   XZ=              5.9808   YZ=             -3.3767
 Octapole moment (field-independent basis, Debye-Ang**2):
  XXX=             -5.0341  YYY=            -13.9622  ZZZ=             -1.6790  XYY=              6.6927
  XXY=             17.3943  XXZ=              7.6923  XZZ=             -0.8244  YZZ=             -4.4553
  YYZ=              9.0428  XYZ=             -5.8633
 Hexadecapole moment (field-independent basis, Debye-Ang**3):
 XXXX=          -1017.6157 YYYY=           -285.0990 ZZZZ=           -117.9758 XXXY=             61.6562
 XXXZ=             42.9382 YYYX=             -0.1557 YYYZ=            -13.6073 ZZZX=              7.4719
 ZZZY=             -4.1512 XXYY=           -204.2085 XXZZ=           -201.0766 YYZZ=            -59.8612
 XXYZ=             -6.3024 YYXZ=             21.1396 ZZXY=             -8.8332
 N-N= 3.617856913346D+02 E-N=-1.705987867055D+03  KE= 4.176005816897D+02
  Exact polarizability:   0.000   0.000   0.000   0.000   0.000   0.000
 Approx polarizability:  79.232  10.743  87.846   5.558   3.122  51.367
                          Isotropic Fermi Contact Couplings
        Atom                 a.u.       MegaHertz       Gauss      10(-4) cm-1
     1  O(17)              0.05003     -30.33059     -10.82271     -10.11719
     2  H(1)              -0.00379     -16.95699      -6.05068      -5.65624
     3  C(13)              0.17749     199.53390      71.19866      66.55734
     4  H(1)              -0.02144     -95.85060     -34.20188     -31.97232
     5  C(13)             -0.06716     -75.50052     -26.94046     -25.18426
     6  C(13)              0.04906      55.15463      19.68054      18.39760
     7  O(17)              0.00302      -1.83062      -0.65321      -0.61063
     8  O(17)              0.01553      -9.41564      -3.35973      -3.14072
     9  C(13)              0.00254       2.85349       1.01820       0.95182
    10  C(13)             -0.00046      -0.51973      -0.18545      -0.17336
    11  H(1)               0.00002       0.06719       0.02397       0.02241
    12  H(1)              -0.00012      -0.52304      -0.18663      -0.17447
    13  H(1)               0.00006       0.25716       0.09176       0.08578
    14  H(1)               0.00001       0.05272       0.01881       0.01759
    15  H(1)               0.00001       0.06524       0.02328       0.02176
 --------------------------------------------------------
       Center         ----  Spin Dipole Couplings  ----
                      3XX-RR        3YY-RR        3ZZ-RR
 --------------------------------------------------------
     1   Atom       -0.101271      0.249522     -0.148251
     2   Atom       -0.010076      0.006244      0.003833
     3   Atom        0.148427      0.213887     -0.362314
     4   Atom        0.034833      0.034219     -0.069052
     5   Atom        0.083451      0.094344     -0.177795
     6   Atom        0.030098     -0.019945     -0.010153
     7   Atom        0.084070      0.041440     -0.125509
     8   Atom        0.014998     -0.005206     -0.009791
     9   Atom        0.006409     -0.002970     -0.003438
    10   Atom        0.001458     -0.000591     -0.000866
    11   Atom        0.001171     -0.000535     -0.000636
    12   Atom        0.001997     -0.000900     -0.001097
    13   Atom        0.000997     -0.000505     -0.000492
    14   Atom        0.001085     -0.000495     -0.000590
    15   Atom        0.001929     -0.001063     -0.000866
 --------------------------------------------------------
                        XY            XZ            YZ
 --------------------------------------------------------
     1   Atom        0.108723      0.042591      0.086128
     2   Atom        0.007951     -0.003349     -0.007042
     3   Atom       -0.821446      0.041071     -0.110444
     4   Atom        0.058527      0.023194      0.016868
     5   Atom        0.023524      0.047758      0.017278
     6   Atom       -0.008086      0.005821     -0.001669
     7   Atom        0.015024      0.031473      0.016285
     8   Atom       -0.000666      0.003421      0.000832
     9   Atom       -0.000059      0.001348      0.000123
    10   Atom        0.000297      0.000011      0.000139
    11   Atom        0.000765      0.000712      0.000431
    12   Atom       -0.000224      0.000960     -0.000292
    13   Atom        0.000165     -0.000129      0.000013
    14   Atom        0.000682     -0.000369     -0.000141
    15   Atom        0.000176     -0.000730      0.000003
 --------------------------------------------------------


 ---------------------------------------------------------------------------------
              Anisotropic Spin Dipole Couplings in Principal Axis System
 ---------------------------------------------------------------------------------

       Atom             a.u.   MegaHertz   Gauss  10(-4) cm-1        Axes

              Baa    -0.1749    12.658     4.517     4.222 -0.4077 -0.0802  0.9096
     1 O(17)  Bbb    -0.1255     9.081     3.240     3.029  0.8704 -0.3352  0.3606
              Bcc     0.3004   -21.738    -7.757    -7.251  0.2760  0.9387  0.2064
 
              Baa    -0.0133    -7.109    -2.537    -2.371  0.9298 -0.3667  0.0310
     2 H(1)   Bbb    -0.0016    -0.861    -0.307    -0.287  0.1871  0.5438  0.8181
              Bcc     0.0149     7.970     2.844     2.659  0.3168  0.7549 -0.5742
 
              Baa    -0.6488   -87.065   -31.067   -29.042  0.7035  0.6911  0.1656
     3 C(13)  Bbb    -0.3629   -48.704   -17.379   -16.246 -0.1735 -0.0589  0.9831
              Bcc     1.0118   135.769    48.446    45.288 -0.6891  0.7204 -0.0785
 
              Baa    -0.0742   -39.610   -14.134   -13.212 -0.1786 -0.0564  0.9823
     4 H(1)   Bbb    -0.0236   -12.609    -4.499    -4.206 -0.6882  0.7207 -0.0838
              Bcc     0.0979    52.219    18.633    17.418  0.7032  0.6910  0.1675
 
              Baa    -0.1869   -25.073    -8.947    -8.364 -0.1699 -0.0463  0.9844
     5 C(13)  Bbb     0.0672     9.022     3.219     3.009  0.7222 -0.6855  0.0924
              Bcc     0.1196    16.052     5.728     5.354  0.6705  0.7266  0.1499
 
              Baa    -0.0213    -2.855    -1.019    -0.952  0.1472  0.9866  0.0710
     6 C(13)  Bbb    -0.0110    -1.470    -0.524    -0.490 -0.1496 -0.0487  0.9875
              Bcc     0.0322     4.324     1.543     1.442  0.9777 -0.1560  0.1404
 
              Baa    -0.1313     9.498     3.389     3.168 -0.1386 -0.0810  0.9870
     7 O(17)  Bbb     0.0369    -2.668    -0.952    -0.890 -0.3227  0.9460  0.0323
              Bcc     0.0944    -6.830    -2.437    -2.278  0.9363  0.3140  0.1573
 
              Baa    -0.0104     0.754     0.269     0.251 -0.1359 -0.1731  0.9755
     8 O(17)  Bbb    -0.0051     0.366     0.131     0.122  0.0028  0.9845  0.1751
              Bcc     0.0155    -1.120    -0.400    -0.374  0.9907 -0.0266  0.1333
 
              Baa    -0.0036    -0.489    -0.175    -0.163 -0.1316 -0.1891  0.9731
     9 C(13)  Bbb    -0.0029    -0.395    -0.141    -0.132 -0.0209  0.9820  0.1880
              Bcc     0.0066     0.884     0.316     0.295  0.9911 -0.0044  0.1332
 
              Baa    -0.0009    -0.125    -0.044    -0.042  0.0477 -0.4153  0.9085
    10 C(13)  Bbb    -0.0006    -0.077    -0.027    -0.026 -0.1338  0.8986  0.4178
              Bcc     0.0015     0.201     0.072     0.067  0.9899  0.1415  0.0127
 
              Baa    -0.0010    -0.544    -0.194    -0.181 -0.0249 -0.6418  0.7665
    11 H(1)   Bbb    -0.0007    -0.388    -0.138    -0.129 -0.4817  0.6795  0.5533
              Bcc     0.0017     0.932     0.332     0.311  0.8760  0.3554  0.3261
 
              Baa    -0.0015    -0.779    -0.278    -0.260 -0.2250  0.3777  0.8982
    12 H(1)   Bbb    -0.0008    -0.447    -0.160    -0.149  0.1882  0.9213 -0.3403
              Bcc     0.0023     1.226     0.438     0.409  0.9560 -0.0924  0.2783
 
              Baa    -0.0005    -0.289    -0.103    -0.096 -0.1349  0.8168 -0.5609
    13 H(1)   Bbb    -0.0005    -0.258    -0.092    -0.086  0.0088  0.5670  0.8236
              Bcc     0.0010     0.547     0.195     0.182  0.9908  0.1062 -0.0837
 
              Baa    -0.0007    -0.400    -0.143    -0.133 -0.3419  0.9390  0.0366
    14 H(1)   Bbb    -0.0007    -0.356    -0.127    -0.119  0.1938  0.0324  0.9805
              Bcc     0.0014     0.756     0.270     0.252  0.9195  0.3423 -0.1931
 
              Baa    -0.0011    -0.590    -0.210    -0.197 -0.1828  0.8039 -0.5660
    15 H(1)   Bbb    -0.0010    -0.540    -0.193    -0.180  0.1604  0.5924  0.7895
              Bcc     0.0021     1.130     0.403     0.377  0.9700  0.0536 -0.2372
 

 ---------------------------------------------------------------------------------

 Calling FoFJK, ICntrl=    100147 FMM=F ISym2X=0 I1Cent= 0 IOpClX= 1 NMat=1 NMatS=1 NMatT=0.
 ***** Axes restored to original set *****
 -------------------------------------------------------------------
 Center     Atomic                   Forces (Hartrees/Bohr)
 Number     Number              X              Y              Z
 -------------------------------------------------------------------
      1        8           0.009541249   -0.027147507   -0.000052315
      2        1           0.001468257    0.017301743    0.005763493
      3        6           0.039725517    0.023296894   -0.026435737
      4        1           0.000897520   -0.000903327   -0.000691372
      5        6          -0.018743646   -0.017801035    0.020677273
      6        6          -0.032105611   -0.046505226    0.036679330
      7        8          -0.015134554    0.017136229   -0.008116842
      8        8          -0.001357545    0.041638421   -0.034482450
      9        6           0.025167933    0.003601815    0.024996338
     10        6          -0.014671667   -0.009090411   -0.018467469
     11        1          -0.002712097    0.006595275   -0.015561044
     12        1          -0.002521803   -0.015363168    0.000571957
     13        1           0.015377786   -0.005179633    0.001636351
     14        1           0.001183659    0.016127264   -0.001248549
     15        1          -0.006114996   -0.003707335    0.014731036
 -------------------------------------------------------------------
 Cartesian Forces:  Max     0.046505226 RMS     0.019076139
 FormGI is forming the generalized inverse of G from B-inverse, IUseBI=4.

 GradGradGradGradGradGradGradGradGradGradGradGradGradGradGradGradGradGrad
 Berny optimization.
 Internal  Forces:  Max     0.053638883 RMS     0.013679886
 Search for a local minimum.
 Step number   1 out of a maximum of   66
 All quantities printed in internal units (Hartrees-Bohrs-Radians)
 Mixed Optimization -- RFO/linear search
 Second derivative matrix not updated -- analytic derivatives used.
 ITU=  0
     Eigenvalues ---   -0.06299  -0.00621   0.00228   0.00259   0.00397
     Eigenvalues ---    0.01874   0.03052   0.04664   0.04829   0.04912
     Eigenvalues ---    0.05128   0.06244   0.06446   0.10380   0.12609
     Eigenvalues ---    0.12924   0.13382   0.13823   0.15423   0.16888
     Eigenvalues ---    0.17606   0.18685   0.22406   0.24568   0.26610
     Eigenvalues ---    0.30599   0.35006   0.36841   0.39673   0.40077
     Eigenvalues ---    0.40192   0.40303   0.40464   0.41225   0.41431
     Eigenvalues ---    0.54510   0.55362   0.59111   0.76942
 RFO step:  Lambda=-6.30009294D-02 EMin=-6.29884085D-02
 I=     1 Eig=   -6.30D-02 Dot1= -4.15D-04
 I=     1 Stepn= -6.00D-01 RXN=   6.00D-01 EDone=F
 I=     2 Eig=   -6.21D-03 Dot1=  6.62D-04
 I=     2 Stepn=  3.00D-01 RXN=   6.71D-01 EDone=F
 Mixed    2 eigenvectors in step.  Raw Step.Grad=  1.08D-03.
 RFO eigenvector is Hessian eigenvector with negative curvature.
 Taking step of  6.00D-01 in eigenvector direction(s).  Step.Grad=  9.05D-03.
 Linear search not attempted -- first point.
 Maximum step size (   0.300) exceeded in Quadratic search.
    -- Step size not scaled.
 Iteration  1 RMS(Cart)=  0.05490393 RMS(Int)=  0.04616673
 Iteration  2 RMS(Cart)=  0.04899306 RMS(Int)=  0.01985434
 Iteration  3 RMS(Cart)=  0.03659887 RMS(Int)=  0.00268705
 Iteration  4 RMS(Cart)=  0.00245547 RMS(Int)=  0.00001136
 Iteration  5 RMS(Cart)=  0.00000317 RMS(Int)=  0.00001124
 Iteration  6 RMS(Cart)=  0.00000000 RMS(Int)=  0.00001124
 Variable       Old X    -DE/DX   Delta X   Delta X   Delta X     New X
                                 (Linear)    (Quad)   (Total)
    R1        1.81414   0.01756   0.00000   0.00077   0.00077   1.81491
    R2        2.70231  -0.01342   0.00000  -0.00962  -0.00962   2.69269
    R3        2.02201  -0.00057   0.00000   0.00012   0.00012   2.02213
    R4        2.56096  -0.05364   0.00000   0.00135   0.00135   2.56231
    R5        2.91018  -0.03263   0.00000   0.00003   0.00003   2.91021
    R6        2.37803  -0.02151   0.00000   0.00144   0.00144   2.37947
    R7        2.45910   0.04060   0.00000   0.00029   0.00029   2.45939
    R8        2.70231   0.01745   0.00000   0.00072   0.00072   2.70303
    R9        2.91018  -0.00538   0.00000  -0.00000  -0.00000   2.91017
   R10        2.02201   0.01340   0.00000  -0.00000  -0.00000   2.02201
   R11        2.02201   0.01533   0.00000  -0.00003  -0.00003   2.02197
   R12        2.02201   0.01628   0.00000  -0.00004  -0.00004   2.02197
   R13        2.02201   0.01616   0.00000   0.00002   0.00002   2.02203
   R14        2.02201   0.01627   0.00000   0.00001   0.00001   2.02201
    A1        1.91063   0.00907   0.00000   0.00038   0.00038   1.91101
    A2        2.09440   0.01080   0.00000  -0.03136  -0.03136   2.06304
    A3        2.09440  -0.01253   0.00000   0.01154   0.01153   2.10593
    A4        2.09440   0.00173   0.00000   0.01982   0.01981   2.11421
    A5        2.09440   0.00209   0.00000  -0.00569  -0.00569   2.08870
    A6        2.09440  -0.03075   0.00000   0.00544   0.00544   2.09983
    A7        2.09440   0.02866   0.00000   0.00025   0.00025   2.09465
    A8        2.09440   0.00277   0.00000   0.00102   0.00102   2.09541
    A9        1.91063   0.00384   0.00000  -0.00002  -0.00002   1.91061
   A10        1.91063  -0.00950   0.00000   0.00030   0.00030   1.91094
   A11        1.91063  -0.00119   0.00000  -0.00049  -0.00049   1.91014
   A12        1.91063   0.00581   0.00000   0.00035   0.00035   1.91099
   A13        1.91063   0.00084   0.00000   0.00001   0.00001   1.91064
   A14        1.91063   0.00021   0.00000  -0.00015  -0.00015   1.91048
   A15        1.91063   0.00052   0.00000  -0.00002  -0.00002   1.91061
   A16        1.91063   0.00154   0.00000   0.00038   0.00038   1.91102
   A17        1.91063   0.00162   0.00000   0.00004   0.00004   1.91068
   A18        1.91063  -0.00117   0.00000  -0.00032  -0.00032   1.91031
   A19        1.91063  -0.00157   0.00000  -0.00012  -0.00012   1.91051
   A20        1.91063  -0.00095   0.00000   0.00004   0.00004   1.91067
   A21        3.14159  -0.00194   0.00000  -0.53983  -0.53983   2.60176
   A22        3.14159  -0.00158   0.00000  -0.02433  -0.02433   3.11726
    D1        1.57080   0.00273   0.00000   0.18315   0.18310   1.75390
    D2       -1.57080  -0.00071   0.00000   0.17815   0.17820  -1.39259
    D3       -3.14159   0.00160   0.00000   0.01692   0.01695  -3.12464
    D4        0.00000   0.00285   0.00000   0.01974   0.01977   0.01977
    D5        0.00000  -0.00185   0.00000   0.01193   0.01191   0.01191
    D6       -3.14159  -0.00059   0.00000   0.01475   0.01472  -3.12686
    D7        3.14159   0.00033   0.00000  -0.00119  -0.00119   3.14040
    D8        0.00000   0.00159   0.00000   0.00163   0.00163   0.00163
    D9       -1.57080   0.00132   0.00000   0.00073   0.00073  -1.57006
   D10        2.61799  -0.00233   0.00000   0.00013   0.00013   2.61812
   D11        0.52360   0.00396   0.00000   0.00043   0.00043   0.52403
   D12       -3.14159   0.00235   0.00000  -0.00053  -0.00053   3.14106
   D13       -1.04720   0.00218   0.00000  -0.00070  -0.00070  -1.04790
   D14        1.04720   0.00296   0.00000  -0.00039  -0.00039   1.04681
   D15       -1.04720  -0.00338   0.00000   0.00005   0.00005  -1.04715
   D16        1.04720  -0.00355   0.00000  -0.00013  -0.00013   1.04707
   D17        3.14159  -0.00277   0.00000   0.00018   0.00018  -3.14141
   D18        1.04720   0.00095   0.00000   0.00008   0.00008   1.04728
   D19       -3.14159   0.00078   0.00000  -0.00009  -0.00009   3.14150
   D20       -1.04720   0.00156   0.00000   0.00022   0.00022  -1.04698
         Item               Value     Threshold  Converged?
 Maximum Force            0.053639     0.000015     NO 
 RMS     Force            0.013680     0.000010     NO 
 Maximum Displacement     0.717495     0.000060     NO 
 RMS     Displacement     0.128486     0.000040     NO 
 Predicted change in Energy=-1.025731D-02
 GradGradGradGradGradGradGradGradGradGradGradGradGradGradGradGradGradGrad

                          Input orientation:                          
 ---------------------------------------------------------------------
 Center     Atomic      Atomic             Coordinates (Angstroms)
 Number     Number       Type             X           Y           Z
 ---------------------------------------------------------------------
      1          8           0       -2.110465    1.415172   -0.999787
      2          1           0       -1.863283    2.209970   -0.520644
      3          6           0       -2.821311   -0.328408    0.466390
      4          1           0       -3.160048   -1.123183    1.097762
      5          6           0       -1.808438    0.269499   -0.208222
      6          6           0       -0.369668   -0.274115   -0.130294
      7          8           0       -0.126946   -1.298653    0.560280
      8          8           0        0.593367    0.322044   -0.771335
      9          6           0        1.927991   -0.186671   -0.693980
     10          6           0        2.658906    0.468088    0.492884
     11          1           0        2.448616    0.037480   -1.601508
     12          1           0        1.897423   -1.246891   -0.553052
     13          1           0        3.657088    0.087159    0.551070
     14          1           0        2.689755    1.528370    0.352255
     15          1           0        2.138157    0.243609    1.400264
 ---------------------------------------------------------------------
                    Distance matrix (angstroms):
                    1          2          3          4          5
     1  O    0.000000
     2  H    0.960407   0.000000
     3  C    2.386430   2.887112   0.000000
     4  H    3.456094   3.925652   1.070066   0.000000
     5  C    1.424908   1.966225   1.355915   2.339232   0.000000
     6  C    2.576836   2.924711   2.523794   3.164690   1.540016
     7  O    3.705806   4.061243   2.865274   3.085350   2.424275
     8  O    2.925377   3.108414   3.689862   4.435125   2.467494
     9  C    4.355290   4.488618   4.891056   5.474993   3.795387
    10  C    5.086447   4.950917   5.537860   6.062858   4.526384
    11  H    4.800555   4.947772   5.672937   6.331691   4.485264
    12  H    4.832114   5.108214   4.914197   5.321514   4.018925
    13  H    6.118288   6.010772   6.492266   6.945296   5.521028
    14  H    4.988281   4.685796   5.816572   6.465811   4.704534
    15  H    5.018326   4.854687   5.078942   5.480019   4.261868
                    6          7          8          9         10
     6  C    0.000000
     7  O    1.259160   0.000000
     8  O    1.301451   2.217816   0.000000
     9  C    2.367410   2.651875   1.430384   0.000000
    10  C    3.179855   3.299528   2.426114   1.539998   0.000000
    11  H    3.194415   3.618300   2.052343   1.070000   2.148517
    12  H    2.502943   2.310900   2.051772   1.069982   2.148254
    13  H    4.099943   4.029822   3.345192   2.148234   1.069981
    14  H    3.583556   3.996140   2.666931   2.148548   1.070012
    15  H    2.983259   2.866154   2.666153   2.148295   1.070004
                   11         12         13         14         15
    11  H    0.000000
    12  H    1.747193   0.000000
    13  H    2.469102   2.468845   0.000000
    14  H    2.469431   3.024805   1.747097   0.000000
    15  H    3.024816   2.468803   1.747214   1.747339   0.000000
 Stoichiometry    C5H7O3(2)
 Framework group  C1[X(C5H7O3)]
 Deg. of freedom    39
 Full point group                 C1      NOp   1
 Largest Abelian subgroup         C1      NOp   1
 Largest concise Abelian subgroup C1      NOp   1
                         Standard orientation:                         
 ---------------------------------------------------------------------
 Center     Atomic      Atomic             Coordinates (Angstroms)
 Number     Number       Type             X           Y           Z
 ---------------------------------------------------------------------
      1          8           0        2.079603   -1.449172   -0.002676
      2          1           0        1.865552   -1.871935    0.832689
      3          6           0        2.646132    0.851894    0.278733
      4          1           0        2.920101    1.881725    0.375841
      5          6           0        1.689223   -0.079571    0.043778
      6          6           0        0.219667    0.326008   -0.174307
      7          8           0       -0.101634    1.543190   -0.147511
      8          8           0       -0.688561   -0.582618   -0.382384
      9          6           0       -2.052144   -0.199922   -0.582839
     10          6           0       -2.777094   -0.153186    0.775048
     11          1           0       -2.532957   -0.912564   -1.219912
     12          1           0       -2.087236    0.767144   -1.039362
     13          1           0       -3.796970    0.133598    0.625158
     14          1           0       -2.742287   -1.120160    1.231857
     15          1           0       -2.296172    0.559658    1.411818
 ---------------------------------------------------------------------
 Rotational constants (GHZ):           4.1900888           1.2289165           1.0384478
 Standard basis: 6-31+G (6D, 7F)
 There are   118 symmetry adapted cartesian basis functions of A   symmetry.
 There are   118 symmetry adapted basis functions of A   symmetry.
   118 basis functions,   236 primitive gaussians,   118 cartesian basis functions
    31 alpha electrons       30 beta electrons
       nuclear repulsion energy       362.1189315794 Hartrees.
 NAtoms=   15 NActive=   15 NUniq=   15 SFac= 1.00D+00 NAtFMM=   60 NAOKFM=F Big=F
 Integral buffers will be    131072 words long.
 Raffenetti 2 integral format.
 Two-electron integral symmetry is turned on.
 One-electron integrals computed using PRISM.
 NBasis=   118 RedAO= T EigKep=  4.20D-05  NBF=   118
 NBsUse=   118 1.00D-06 EigRej= -1.00D+00 NBFU=   118
 Initial guess from the checkpoint file:  "ethyl_propiolate_ts1.chk"
 B after Tr=     0.000000   -0.000000    0.000000
         Rot=    0.999990    0.003416    0.001293   -0.002642 Ang=   0.52 deg.
 Initial guess <Sx>= 0.0000 <Sy>= 0.0000 <Sz>= 0.5000 <S**2>= 0.7814 S= 0.5156
 ExpMin= 4.38D-02 ExpMax= 5.48D+03 ExpMxC= 8.25D+02 IAcc=2 IRadAn=         4 AccDes= 0.00D+00
 Harris functional with IExCor= 1009 and IRadAn=       4 diagonalized for initial guess.
 HarFok:  IExCor= 1009 AccDes= 0.00D+00 IRadAn=         4 IDoV= 1 UseB2=F ITyADJ=14
 ICtDFT=  3500011 ScaDFX=  1.000000  1.000000  1.000000  1.000000
 FoFCou: FMM=F IPFlag=           0 FMFlag=      100000 FMFlg1=           0
         NFxFlg=           0 DoJE=T BraDBF=F KetDBF=T FulRan=T
         wScrn=  0.000000 ICntrl=       500 IOpCl=  0 I1Cent=   200000004 NGrid=           0
         NMat0=    1 NMatS0=      1 NMatT0=    0 NMatD0=    1 NMtDS0=    0 NMtDT0=    0
 Petite list used in FoFCou.
 Requested convergence on RMS density matrix=1.00D-08 within 128 cycles.
 Requested convergence on MAX density matrix=1.00D-06.
 Requested convergence on             energy=1.00D-06.
 No special actions if energy rises.
 SCF Done:  E(UM062X) =  -419.990547889     A.U. after   17 cycles
            NFock= 17  Conv=0.53D-08     -V/T= 2.0056
 <Sx>= 0.0000 <Sy>= 0.0000 <Sz>= 0.5000 <S**2>= 0.7805 S= 0.5151
 <L.S>=  0.00000000000    
 Annihilation of the first spin contaminant:
 S**2 before annihilation     0.7805,   after     0.7502
 Calling FoFJK, ICntrl=      2127 FMM=F ISym2X=0 I1Cent= 0 IOpClX= 1 NMat=1 NMatS=1 NMatT=0.
 ***** Axes restored to original set *****
 -------------------------------------------------------------------
 Center     Atomic                   Forces (Hartrees/Bohr)
 Number     Number              X              Y              Z
 -------------------------------------------------------------------
      1        8           0.006807490   -0.027154254    0.002416073
      2        1           0.004737267    0.017134009    0.003677822
      3        6           0.028071287    0.025103874   -0.026749837
      4        1           0.005415533   -0.005469177    0.001927282
      5        6          -0.010261876   -0.014941915    0.017123804
      6        6          -0.034472745   -0.046284226    0.037118385
      7        8          -0.014712449    0.017182785   -0.008147000
      8        8          -0.001150693    0.041765129   -0.034185142
      9        6           0.025182370    0.003095038    0.025288712
     10        6          -0.014709483   -0.008815078   -0.018616214
     11        1          -0.002541505    0.006655300   -0.015587732
     12        1          -0.002804028   -0.015316871    0.000522372
     13        1           0.015265452   -0.005431211    0.001745103
     14        1           0.001457562    0.016104209   -0.001207306
     15        1          -0.006284181   -0.003627611    0.014673678
 -------------------------------------------------------------------
 Cartesian Forces:  Max     0.046284226 RMS     0.018496327

 GradGradGradGradGradGradGradGradGradGradGradGradGradGradGradGradGradGrad
 Berny optimization.
 Using GEDIIS/GDIIS optimizer.
 FormGI is forming the generalized inverse of G from B-inverse, IUseBI=4.
 Internal  Forces:  Max     0.046022758 RMS     0.013390005
 Search for a local minimum.
 Step number   2 out of a maximum of   66
 All quantities printed in internal units (Hartrees-Bohrs-Radians)
 Mixed Optimization -- RFO/linear search
 Update second derivatives using D2CorX and points    1    2
 ITU=  0  0
 Use linear search instead of GDIIS.
     Eigenvalues ---   -0.02400  -0.00632   0.00228   0.00259   0.00397
     Eigenvalues ---    0.01874   0.03051   0.04659   0.04829   0.04912
     Eigenvalues ---    0.05128   0.06244   0.06445   0.10380   0.12543
     Eigenvalues ---    0.12923   0.13382   0.13823   0.15397   0.16855
     Eigenvalues ---    0.17606   0.18619   0.22364   0.24556   0.26597
     Eigenvalues ---    0.30599   0.35003   0.36789   0.39673   0.40077
     Eigenvalues ---    0.40192   0.40297   0.40464   0.40939   0.41430
     Eigenvalues ---    0.53926   0.55358   0.59111   0.76940
 RFO step:  Lambda=-3.76233313D-02 EMin=-2.39956651D-02
 Skip linear search -- no minimum in search direction.
 Maximum step size (   0.300) exceeded in Quadratic search.
    -- Step size scaled by   0.363
 Iteration  1 RMS(Cart)=  0.06743379 RMS(Int)=  0.01218845
 Iteration  2 RMS(Cart)=  0.02268439 RMS(Int)=  0.00096697
 Iteration  3 RMS(Cart)=  0.00087914 RMS(Int)=  0.00004252
 Iteration  4 RMS(Cart)=  0.00000075 RMS(Int)=  0.00004252
 Variable       Old X    -DE/DX   Delta X   Delta X   Delta X     New X
                                 (Linear)    (Quad)   (Total)
    R1        1.81491   0.01723   0.00000   0.00973   0.00973   1.82464
    R2        2.69269  -0.01389   0.00000  -0.02414  -0.02414   2.66855
    R3        2.02213   0.00349   0.00000   0.00716   0.00716   2.02929
    R4        2.56231  -0.04602   0.00000  -0.01913  -0.01913   2.54318
    R5        2.91021  -0.03428   0.00000  -0.03974  -0.03974   2.87047
    R6        2.37947  -0.02128   0.00000  -0.01687  -0.01687   2.36260
    R7        2.45939   0.03992   0.00000   0.02751   0.02751   2.48690
    R8        2.70303   0.01750   0.00000   0.02008   0.02008   2.72311
    R9        2.91017  -0.00540   0.00000  -0.01228  -0.01228   2.89789
   R10        2.02201   0.01338   0.00000   0.01131   0.01131   2.03332
   R11        2.02197   0.01532   0.00000   0.01324   0.01324   2.03522
   R12        2.02197   0.01627   0.00000   0.01383   0.01383   2.03580
   R13        2.02203   0.01616   0.00000   0.01344   0.01344   2.03547
   R14        2.02201   0.01626   0.00000   0.01359   0.01359   2.03560
    A1        1.91101   0.00958   0.00000   0.02405   0.02405   1.93506
    A2        2.06304   0.01181   0.00000   0.00518   0.00511   2.06815
    A3        2.10593  -0.01139   0.00000  -0.01389  -0.01396   2.09197
    A4        2.11421  -0.00044   0.00000   0.00862   0.00856   2.12277
    A5        2.08870   0.00239   0.00000   0.02272   0.02271   2.11142
    A6        2.09983  -0.03131   0.00000  -0.04522  -0.04523   2.05461
    A7        2.09465   0.02891   0.00000   0.02249   0.02248   2.11713
    A8        2.09541   0.00261   0.00000  -0.01187  -0.01187   2.08355
    A9        1.91061   0.00385   0.00000   0.00461   0.00463   1.91525
   A10        1.91094  -0.00955   0.00000  -0.02463  -0.02464   1.88630
   A11        1.91014  -0.00122   0.00000  -0.00497  -0.00502   1.90512
   A12        1.91099   0.00585   0.00000   0.01515   0.01512   1.92610
   A13        1.91064   0.00086   0.00000   0.00812   0.00806   1.91870
   A14        1.91048   0.00021   0.00000   0.00171   0.00149   1.91197
   A15        1.91061   0.00048   0.00000   0.00198   0.00197   1.91259
   A16        1.91102   0.00155   0.00000   0.00568   0.00566   1.91668
   A17        1.91068   0.00166   0.00000   0.00486   0.00485   1.91552
   A18        1.91031  -0.00116   0.00000  -0.00441  -0.00442   1.90589
   A19        1.91051  -0.00157   0.00000  -0.00556  -0.00557   1.90494
   A20        1.91067  -0.00096   0.00000  -0.00254  -0.00257   1.90811
   A21        2.60176  -0.01437   0.00000  -0.28165  -0.28165   2.32012
   A22        3.11726  -0.00119   0.00000  -0.01019  -0.01019   3.10707
    D1        1.75390   0.00353   0.00000   0.12639   0.12638   1.88027
    D2       -1.39259   0.00016   0.00000   0.10552   0.10553  -1.28706
    D3       -3.12464   0.00167   0.00000   0.02360   0.02361  -3.10103
    D4        0.01977   0.00292   0.00000   0.02999   0.02999   0.04976
    D5        0.01191  -0.00176   0.00000   0.00209   0.00209   0.01400
    D6       -3.12686  -0.00052   0.00000   0.00848   0.00847  -3.11839
    D7        3.14040   0.00033   0.00000   0.00147   0.00147  -3.14132
    D8        0.00163   0.00163   0.00000   0.00787   0.00787   0.00951
    D9       -1.57006   0.00129   0.00000   0.00507   0.00506  -1.56500
   D10        2.61812  -0.00238   0.00000  -0.00123  -0.00113   2.61699
   D11        0.52403   0.00396   0.00000   0.01479   0.01469   0.53872
   D12        3.14106   0.00235   0.00000   0.00680   0.00681  -3.13531
   D13       -1.04790   0.00218   0.00000   0.00609   0.00609  -1.04180
   D14        1.04681   0.00297   0.00000   0.00943   0.00945   1.05626
   D15       -1.04715  -0.00340   0.00000  -0.01126  -0.01130  -1.05845
   D16        1.04707  -0.00358   0.00000  -0.01197  -0.01202   1.03505
   D17       -3.14141  -0.00279   0.00000  -0.00863  -0.00866   3.13311
   D18        1.04728   0.00096   0.00000   0.00510   0.00513   1.05241
   D19        3.14150   0.00079   0.00000   0.00438   0.00441  -3.13727
   D20       -1.04698   0.00158   0.00000   0.00773   0.00777  -1.03922
         Item               Value     Threshold  Converged?
 Maximum Force            0.046023     0.000015     NO 
 RMS     Force            0.013390     0.000010     NO 
 Maximum Displacement     0.429090     0.000060     NO 
 RMS     Displacement     0.082784     0.000040     NO 
 Predicted change in Energy=-1.300505D-02
 GradGradGradGradGradGradGradGradGradGradGradGradGradGradGradGradGradGrad

                          Input orientation:                          
 ---------------------------------------------------------------------
 Center     Atomic      Atomic             Coordinates (Angstroms)
 Number     Number       Type             X           Y           Z
 ---------------------------------------------------------------------
      1          8           0       -2.071223    1.397874   -1.008953
      2          1           0       -1.722803    2.202752   -0.605126
      3          6           0       -2.849052   -0.287015    0.465769
      4          1           0       -2.932983   -1.161393    1.083494
      5          6           0       -1.817733    0.274556   -0.191628
      6          6           0       -0.411029   -0.290981   -0.098471
      7          8           0       -0.171262   -1.310351    0.584524
      8          8           0        0.544800    0.334733   -0.751734
      9          6           0        1.892589   -0.171189   -0.688394
     10          6           0        2.628413    0.462717    0.498341
     11          1           0        2.386427    0.077904   -1.611335
     12          1           0        1.863210   -1.241566   -0.572896
     13          1           0        3.637467    0.087646    0.539628
     14          1           0        2.652920    1.533381    0.383123
     15          1           0        2.121403    0.214400    1.415742
 ---------------------------------------------------------------------
                    Distance matrix (angstroms):
                    1          2          3          4          5
     1  O    0.000000
     2  H    0.965557   0.000000
     3  C    2.370375   2.934995   0.000000
     4  H    3.416257   3.953915   1.073855   0.000000
     5  C    1.412134   1.974318   1.345791   2.220736   0.000000
     6  C    2.537213   2.862893   2.502466   2.918031   1.518988
     7  O    3.671990   4.020503   2.869125   2.810385   2.413547
     8  O    2.835490   2.941600   3.658841   4.207307   2.428765
     9  C    4.275104   4.325920   4.881462   5.235097   3.769874
    10  C    5.023249   4.814400   5.528634   5.823167   4.503296
    11  H    4.687838   4.734259   5.644268   6.090491   4.441756
    12  H    4.757788   4.972309   4.918883   5.074793   3.999166
    13  H    6.058377   5.875085   6.497750   6.710194   5.507165
    14  H    4.926841   4.535597   5.795893   6.241365   4.679926
    15  H    4.985766   4.776543   5.085203   5.248811   4.254885
                    6          7          8          9         10
     6  C    0.000000
     7  O    1.250235   0.000000
     8  O    1.316010   2.237104   0.000000
     9  C    2.380970   2.679084   1.441008   0.000000
    10  C    3.187861   3.315023   2.433210   1.533498   0.000000
    11  H    3.201655   3.645658   2.048527   1.075984   2.158094
    12  H    2.510151   2.341672   2.062742   1.076991   2.153524
    13  H    4.115926   4.057441   3.360544   2.149334   1.077298
    14  H    3.598335   4.012901   2.677466   2.152164   1.077124
    15  H    2.993570   2.876126   2.682929   2.151378   1.077193
                   11         12         13         14         15
    11  H    0.000000
    12  H    1.758724   0.000000
    13  H    2.488340   2.480424   0.000000
    14  H    2.483403   3.039398   1.756125   0.000000
    15  H    3.041721   2.478141   1.755589   1.757419   0.000000
 Stoichiometry    C5H7O3(2)
 Framework group  C1[X(C5H7O3)]
 Deg. of freedom    39
 Full point group                 C1      NOp   1
 Largest Abelian subgroup         C1      NOp   1
 Largest concise Abelian subgroup C1      NOp   1
                         Standard orientation:                         
 ---------------------------------------------------------------------
 Center     Atomic      Atomic             Coordinates (Angstroms)
 Number     Number       Type             X           Y           Z
 ---------------------------------------------------------------------
      1          8           0        2.019855   -1.450047   -0.004881
      2          1           0        1.704055   -1.919741    0.777397
      3          6           0        2.658624    0.813106    0.293101
      4          1           0        2.675516    1.886319    0.326160
      5          6           0        1.680232   -0.080859    0.059154
      6          6           0        0.242390    0.353138   -0.167966
      7          8           0       -0.073733    1.562711   -0.158785
      8          8           0       -0.657262   -0.587226   -0.363478
      9          6           0       -2.032121   -0.215584   -0.582906
     10          6           0       -2.767807   -0.136317    0.760262
     11          1           0       -2.483176   -0.961860   -1.213272
     12          1           0       -2.065144    0.740989   -1.076655
     13          1           0       -3.796737    0.135465    0.592904
     14          1           0       -2.729914   -1.092669    1.254379
     15          1           0       -2.303393    0.607090    1.386370
 ---------------------------------------------------------------------
 Rotational constants (GHZ):           4.1777722           1.2550590           1.0542375
 Standard basis: 6-31+G (6D, 7F)
 There are   118 symmetry adapted cartesian basis functions of A   symmetry.
 There are   118 symmetry adapted basis functions of A   symmetry.
   118 basis functions,   236 primitive gaussians,   118 cartesian basis functions
    31 alpha electrons       30 beta electrons
       nuclear repulsion energy       363.6845119877 Hartrees.
 NAtoms=   15 NActive=   15 NUniq=   15 SFac= 1.00D+00 NAtFMM=   60 NAOKFM=F Big=F
 Integral buffers will be    131072 words long.
 Raffenetti 2 integral format.
 Two-electron integral symmetry is turned on.
 One-electron integrals computed using PRISM.
 NBasis=   118 RedAO= T EigKep=  4.09D-05  NBF=   118
 NBsUse=   118 1.00D-06 EigRej= -1.00D+00 NBFU=   118
 Initial guess from the checkpoint file:  "ethyl_propiolate_ts1.chk"
 B after Tr=    -0.000000   -0.000000   -0.000000
         Rot=    0.999991    0.002605    0.001952    0.002843 Ang=   0.50 deg.
 Initial guess <Sx>= 0.0000 <Sy>= 0.0000 <Sz>= 0.5000 <S**2>= 0.7801 S= 0.5150
 ExpMin= 4.38D-02 ExpMax= 5.48D+03 ExpMxC= 8.25D+02 IAcc=2 IRadAn=         4 AccDes= 0.00D+00
 Harris functional with IExCor= 1009 and IRadAn=       4 diagonalized for initial guess.
 HarFok:  IExCor= 1009 AccDes= 0.00D+00 IRadAn=         4 IDoV= 1 UseB2=F ITyADJ=14
 ICtDFT=  3500011 ScaDFX=  1.000000  1.000000  1.000000  1.000000
 FoFCou: FMM=F IPFlag=           0 FMFlag=      100000 FMFlg1=           0
         NFxFlg=           0 DoJE=T BraDBF=F KetDBF=T FulRan=T
         wScrn=  0.000000 ICntrl=       500 IOpCl=  0 I1Cent=   200000004 NGrid=           0
         NMat0=    1 NMatS0=      1 NMatT0=    0 NMatD0=    1 NMtDS0=    0 NMtDT0=    0
 Petite list used in FoFCou.
 Requested convergence on RMS density matrix=1.00D-08 within 128 cycles.
 Requested convergence on MAX density matrix=1.00D-06.
 Requested convergence on             energy=1.00D-06.
 No special actions if energy rises.
 SCF Done:  E(UM062X) =  -420.000450174     A.U. after   16 cycles
            NFock= 16  Conv=0.66D-08     -V/T= 2.0056
 <Sx>= 0.0000 <Sy>= 0.0000 <Sz>= 0.5000 <S**2>= 0.7786 S= 0.5142
 <L.S>=  0.00000000000    
 Annihilation of the first spin contaminant:
 S**2 before annihilation     0.7786,   after     0.7502
 Calling FoFJK, ICntrl=      2127 FMM=F ISym2X=0 I1Cent= 0 IOpClX= 1 NMat=1 NMatS=1 NMatT=0.
 ***** Axes restored to original set *****
 -------------------------------------------------------------------
 Center     Atomic                   Forces (Hartrees/Bohr)
 Number     Number              X              Y              Z
 -------------------------------------------------------------------
      1        8           0.003519056   -0.016261996    0.002454757
      2        1           0.005691050    0.010965126    0.000138683
      3        6           0.028197386    0.007385560   -0.014985128
      4        1          -0.002731710   -0.003330607    0.002953724
      5        6          -0.010447136   -0.001499974    0.007196435
      6        6          -0.023846515   -0.032652963    0.026194177
      7        8          -0.009157809    0.011162633   -0.005471960
      8        8          -0.001997021    0.029587014   -0.023367562
      9        6           0.019076752    0.000898506    0.017910223
     10        6          -0.010829012   -0.005614845   -0.012987683
     11        1          -0.002705725    0.005121161   -0.010570542
     12        1          -0.002279014   -0.010348452   -0.000057592
     13        1           0.010368051   -0.003549525    0.001061188
     14        1           0.001013861    0.010896817   -0.000468585
     15        1          -0.003872215   -0.002758456    0.009999866
 -------------------------------------------------------------------
 Cartesian Forces:  Max     0.032652963 RMS     0.012744812

 GradGradGradGradGradGradGradGradGradGradGradGradGradGradGradGradGradGrad
 Berny optimization.
 Using GEDIIS/GDIIS optimizer.
 FormGI is forming the generalized inverse of G from B-inverse, IUseBI=4.
 Internal  Forces:  Max     0.027083679 RMS     0.008994256
 Search for a local minimum.
 Step number   3 out of a maximum of   66
 All quantities printed in internal units (Hartrees-Bohrs-Radians)
 Mixed Optimization -- RFO/linear search
 Update second derivatives using D2CorX and points    2    3
 DE= -9.90D-03 DEPred=-1.30D-02 R= 7.61D-01
 TightC=F SS=  1.41D+00  RLast= 3.45D-01 DXNew= 5.0454D-01 1.0361D+00
 Trust test= 7.61D-01 RLast= 3.45D-01 DXMaxT set to 5.05D-01
 ITU=  1  0  0
 Use linear search instead of GDIIS.
     Eigenvalues ---   -0.66582  -0.00614   0.00228   0.00259   0.00398
     Eigenvalues ---    0.01874   0.03047   0.04681   0.04829   0.04912
     Eigenvalues ---    0.05139   0.06242   0.06452   0.08586   0.10809
     Eigenvalues ---    0.12855   0.13101   0.13539   0.13825   0.16002
     Eigenvalues ---    0.17302   0.17641   0.21944   0.23387   0.24941
     Eigenvalues ---    0.29903   0.30663   0.35182   0.38231   0.39758
     Eigenvalues ---    0.40089   0.40192   0.40405   0.41106   0.41354
     Eigenvalues ---    0.46004   0.55200   0.57603   0.76043
 RFO step:  Lambda=-6.70084041D-01 EMin=-6.65815640D-01
 I=     1 Eig=   -6.66D-01 Dot1=  3.21D-02
 I=     1 Stepn=  6.00D-01 RXN=   6.00D-01 EDone=F
 I=     2 Eig=   -6.14D-03 Dot1=  1.26D-03
 I=     2 Stepn=  3.00D-01 RXN=   6.71D-01 EDone=F
 Mixed    2 eigenvectors in step.  Raw Step.Grad=  3.33D-02.
 RFO eigenvector is Hessian eigenvector with negative curvature.
 Taking step of  6.00D-01 in eigenvector direction(s).  Step.Grad= -4.91D-03.
 Quartic linear search produced a step of  0.46058.
 Maximum step size (   0.505) exceeded in Quadratic search.
    -- Step size not scaled.
 Iteration  1 RMS(Cart)=  0.20445456 RMS(Int)=  0.01580848
 Iteration  2 RMS(Cart)=  0.02822154 RMS(Int)=  0.00053735
 Iteration  3 RMS(Cart)=  0.00052590 RMS(Int)=  0.00028040
 Iteration  4 RMS(Cart)=  0.00000052 RMS(Int)=  0.00028040
 Variable       Old X    -DE/DX   Delta X   Delta X   Delta X     New X
                                 (Linear)    (Quad)   (Total)
    R1        1.82464   0.01125   0.00448   0.07834   0.08283   1.90746
    R2        2.66855  -0.00737  -0.01112  -0.05990  -0.07102   2.59753
    R3        2.02929   0.00463   0.00330   0.01347   0.01677   2.04606
    R4        2.54318  -0.02708  -0.00881  -0.21376  -0.22257   2.32061
    R5        2.87047  -0.02332  -0.01830  -0.17894  -0.19724   2.67323
    R6        2.36260  -0.01385  -0.00777  -0.10838  -0.11615   2.24645
    R7        2.48690   0.02707   0.01267   0.18086   0.19353   2.68043
    R8        2.72311   0.01217   0.00925   0.08655   0.09580   2.81891
    R9        2.89789  -0.00387  -0.00566  -0.03198  -0.03764   2.86025
   R10        2.03332   0.00901   0.00521   0.06800   0.07321   2.10653
   R11        2.03522   0.01034   0.00610   0.08016   0.08626   2.12148
   R12        2.03580   0.01099   0.00637   0.08270   0.08907   2.12487
   R13        2.03547   0.01090   0.00619   0.08212   0.08831   2.12378
   R14        2.03560   0.01097   0.00626   0.08269   0.08895   2.12455
    A1        1.93506   0.00705   0.01107   0.05452   0.06560   2.00065
    A2        2.06815   0.01259   0.00236   0.07794   0.08015   2.14830
    A3        2.09197  -0.00897  -0.00643  -0.07382  -0.08038   2.01159
    A4        2.12277  -0.00368   0.00394  -0.00449  -0.00067   2.12210
    A5        2.11142   0.00346   0.01046   0.04374   0.05417   2.16558
    A6        2.05461  -0.02303  -0.02083  -0.18478  -0.20565   1.84896
    A7        2.11713   0.01956   0.01035   0.14095   0.15126   2.26839
    A8        2.08355   0.00152  -0.00547  -0.01110  -0.01657   2.06698
    A9        1.91525   0.00261   0.00213   0.02251   0.02472   1.93997
   A10        1.88630  -0.00706  -0.01135  -0.05373  -0.06534   1.82096
   A11        1.90512  -0.00099  -0.00231  -0.00786  -0.01054   1.89459
   A12        1.92610   0.00432   0.00696   0.03547   0.04248   1.96858
   A13        1.91870   0.00086   0.00371   0.00439   0.00784   1.92654
   A14        1.91197   0.00009   0.00068  -0.00208  -0.00261   1.90936
   A15        1.91259   0.00034   0.00091   0.00303   0.00391   1.91650
   A16        1.91668   0.00120   0.00261   0.01008   0.01261   1.92929
   A17        1.91552   0.00126   0.00223   0.01039   0.01255   1.92807
   A18        1.90589  -0.00089  -0.00203  -0.00739  -0.00945   1.89644
   A19        1.90494  -0.00121  -0.00256  -0.00926  -0.01183   1.89311
   A20        1.90811  -0.00072  -0.00118  -0.00708  -0.00839   1.89972
   A21        2.32012   0.00492  -0.12972   0.22086   0.09114   2.41125
   A22        3.10707   0.00012  -0.00469  -0.01401  -0.01870   3.08838
    D1        1.88027   0.00425   0.05821   0.18096   0.23960   2.11987
[...]
 ! D15   D(11,9,10,13)         -60.9197         -DE/DX =    0.0                 !
 ! D16   D(11,9,10,14)          58.6137         -DE/DX =    0.0                 !
 ! D17   D(11,9,10,15)         179.6933         -DE/DX =    0.0                 !
 ! D18   D(12,9,10,13)          63.742          -DE/DX =    0.0                 !
 ! D19   D(12,9,10,14)        -176.7247         -DE/DX =    0.0                 !
 ! D20   D(12,9,10,15)         -55.645          -DE/DX =    0.0                 !
 --------------------------------------------------------------------------------
 GradGradGradGradGradGradGradGradGradGradGradGradGradGradGradGradGradGrad


 ----------------------------------------------------------------------

 Electric dipole moment (input orientation):
 (Debye = 10**-18 statcoulomb cm , SI units = C m)
                  (au)            (Debye)         (10**-30 SI)
   Tot        0.128764D+01      0.327284D+01      0.109170D+02
   x          0.126258D+01      0.320915D+01      0.107046D+02
   y          0.814132D-01      0.206932D+00      0.690250D+00
   z         -0.239329D+00     -0.608314D+00     -0.202912D+01

 Dipole polarizability, Alpha (input orientation).
 (esu units = cm**3 , SI units = C**2 m**2 J**-1)
 Alpha(0;0):
               (au)            (10**-24 esu)      (10**-40 SI)
   iso        0.667880D+02      0.989697D+01      0.110119D+02
   aniso      0.373462D+02      0.553413D+01      0.615756D+01
   xx         0.849708D+02      0.125914D+02      0.140098D+02
   yx         0.479200D+01      0.710102D+00      0.790095D+00
   yy         0.598046D+02      0.886213D+01      0.986045D+01
   zx        -0.937574D+01     -0.138934D+01     -0.154585D+01
   zy        -0.100818D+02     -0.149397D+01     -0.166227D+01
   zz         0.555888D+02      0.823741D+01      0.916535D+01

 ----------------------------------------------------------------------

 Dipole orientation:
     8         -2.39051342         -2.79393456         -3.14746717
     1         -2.83335532         -3.13982613         -1.38784196
     6          0.05189859          0.12477457         -5.51066388
     1          1.26205476          1.65125717         -6.09910731
     6         -0.80841912         -0.71807513         -3.31819159
     6         -0.10391214          0.54722907         -0.90633337
     8          1.26783432          2.40684769         -0.69611532
     8         -1.21002706         -0.64439655          1.09894352
     6         -0.69049315          0.33616139          3.64948459
     6          1.84664707         -0.61630486          4.58720434
     1         -2.26352570         -0.37217984          4.77182383
     1         -0.75295691          2.39751847          3.55922080
     1          2.15556417          0.01747764          6.53063372
     1          1.90241907         -2.68029098          4.55780819
     1          3.37986763          0.11933212          3.41685582

 Electric dipole moment (dipole orientation):
 (Debye = 10**-18 statcoulomb cm , SI units = C m)
                  (au)            (Debye)         (10**-30 SI)
   Tot        0.128764D+01      0.327284D+01      0.109170D+02
   x          0.000000D+00      0.000000D+00      0.000000D+00
   y          0.000000D+00      0.000000D+00      0.000000D+00
   z          0.128764D+01      0.327284D+01      0.109170D+02

 Dipole polarizability, Alpha (dipole orientation).
 (esu units = cm**3 , SI units = C**2 m**2 J**-1)
 Alpha(0;0):
               (au)            (10**-24 esu)      (10**-40 SI)
   iso        0.667880D+02      0.989697D+01      0.110119D+02
   aniso      0.373462D+02      0.553413D+01      0.615756D+01
   xx         0.541119D+02      0.801855D+01      0.892184D+01
   yx         0.904398D+01      0.134018D+01      0.149115D+01
   yy         0.581486D+02      0.861673D+01      0.958740D+01
   zx        -0.415785D+01     -0.616130D+00     -0.685537D+00
   zy        -0.458143D+01     -0.678898D+00     -0.755376D+00
   zz         0.881037D+02      0.130556D+02      0.145263D+02

 ----------------------------------------------------------------------
 1\1\GINC-AJ\Freq\UM062X\6-31+G\C5H7O3(2)\AAYUSH\08-Jun-2025\0\\#N Geom
 =AllCheck Guess=TCheck SCRF=Check GenChk UM062X/6-31+G Freq\\Title Car
 d Required\\0,2\O,-1.9498350878,1.434327427,-0.837332033\H,-1.09071867
 29,1.687873534,-1.2286110834\C,-2.8507167405,-0.2516181414,0.564764550
 4\H,-2.9926315756,-1.1098421916,1.1994926296\C,-1.8225598382,0.2900521
 554,-0.069079809\C,-0.4655437134,-0.3160545347,0.0169167702\O,-0.16765
 22079,-1.3277208955,0.6457908154\O,0.4312183288,0.410094622,-0.7143851
 86\C,1.8337932014,-0.0360814164,-0.7284804491\C,2.5480764068,0.4274272
 167,0.5276243246\H,2.2390304814,0.4185625492,-1.6313830751\H,1.8377296
 713,-1.1245193698,-0.8209828903\H,3.6049491508,0.1496520666,0.47556044
 28\H,2.4813081032,1.5134332221,0.6285118661\H,2.1146964825,-0.04211725
 37,1.4136781269\\Version=ES64L-G16RevA.03\State=2-A\HF=-420.0166201\S2
 =0.779693\S2-1=0.\S2A=0.750165\RMSD=2.500e-09\RMSF=1.141e-06\ZeroPoint
 =0.1165645\Thermal=0.1252168\Dipole=1.262576,0.0814132,-0.239329\Dipol
 eDeriv=-0.3197554,-0.0087316,-0.0391131,-0.2259319,-0.9521828,0.396683
 2,0.120109,0.3430938,-0.7390446,0.3289123,0.0076318,0.0254707,-0.03099
 41,0.4133106,-0.0069256,0.0441061,-0.0112317,0.4088113,-0.1568441,-0.1
 721915,0.0996715,0.0745079,-0.19476,-0.0305673,-0.0670212,0.0270772,-0
 .2238608,0.178423,0.0669112,-0.0289331,0.0073791,0.1400856,0.0659384,0
 .0091266,0.0511314,0.1973282,-0.440854,0.0942425,0.0409142,0.2461312,0
 .7215367,-0.5160822,-0.0472138,-0.4757441,0.4303322,1.9604729,0.120694
 7,-0.3787576,0.1109828,1.0039966,-0.4102496,-0.4287909,-0.4874895,0.71
 30723,-0.760547,0.1704306,-0.0473278,0.1347511,-0.838756,0.2671844,-0.
 0213411,0.2852728,-0.5189282,-1.7028888,-0.276873,0.3207981,-0.2298944
 ,-0.629899,0.1996761,0.405374,0.2436884,-0.6521684,0.979546,0.0603667,
 -0.0598118,-0.1016356,0.2454558,0.0674002,-0.0012658,0.0042973,0.35250
 78,-0.1152437,-0.0306695,-0.0027594,-0.0067534,0.0387972,-0.0498095,-0
 .0533095,-0.0099959,-0.1028979,-0.0164845,-0.0128675,0.0193564,-0.0279
 187,0.0666636,0.076837,0.0475381,0.0430891,-0.0603977,-0.0142396,-0.05
 63018,-0.0115014,0.0417653,-0.0488278,-0.0612038,-0.0291011,-0.0115545
 ,0.0666337,-0.1229589,0.0364777,0.0018706,0.0572744,0.0878651,-0.01442
 42,0.008553,-0.0292291,0.094088,0.1086601,0.0415803,-0.0135557,-0.0118
 761,-0.1072634,-0.0403045,-0.0239622,0.0034048,0.0592613,0.0938018,-0.
 0407004,0.0736784,-0.0377877,0.0539779,0.0558473,0.0371987,0.0241901,-
 0.0247372\Polar=84.9707722,4.7920037,59.8045944,-9.375743,-10.0818084,
 55.5887669\Quadrupole=1.9744673,-2.5713731,0.5969058,3.9857611,-3.3037
 197,0.7606684\PG=C01 [X(C5H7O3)]\NImag=0\\0.48063828,0.07506529,0.3118
 4601,-0.16778876,-0.22484125,0.21655774,-0.37589192,-0.11618837,0.1737
 4911,0.37347794,-0.06821884,-0.05552138,0.05339026,0.10500400,0.079820
 68,0.14024996,0.06530726,-0.08466012,-0.16448315,-0.07711318,0.1022961
 0,0.00793486,-0.01509223,0.00894610,0.00026519,0.00228586,-0.00159641,
 0.44214267,-0.03166299,-0.02905285,0.02935913,0.00316633,-0.00389647,0
 .00215892,0.21216867,0.42504986,0.02056813,0.02521052,-0.02109503,-0.0
 0220409,0.00233768,-0.00086975,-0.24610742,-0.31677518,0.32995872,-0.0
 0337938,0.00196403,0.00070276,0.00075688,-0.00059447,0.00077121,-0.032
 53388,-0.02512900,0.01964575,0.02907537,-0.00091996,0.00253577,0.00210
 797,0.00038446,0.00053062,0.00110606,-0.05369784,-0.25571700,0.1756201
 9,0.04550478,0.25295944,0.00277400,0.00138344,0.00359524,0.00011003,0.
 00135074,0.00128681,0.03963663,0.16856307,-0.15107595,-0.03458065,-0.1
 7583182,0.14889984,-0.08872679,0.04670636,-0.01757983,0.00256779,-0.03
 478748,0.02211919,-0.37088170,-0.17000483,0.20031411,0.00345476,0.0100
 8997,-0.00735296,0.67841562,-0.01311357,-0.20840705,0.12877525,0.00514
 975,-0.01965553,0.00805945,-0.13916266,-0.14971205,0.10955216,-0.02290
 839,0.00159053,0.00605354,0.09603680,0.48755001,0.02411097,0.11390915,
 -0.11459189,-0.00588755,0.01805053,-0.01728258,0.17878978,0.11727673,-
 0.16903988,0.01573548,-0.00207537,-0.00021785,-0.20514065,-0.27831165,
 0.36904696,-0.00940797,-0.00287010,0.00552796,0.00767559,-0.00130864,0
 .00020126,-0.04018799,0.00392326,0.01168992,0.00127259,-0.00191475,0.0
 0018282,-0.17107272,0.06509272,-0.02288902,0.59710047,0.02857237,-0.02
 449720,0.01357314,0.00457981,-0.00340881,0.00447376,-0.00450875,0.0140
 9110,0.00413619,-0.00016491,-0.00181362,-0.00118510,0.02201128,-0.0941
 5789,0.00353928,-0.14540148,0.69708201,-0.01632323,0.02132358,-0.00577
 458,-0.00393665,0.00594884,0.00137428,0.01772948,0.00183086,0.01259488
 ,-0.00096168,-0.00077839,-0.00281803,0.00666955,-0.00700314,-0.0780612
 3,-0.00266478,-0.32181159,0.40578912,-0.00419432,0.00682951,-0.0031987
 5,-0.00226522,-0.00082146,0.00099544,-0.00067873,0.00242424,-0.0017578
 3,-0.00027267,0.00093865,-0.00066613,-0.00915007,0.03244054,-0.0160290
 0,-0.14350259,0.13128538,-0.07196490,0.13761691,0.00282330,-0.00066969
 ,0.00120887,-0.00115198,0.00184045,-0.00134506,-0.00551168,-0.00269666
 ,0.00249834,0.00085522,-0.00035718,-0.00011844,0.02924630,-0.01698406,
 0.01646256,0.13054507,-0.47388159,0.24940997,-0.13731505,0.54422466,-0
 .00042651,0.00026459,0.00208852,0.00125892,-0.00143044,0.00019082,0.00
 375025,0.00059304,-0.00229208,-0.00059100,-0.00015992,0.00000684,-0.01
 357602,0.01556176,0.00952373,-0.07194615,0.24767565,-0.22291610,0.0684
 3205,-0.32250928,0.23807902,-0.00895529,0.00430507,-0.00023089,-0.0053
 2744,-0.00255258,0.00205290,-0.00527123,0.00527058,-0.00229831,0.00170
 506,-0.00036861,-0.00021514,-0.04939628,-0.02133045,0.03007310,-0.1923
 6956,-0.04282933,0.06136987,0.02067240,-0.02522186,0.02026141,0.483257
 11,0.00602199,0.00324018,-0.00284423,0.00001831,-0.00089549,-0.0016986
 3,0.00427009,0.00145780,-0.00196668,0.00029764,0.00024452,-0.00029501,
 0.00274314,0.00163175,0.00551293,-0.02711611,-0.12391867,0.05211037,-0
 .03202557,-0.04880496,0.05966592,0.00511758,0.25660579,-0.00178121,-0.
 00228167,0.00364165,0.00065274,-0.00133145,-0.00267256,-0.00190311,-0.
 00223664,0.00215152,-0.00064657,-0.00012726,0.00020879,0.01286680,0.01
 147245,-0.00066822,0.05207231,0.05762730,-0.10833494,0.02390036,0.0572
 9009,-0.02213845,-0.10008209,-0.12500650,0.18894792,0.00256279,-0.0005
 5155,-0.00034351,-0.00207887,0.00227622,-0.00104142,-0.00006822,-0.000
 56593,0.00032785,-0.00028077,0.00001851,0.00014225,0.00656549,-0.00124
 408,-0.00046833,-0.05043524,-0.01125662,0.02227609,0.00082828,0.012969
 69,-0.00984769,-0.15129202,0.02338463,0.01162490,0.42656571,0.00133536
 ,0.00053316,-0.00071919,-0.00082804,0.00087268,-0.00079626,-0.00091334
 ,0.00051744,-0.00064520,0.00022121,0.00000778,0.00008143,-0.00233454,-
 0.00205819,0.00637800,-0.02014211,0.01753304,-0.00609041,0.00075946,-0
 .00601347,0.00107180,0.04646461,-0.09405877,0.00754274,0.05333349,0.62
 127001,-0.00140443,-0.00018401,0.00017863,0.00056368,-0.00117646,0.000
 49096,0.00080717,-0.00072874,-0.00036960,-0.00009357,0.00015245,0.0000
 8844,0.00195757,0.00590852,0.00141174,0.02940290,-0.00590145,-0.004077
 64,0.00062499,-0.00278452,-0.00275190,-0.00579283,0.01246805,-0.067115
 26,-0.05155455,-0.03849216,0.58446174,-0.00029690,-0.00012731,0.000043
 86,0.00039386,-0.00064290,0.00018677,-0.00023174,0.00004274,-0.0002115
 5,0.00009686,0.00001318,-0.00000962,-0.00056495,0.00078591,0.00162116,
 0.00214372,0.00419435,-0.00622444,0.00013086,-0.00259756,0.00074092,-0
 .04129657,-0.00750550,-0.03046163,-0.09506503,-0.01849763,-0.03631302,
 0.56923631,0.00004669,-0.00020142,0.00001418,-0.00005696,0.00041310,0.
 00006570,0.00009745,-0.00003788,0.00012483,-0.00004975,-0.00001561,-0.
 00001801,0.00012687,-0.00012180,-0.00082646,-0.00151803,-0.00214678,0.
 00164451,0.00003694,0.00148170,-0.00026900,0.01253304,0.00613778,0.007
 96453,-0.02466399,-0.10350294,-0.03786562,-0.01363660,0.58913609,0.000
 11210,0.00000704,0.00000212,-0.00005265,0.00014084,-0.00011689,0.00009
 127,-0.00003038,0.00003462,-0.00000419,-0.00000071,0.00001418,-0.00018
 675,-0.00004884,-0.00025654,0.00010656,-0.00280026,0.00338235,-0.00162
 567,0.00021605,-0.00146403,-0.00023328,0.00292556,0.00338294,-0.046900
 02,-0.03597817,-0.18283656,-0.04055700,-0.02355513,0.53388142,0.000143
 04,0.00031908,-0.00027766,-0.00020103,-0.00004882,0.00027909,-0.000476
 24,0.00037323,-0.00011938,0.00011580,-0.00002776,-0.00001740,-0.000947
 36,-0.00173321,0.00097225,-0.00344390,0.00661956,-0.00129793,0.0011974
 1,-0.00109313,0.00035668,-0.03241472,-0.01396819,0.02899711,-0.0786146
 0,-0.04118516,0.07896926,0.00839985,0.00715047,-0.01571972,0.10438382,
 -0.00014734,-0.00008852,-0.00005435,0.00018121,0.00004532,0.00006795,0
 .00008842,-0.00009924,-0.00001816,-0.00001292,0.00001679,0.00000430,0.
 00033178,0.00076152,-0.00006714,0.00226405,-0.00348668,0.00143338,-0.0
 0198074,0.00152518,-0.00016432,0.01203992,0.00505561,-0.01115845,-0.04
 972286,-0.10839392,0.10257277,0.00385126,0.00570655,-0.01232603,0.0460
 0362,0.10885510,0.00001469,-0.00015601,0.00004001,0.00011991,0.0001068
 1,-0.00000603,0.00000212,-0.00002222,0.00002076,-0.00000421,-0.0000021
 3,-0.00000363,0.00013761,0.00003259,-0.00008234,-0.00189220,-0.0009824
 9,0.00103544,-0.00006757,-0.00015086,0.00036602,-0.00020510,0.00085106
 ,0.00182194,0.08822678,0.09920599,-0.24463718,0.00863586,0.01231422,-0
 .02282157,-0.09028879,-0.10666080,0.26173374,-0.00049765,-0.00042650,0
 .00035781,0.00070014,-0.00052268,0.00045930,-0.00002076,0.00001164,0.0
 0012798,0.00000807,-0.00000757,-0.00000498,-0.00035255,0.00000805,-0.0
 0096860,0.00279136,0.00646468,-0.00374603,0.00031690,-0.00262501,0.001
 58621,-0.02195957,0.03985136,0.00483326,-0.04842726,-0.01217567,0.0012
 5492,0.00197754,-0.01776139,-0.00222320,0.00230608,-0.01244119,-0.0019
 9880,0.06373260,0.00020876,0.00011814,0.00001438,-0.00020117,0.0001148
 0,-0.00021282,0.00003390,0.00003534,-0.00002872,-0.00000561,0.00001345
 ,0.00001108,-0.00000157,-0.00031867,-0.00019480,-0.00196045,-0.0022073
 3,0.00232827,-0.00206925,0.00139343,0.00009691,0.00904260,-0.00800682,
 -0.00008578,-0.00091285,-0.32354404,-0.02281855,-0.00136624,-0.0072935
 4,0.00005349,-0.00080669,-0.01087213,-0.00233986,-0.00101106,0.3492039
 5,-0.00008802,0.00015637,-0.00017062,0.00006105,-0.00002742,0.00004300
 ,-0.00005833,0.00002165,-0.00003625,0.00002430,0.00000180,-0.00000506,
 -0.00012251,0.00025123,0.00017157,0.00129161,-0.00222831,0.00182229,-0
 .00094542,0.00082485,-0.00095978,0.00031354,-0.00088970,0.00029967,0.0
 0050971,-0.01830706,-0.05527323,-0.00154209,-0.03051402,-0.00350534,-0
 .00029350,0.02769928,0.00373638,0.00270072,0.02394950,0.05624648,-0.00
 007422,0.00004326,-0.00003877,0.00009115,-0.00012336,0.00007742,-0.000
 05094,0.00005904,-0.00005691,0.00003670,0.00001188,-0.00000924,-0.0001
 7680,0.00006301,0.00027564,0.00166805,0.00112599,-0.00090458,-0.000170
 22,-0.00064467,0.00005906,-0.00177763,-0.00202657,-0.00282305,-0.01512
 247,0.00561828,0.00441962,-0.30045065,0.06628368,0.01242593,0.00041052
 ,0.00024204,-0.00026919,0.00019739,-0.00054296,0.00004168,0.32911459,-
 0.00002654,0.00004658,0.00005075,0.00001047,-0.00012060,-0.00006895,-0
 .00003919,0.00001867,-0.00002703,0.00000819,-0.00000102,-0.00000012,-0
 .00005531,0.00006448,0.00023968,0.00013906,0.00015891,-0.00025982,-0.0
 0012803,-0.00032574,-0.00018152,-0.00235421,0.00042432,-0.00186777,-0.
 01026020,0.00178198,0.00102345,0.06709524,-0.06582529,-0.00427633,0.00
 024734,0.00029458,0.00039902,0.00031927,-0.00021082,0.00051515,-0.0736
 2204,0.06760993,-0.00008977,0.00001210,0.00008378,0.00010128,-0.000205
 18,-0.00001398,-0.00009326,0.00002640,-0.00002789,0.00001928,-0.000007
 63,-0.00000029,-0.00014960,0.00002518,0.00030986,0.00039381,0.00195056
 ,-0.00251107,0.00056753,-0.00074281,0.00087525,-0.00712732,-0.00220234
 ,-0.00409155,-0.02673283,0.00844416,0.00299650,0.01460003,-0.00506738,
 -0.05042756,0.00091639,0.00086673,0.00055405,0.00061297,-0.00030359,0.
 00107633,-0.01304040,0.00541012,0.05219182,0.00008677,0.00015745,0.000
 03354,-0.00013909,-0.00002258,-0.00018246,0.00002265,0.00001100,0.0000
 1296,-0.00001448,-0.00000899,-0.00000211,0.00005258,-0.00012622,-0.000
 00909,-0.00082090,-0.00136812,0.00086195,-0.00032110,0.00056507,-0.000
 44524,0.00260618,0.00051904,0.00118001,-0.00105940,-0.01880395,-0.0045
 0516,-0.05028228,0.01874777,0.00344605,0.00027703,0.00066224,0.0007929
 0,-0.00104446,-0.00081547,-0.00293220,-0.00122890,0.03370361,0.0029642
 0,0.05088419,-0.00001101,0.00018654,0.00001310,-0.00005077,-0.00013904
 ,-0.00008073,-0.00002568,0.00006140,-0.00000974,0.00001072,-0.00000922
 ,-0.00001377,-0.00014159,-0.00011411,0.00006347,0.00023703,-0.00063074
 ,0.00013412,-0.00043792,0.00028008,-0.00032247,-0.00047676,0.00150020,
 0.00108619,0.00203279,-0.01071574,-0.00050095,0.01697352,-0.31958159,-
 0.02219779,-0.00016711,0.00072027,-0.00027393,-0.00038626,0.00114159,-
 0.00149406,-0.00095107,-0.00754244,-0.00005755,-0.01883060,0.34800174,
 0.00001482,0.00004257,-0.00004531,-0.00009409,-0.00005751,0.00002632,0
 .00000749,0.00002165,-0.00001003,0.00000272,0.00000217,0.00000114,-0.0
 0000222,-0.00016280,-0.00002712,-0.00021414,0.00009214,0.00015070,0.00
 032271,0.00022209,0.00018756,0.00248159,0.00165357,0.00165058,0.000601
 41,-0.03429936,-0.00523995,0.00169836,-0.01932212,-0.05221218,0.000705
 07,0.00028077,0.00106002,-0.00318710,-0.00073086,-0.00449154,0.0003672
 1,-0.00151668,-0.00064967,0.00036801,0.02626206,0.05626099,0.00005870,
 -0.00013399,0.00009702,-0.00002496,0.00007773,-0.00008909,0.00003605,-
 0.00008798,0.00006879,-0.00004090,-0.00001594,0.00001250,0.00021297,0.
 00004180,-0.00018614,-0.00141090,0.00067577,-0.00088270,-0.00020783,-0
 .00084368,0.00038709,0.00181958,0.00041816,0.00157017,0.00592162,0.007
 14801,-0.01833657,-0.09419088,-0.04733619,0.09132055,-0.00113571,-0.00
 135947,-0.00320399,0.00027215,0.00040807,0.00103945,-0.01246656,-0.015
 03766,0.02705769,0.00098120,0.00222471,-0.00307183,0.10017549,0.000026
 49,-0.00006827,-0.00004801,-0.00001703,-0.00000033,0.00007653,0.000006
 98,-0.00001948,-0.00000919,0.00000326,0.00001474,0.00001467,0.00003283
 ,-0.00006895,0.00004310,0.00003049,0.00128426,-0.00022054,0.00006330,-
 0.00101213,0.00010727,0.00036041,-0.00061325,0.00111224,0.00516275,0.0
 0577100,-0.01167279,-0.04858246,-0.10414838,0.09787065,-0.00168324,-0.
 00004044,-0.00232139,0.00070233,0.00043266,0.00004074,0.00446349,0.003
 62647,-0.00814876,-0.01439025,-0.01315893,0.02751232,0.05382065,0.1080
 0103,0.00005725,-0.00015368,0.00014984,0.00004146,0.00001593,-0.000086
 38,-0.00000177,-0.00005830,0.00005596,-0.00001963,-0.00000740,0.000019
 53,0.00004569,-0.00016567,-0.00023622,-0.00126285,0.00184118,-0.001655
 49,0.00141219,-0.00048185,0.00120458,-0.00036745,-0.00028439,0.0029159
 4,0.01317938,0.01260369,-0.02732669,0.08779238,0.09530977,-0.22705696,
 -0.00318146,-0.00247593,-0.00281761,0.00019554,0.00026137,0.00104609,-
 0.00052443,0.00056005,-0.00036559,-0.00158336,-0.00260794,0.00333848,-
 0.09578295,-0.10435684,0.25081450\\0.00000200,0.00000209,-0.00000088,0
 .00000027,0.00000158,-0.00000002,0.00000208,0.00000203,-0.00000105,-0.
 00000062,0.00000088,-0.00000058,-0.00000294,-0.00000203,0.00000272,-0.
 00000053,0.00000164,0.00000007,-0.00000100,-0.00000097,-0.00000006,0.0
 0000122,0.00000049,-0.00000078,-0.00000052,0.00000013,0.00000044,-0.00
 000020,-0.00000102,-0.00000043,0.00000018,-0.00000030,0.00000012,-0.00
 000048,-0.00000083,-0.00000036,0.00000018,-0.00000163,0.00000006,0.000
 00056,-0.00000082,0.00000038,-0.00000019,-0.00000124,0.00000036\\\@


 We're simply so accustomed to the marvels of everyday thought
 that we never wonder about it.
 -- Marvin Minsky in "Why people think computers are smart"
 Job cpu time:       0 days  0 hours 13 minutes 55.1 seconds.
 Elapsed time:       0 days  0 hours  0 minutes 34.8 seconds.
 File lengths (MBytes):  RWF=     60 Int=      0 D2E=      0 Chk=      3 Scr=      1
 Normal termination of Gaussian 16 at Sun Jun  8 18:57:32 2025.
