 Entering Gaussian System, Link 0=g16
 Initial command:
 /opt/g16/l1.exe "/home/aayush/scratches/g16/Gau-15526.inp" -scrdir="/home/aayush/scratches/g16/"
 Entering Link 1 = /opt/g16/l1.exe PID=     15529.
  
 Copyright (c) 1988,1990,1992,1993,1995,1998,2003,2009,2016,
            Gaussian, Inc.  All Rights Reserved.
  
 This is part of the Gaussian(R) 16 program.  It is based on
 the Gaussian(R) 09 system (copyright 2009, Gaussian, Inc.),
 the Gaussian(R) 03 system (copyright 2003, Gaussian, Inc.),
 the Gaussian(R) 98 system (copyright 1998, Gaussian, Inc.),
 the Gaussian(R) 94 system (copyright 1995, Gaussian, Inc.),
 the Gaussian 92(TM) system (copyright 1992, Gaussian, Inc.),
 the Gaussian 90(TM) system (copyright 1990, Gaussian, Inc.),
 the Gaussian 88(TM) system (copyright 1988, Gaussian, Inc.),
 the Gaussian 86(TM) system (copyright 1986, Carnegie Mellon
 University), and the Gaussian 82(TM) system (copyright 1983,
 Carnegie Mellon University). Gaussian is a federally registered
 trademark of Gaussian, Inc.
  
 This software contains proprietary and confidential information,
 including trade secrets, belonging to Gaussian, Inc.
  
 This software is provided under written license and may be
 used, copied, transmitted, or stored only in accord with that
 written license.
  
 The following legend is applicable only to US Government
 contracts under FAR:
  
                    RESTRICTED RIGHTS LEGEND
  
 Use, reproduction and disclosure by the US Government is
 subject to restrictions as set forth in subparagraphs (a)
 and (c) of the Commercial Computer Software - Restricted
 Rights clause in FAR 52.227-19.
  
 Gaussian, Inc.
 340 Quinnipiac St., Bldg. 40, Wallingford CT 06492
  
  
 ---------------------------------------------------------------
 Warning -- This program may not be used in any manner that
 competes with the business of Gaussian, Inc. or will provide
 assistance to any competitor of Gaussian, Inc.  The licensee
 of this program is prohibited from giving any competitor of
 Gaussian, Inc. access to this program.  By using this program,
 the user acknowledges that Gaussian, Inc. is engaged in the
 business of creating and licensing software in the field of
 computational chemistry and represents and warrants to the
 licensee that it is not a competitor of Gaussian, Inc. and that
 it will not use this program in any manner prohibited above.
 ---------------------------------------------------------------
  

 Cite this work as:
 Gaussian 16, Revision A.03,
 M. J. Frisch, G. W. Trucks, H. B. Schlegel, G. E. Scuseria, 
 M. A. Robb, J. R. Cheeseman, G. Scalmani, V. Barone, 
 G. A. Petersson, H. Nakatsuji, X. Li, M. Caricato, A. V. Marenich, 
 J. Bloino, B. G. Janesko, R. Gomperts, B. Mennucci, H. P. Hratchian, 
 J. V. Ortiz, A. F. Izmaylov, J. L. Sonnenberg, D. Williams-Young, 
 F. Ding, F. Lipparini, F. Egidi, J. Goings, B. Peng, A. Petrone, 
 T. Henderson, D. Ranasinghe, V. G. Zakrzewski, J. Gao, N. Rega, 
 G. Zheng, W. Liang, M. Hada, M. Ehara, K. Toyota, R. Fukuda, 
 J. Hasegawa, M. Ishida, T. Nakajima, Y. Honda, O. Kitao, H. Nakai, 
 T. Vreven, K. Throssell, J. A. Montgomery, Jr., J. E. Peralta, 
 F. Ogliaro, M. J. Bearpark, J. J. Heyd, E. N. Brothers, K. N. Kudin, 
 V. N. Staroverov, T. A. Keith, R. Kobayashi, J. Normand, 
 K. Raghavachari, A. P. Rendell, J. C. Burant, S. S. Iyengar, 
 J. Tomasi, M. Cossi, J. M. Millam, M. Klene, C. Adamo, R. Cammi, 
 J. W. Ochterski, R. L. Martin, K. Morokuma, O. Farkas, 
 J. B. Foresman, and D. J. Fox, Gaussian, Inc., Wallingford CT, 2016.
 
 ******************************************
 Gaussian 16:  ES64L-G16RevA.03 25-Dec-2016
                 8-Jun-2025 
 ******************************************
 %chk=ethyl_propiolate.chk
 %nprocshared=24
 Will use up to   24 processors via shared memory.
 %mem=12GB
 ---------------------------------------------------------
 # opt=(calcfc,tight,noeigentest) freq 6-311++g(d,p) m062x
 ---------------------------------------------------------
 1/7=10,10=4,11=1,18=20,19=15,26=3,38=1/1,3;
 2/9=110,12=2,17=6,18=5,40=1/2;
 3/5=4,6=6,7=1111,11=2,25=1,30=1,71=2,74=-55,140=1/1,2,3;
 4//1;
 5/5=2,38=5/2;
 8/6=4,10=90,11=11/1;
 11/6=1,8=1,9=11,15=111,16=1/1,2,10;
 10/6=1,13=1/2;
 6/7=2,8=2,9=2,10=2,28=1/1;
 7/10=1,18=20,25=1/1,2,3,16;
 1/7=10,10=4,11=1,18=20,19=15,26=3/3(2);
 2/9=110/2;
 99//99;
 2/9=110/2;
 3/5=4,6=6,7=1111,11=2,25=1,30=1,71=1,74=-55/1,2,3;
 4/5=5,16=3,69=1/1;
 5/5=2,38=5/2;
 7//1,2,3,16;
 1/7=10,11=1,18=20,19=15,26=3/3(-5);
 2/9=110/2;
 6/7=2,8=2,9=2,10=2,19=2,28=1/1;
 99/9=1/99;
 -------------------
 Title Card Required
 -------------------
 Symbolic Z-matrix:
 Charge =  0 Multiplicity = 2
 O                     2.87848   0.77672   0.026 
 H                     2.09844   1.32774  -0.22292 
 C                     2.52157  -0.51867   0.2789 
 H                     3.37186  -1.12946   0.54989 
 C                     1.2705   -0.98604   0.20251 
 C                     0.09287  -0.23864  -0.14875 
 O                     0.15755   0.98156  -0.42854 
 O                    -1.05971  -0.93476  -0.15908 
 C                    -2.29791  -0.21205  -0.49705 
 C                    -2.81502   0.54719   0.71132 
 H                    -2.97412  -1.0068   -0.80813 
 H                    -2.08752   0.4543   -1.33643 
 H                    -3.7767    1.01144   0.47342 
 H                    -2.95849  -0.13174   1.55539 
 H                    -2.11619   1.33558   1.0002 
 

 GradGradGradGradGradGradGradGradGradGradGradGradGradGradGradGradGradGrad
 Berny optimization.
 Initialization pass.
                           ----------------------------
                           !    Initial Parameters    !
                           ! (Angstroms and Degrees)  !
 --------------------------                            --------------------------
 ! Name  Definition              Value          Derivative Info.                !
 --------------------------------------------------------------------------------
 ! R1    R(1,2)                  0.9869         calculate D2E/DX2 analytically  !
 ! R2    R(1,3)                  1.3672         calculate D2E/DX2 analytically  !
 ! R3    R(3,4)                  1.0814         calculate D2E/DX2 analytically  !
 ! R4    R(3,5)                  1.3377         calculate D2E/DX2 analytically  !
 ! R5    R(5,6)                  1.4383         calculate D2E/DX2 analytically  !
 ! R6    R(6,7)                  1.2535         calculate D2E/DX2 analytically  !
 ! R7    R(6,8)                  1.3465         calculate D2E/DX2 analytically  !
 ! R8    R(8,9)                  1.473          calculate D2E/DX2 analytically  !
 ! R9    R(9,10)                 1.5179         calculate D2E/DX2 analytically  !
 ! R10   R(9,11)                 1.0889         calculate D2E/DX2 analytically  !
 ! R11   R(9,12)                 1.0922         calculate D2E/DX2 analytically  !
 ! R12   R(10,13)                1.0941         calculate D2E/DX2 analytically  !
 ! R13   R(10,14)                1.0927         calculate D2E/DX2 analytically  !
 ! R14   R(10,15)                1.0924         calculate D2E/DX2 analytically  !
 ! A1    A(2,1,3)              111.6725         calculate D2E/DX2 analytically  !
 ! A2    A(1,3,4)              112.0998         calculate D2E/DX2 analytically  !
 ! A3    A(1,3,5)              124.3742         calculate D2E/DX2 analytically  !
 ! A4    A(4,3,5)              123.526          calculate D2E/DX2 analytically  !
 ! A5    A(3,5,6)              126.7348         calculate D2E/DX2 analytically  !
 ! A6    A(5,6,7)              121.2031         calculate D2E/DX2 analytically  !
 ! A7    A(5,6,8)              115.7249         calculate D2E/DX2 analytically  !
 ! A8    A(7,6,8)              123.0716         calculate D2E/DX2 analytically  !
 ! A9    A(6,8,9)              117.8809         calculate D2E/DX2 analytically  !
 ! A10   A(8,9,10)             110.4343         calculate D2E/DX2 analytically  !
 ! A11   A(8,9,11)             103.2655         calculate D2E/DX2 analytically  !
 ! A12   A(8,9,12)             108.2855         calculate D2E/DX2 analytically  !
 ! A13   A(10,9,11)            112.3926         calculate D2E/DX2 analytically  !
 ! A14   A(10,9,12)            111.856          calculate D2E/DX2 analytically  !
 ! A15   A(11,9,12)            110.2049         calculate D2E/DX2 analytically  !
 ! A16   A(9,10,13)            109.7914         calculate D2E/DX2 analytically  !
 ! A17   A(9,10,14)            110.4195         calculate D2E/DX2 analytically  !
 ! A18   A(9,10,15)            110.7061         calculate D2E/DX2 analytically  !
 ! A19   A(13,10,14)           108.4341         calculate D2E/DX2 analytically  !
 ! A20   A(13,10,15)           108.2743         calculate D2E/DX2 analytically  !
 ! A21   A(14,10,15)           109.1556         calculate D2E/DX2 analytically  !
 ! D1    D(2,1,3,4)            179.8479         calculate D2E/DX2 analytically  !
 ! D2    D(2,1,3,5)             -0.1295         calculate D2E/DX2 analytically  !
 ! D3    D(1,3,5,6)             -0.0631         calculate D2E/DX2 analytically  !
 ! D4    D(4,3,5,6)            179.9621         calculate D2E/DX2 analytically  !
 ! D5    D(3,5,6,7)              0.1203         calculate D2E/DX2 analytically  !
 ! D6    D(3,5,6,8)            179.8894         calculate D2E/DX2 analytically  !
 ! D7    D(5,6,8,9)            179.2954         calculate D2E/DX2 analytically  !
 ! D8    D(7,6,8,9)             -0.9403         calculate D2E/DX2 analytically  !
 ! D9    D(6,8,9,10)           -80.5243         calculate D2E/DX2 analytically  !
 ! D10   D(6,8,9,11)           159.1102         calculate D2E/DX2 analytically  !
 ! D11   D(6,8,9,12)            42.2626         calculate D2E/DX2 analytically  !
 ! D12   D(8,9,10,13)         -175.3163         calculate D2E/DX2 analytically  !
 ! D13   D(8,9,10,14)          -55.8069         calculate D2E/DX2 analytically  !
 ! D14   D(8,9,10,15)           65.1929         calculate D2E/DX2 analytically  !
 ! D15   D(11,9,10,13)         -60.5857         calculate D2E/DX2 analytically  !
 ! D16   D(11,9,10,14)          58.9237         calculate D2E/DX2 analytically  !
 ! D17   D(11,9,10,15)         179.9235         calculate D2E/DX2 analytically  !
 ! D18   D(12,9,10,13)          64.0069         calculate D2E/DX2 analytically  !
 ! D19   D(12,9,10,14)        -176.4837         calculate D2E/DX2 analytically  !
 ! D20   D(12,9,10,15)         -55.4839         calculate D2E/DX2 analytically  !
 --------------------------------------------------------------------------------
 Trust Radius=3.00D-01 FncErr=1.00D-07 GrdErr=1.00D-06 EigMax=2.50D+02 EigMin=1.00D-04
 Number of steps in this run=     65 maximum allowed number of steps=    100.
 GradGradGradGradGradGradGradGradGradGradGradGradGradGradGradGradGradGrad

                          Input orientation:                          
 ---------------------------------------------------------------------
 Center     Atomic      Atomic             Coordinates (Angstroms)
 Number     Number       Type             X           Y           Z
 ---------------------------------------------------------------------
      1          8           0        2.878479    0.776721    0.025998
      2          1           0        2.098439    1.327736   -0.222924
      3          6           0        2.521573   -0.518665    0.278903
      4          1           0        3.371859   -1.129458    0.549885
      5          6           0        1.270504   -0.986043    0.202513
      6          6           0        0.092871   -0.238636   -0.148752
      7          8           0        0.157554    0.981558   -0.428540
      8          8           0       -1.059709   -0.934764   -0.159083
      9          6           0       -2.297912   -0.212049   -0.497052
     10          6           0       -2.815016    0.547194    0.711319
     11          1           0       -2.974115   -1.006797   -0.808128
     12          1           0       -2.087518    0.454295   -1.336428
     13          1           0       -3.776695    1.011445    0.473417
     14          1           0       -2.958490   -0.131736    1.555391
     15          1           0       -2.116189    1.335583    1.000200
 ---------------------------------------------------------------------
                    Distance matrix (angstroms):
                    1          2          3          4          5
     1  O    0.000000
     2  H    0.986936   0.000000
     3  C    1.367248   1.959609   0.000000
     4  H    2.037498   2.873436   1.081428   0.000000
     5  C    2.392505   2.494002   1.337704   2.134696   0.000000
     6  C    2.970034   2.545845   2.481914   3.468922   1.438341
     7  O    2.766224   1.982209   2.887859   3.968055   2.346985
     8  O    4.297995   3.885470   3.631880   4.492142   2.358659
     9  C    5.295873   4.666260   4.891171   5.838152   3.717802
    10  C    5.739184   5.062025   5.459141   6.412070   4.393310
    11  H    6.174914   5.614563   5.623388   6.490811   4.363326
    12  H    5.159582   4.418713   4.979926   5.989261   3.964748
    13  H    6.674325   5.924705   6.484385   7.462649   5.434847
    14  H    6.102011   5.555627   5.640056   6.486895   4.521561
    15  H    5.119385   4.388529   5.046518   6.033066   4.182815
                    6          7          8          9         10
     6  C    0.000000
     7  O    1.253530   0.000000
     8  O    1.346529   2.286182   0.000000
     9  C    2.416167   2.731063   1.472986   0.000000
    10  C    3.132580   3.213117   2.456604   1.517896   0.000000
    11  H    3.229745   3.728940   2.022721   1.088872   2.179202
    12  H    2.577756   2.478430   2.090937   1.092168   2.175121
    13  H    4.113798   4.036426   3.401441   2.150708   1.094053
    14  H    3.496618   3.858126   2.681351   2.157623   1.092698
    15  H    2.945879   2.708605   2.759450   2.161007   1.092414
                   11         12         13         14         15
    11  H    0.000000
    12  H    1.788839   0.000000
    13  H    2.521863   2.537572   0.000000
    14  H    2.520357   3.076466   1.773976   0.000000
    15  H    3.081044   2.497463   1.771961   1.780655   0.000000
 Stoichiometry    C5H7O3(2)
 Framework group  C1[X(C5H7O3)]
 Deg. of freedom    39
 Full point group                 C1      NOp   1
 Largest Abelian subgroup         C1      NOp   1
 Largest concise Abelian subgroup C1      NOp   1
                         Standard orientation:                         
 ---------------------------------------------------------------------
 Center     Atomic      Atomic             Coordinates (Angstroms)
 Number     Number       Type             X           Y           Z
 ---------------------------------------------------------------------
      1          8           0        2.878479    0.776721    0.025998
      2          1           0        2.098439    1.327736   -0.222924
      3          6           0        2.521573   -0.518665    0.278903
      4          1           0        3.371859   -1.129458    0.549885
      5          6           0        1.270504   -0.986043    0.202513
      6          6           0        0.092871   -0.238636   -0.148752
      7          8           0        0.157554    0.981558   -0.428540
      8          8           0       -1.059709   -0.934764   -0.159083
      9          6           0       -2.297912   -0.212049   -0.497052
     10          6           0       -2.815016    0.547194    0.711319
     11          1           0       -2.974115   -1.006797   -0.808128
     12          1           0       -2.087518    0.454295   -1.336428
     13          1           0       -3.776695    1.011445    0.473417
     14          1           0       -2.958490   -0.131736    1.555391
     15          1           0       -2.116189    1.335583    1.000200
 ---------------------------------------------------------------------
 Rotational constants (GHZ):           5.8540893           1.0484470           0.9584178
 Standard basis: 6-311++G(d,p) (5D, 7F)
 There are   233 symmetry adapted cartesian basis functions of A   symmetry.
 There are   225 symmetry adapted basis functions of A   symmetry.
   225 basis functions,   351 primitive gaussians,   233 cartesian basis functions
    31 alpha electrons       30 beta electrons
       nuclear repulsion energy       360.6311722732 Hartrees.
 NAtoms=   15 NActive=   15 NUniq=   15 SFac= 1.00D+00 NAtFMM=   60 NAOKFM=F Big=F
 Integral buffers will be    131072 words long.
 Raffenetti 2 integral format.
 Two-electron integral symmetry is turned on.
 One-electron integrals computed using PRISM.
 NBasis=   225 RedAO= T EigKep=  1.65D-05  NBF=   225
 NBsUse=   225 1.00D-06 EigRej= -1.00D+00 NBFU=   225
 ExpMin= 3.60D-02 ExpMax= 8.59D+03 ExpMxC= 1.30D+03 IAcc=3 IRadAn=         5 AccDes= 0.00D+00
 Harris functional with IExCor= 1009 and IRadAn=       5 diagonalized for initial guess.
 HarFok:  IExCor= 1009 AccDes= 0.00D+00 IRadAn=         5 IDoV= 1 UseB2=F ITyADJ=14
 ICtDFT=  3500011 ScaDFX=  1.000000  1.000000  1.000000  1.000000
 FoFCou: FMM=F IPFlag=           0 FMFlag=      100000 FMFlg1=           0
         NFxFlg=           0 DoJE=T BraDBF=F KetDBF=T FulRan=T
         wScrn=  0.000000 ICntrl=       500 IOpCl=  0 I1Cent=   200000004 NGrid=           0
         NMat0=    1 NMatS0=      1 NMatT0=    0 NMatD0=    1 NMtDS0=    0 NMtDT0=    0
 Petite list used in FoFCou.
 Initial guess <Sx>= 0.0000 <Sy>= 0.0000 <Sz>= 0.5000 <S**2>= 0.7500 S= 0.5000
 Requested convergence on RMS density matrix=1.00D-08 within 128 cycles.
 Requested convergence on MAX density matrix=1.00D-06.
 Requested convergence on             energy=1.00D-06.
 No special actions if energy rises.
 SCF Done:  E(UM062X) =  -420.277721587     A.U. after   19 cycles
            NFock= 19  Conv=0.42D-08     -V/T= 2.0042
 <Sx>= 0.0000 <Sy>= 0.0000 <Sz>= 0.5000 <S**2>= 0.7653 S= 0.5076
 <L.S>=  0.00000000000    
 Annihilation of the first spin contaminant:
 S**2 before annihilation     0.7653,   after     0.7501
 DoSCS=F DFT=T ScalE2(SS,OS)=  1.000000  1.000000
 Range of M.O.s used for correlation:     1   225
 NBasis=   225 NAE=    31 NBE=    30 NFC=     0 NFV=     0
 NROrb=    225 NOA=    31 NOB=    30 NVA=   194 NVB=   195

 **** Warning!!: The largest alpha MO coefficient is  0.71832740D+02


 **** Warning!!: The largest beta MO coefficient is  0.80311509D+02

 Symmetrizing basis deriv contribution to polar:
 IMax=3 JMax=2 DiffMx= 0.00D+00
 G2DrvN: will do    16 centers at a time, making    1 passes.
 Calling FoFCou, ICntrl=  3107 FMM=F I1Cent=   0 AccDes= 0.00D+00.
 End of G2Drv F.D. properties file   721 does not exist.
 End of G2Drv F.D. properties file   722 does not exist.
 End of G2Drv F.D. properties file   788 does not exist.
          IDoAtm=111111111111111
          Differentiating once with respect to nuclear coordinates.
 Keep R1 and R2 ints in memory in canonical form, NReq=671901991.
          There are    48 degrees of freedom in the 1st order CPHF.  IDoFFX=6 NUNeed=     0.
     42 vectors produced by pass  0 Test12= 2.47D-14 2.08D-09 XBig12= 2.34D-01 9.87D-02.
 AX will form    42 AO Fock derivatives at one time.
     42 vectors produced by pass  1 Test12= 2.47D-14 2.08D-09 XBig12= 1.69D-02 2.46D-02.
     42 vectors produced by pass  2 Test12= 2.47D-14 2.08D-09 XBig12= 7.80D-04 1.07D-02.
     42 vectors produced by pass  3 Test12= 2.47D-14 2.08D-09 XBig12= 1.75D-05 8.78D-04.
     42 vectors produced by pass  4 Test12= 2.47D-14 2.08D-09 XBig12= 2.63D-07 9.85D-05.
     42 vectors produced by pass  5 Test12= 2.47D-14 2.08D-09 XBig12= 3.95D-09 5.60D-06.
     38 vectors produced by pass  6 Test12= 2.47D-14 2.08D-09 XBig12= 3.52D-11 5.83D-07.
     22 vectors produced by pass  7 Test12= 2.47D-14 2.08D-09 XBig12= 2.75D-13 4.51D-08.
      3 vectors produced by pass  8 Test12= 2.47D-14 2.08D-09 XBig12= 2.18D-15 3.31D-09.
 InvSVY:  IOpt=1 It=  1 EMax= 1.78D-15
 Solved reduced A of dimension   315 with    42 vectors.
 End of Minotr F.D. properties file   721 does not exist.
 End of Minotr F.D. properties file   722 does not exist.
 End of Minotr F.D. properties file   788 does not exist.

 **********************************************************************

            Population analysis using the SCF density.

 **********************************************************************

 Orbital symmetries:
 Alpha Orbitals:
       Occupied  (A) (A) (A) (A) (A) (A) (A) (A) (A) (A) (A) (A)
                 (A) (A) (A) (A) (A) (A) (A) (A) (A) (A) (A) (A)
                 (A) (A) (A) (A) (A) (A) (A)
       Virtual   (A) (A) (A) (A) (A) (A) (A) (A) (A) (A) (A) (A)
                 (A) (A) (A) (A) (A) (A) (A) (A) (A) (A) (A) (A)
                 (A) (A) (A) (A) (A) (A) (A) (A) (A) (A) (A) (A)
                 (A) (A) (A) (A) (A) (A) (A) (A) (A) (A) (A) (A)
                 (A) (A) (A) (A) (A) (A) (A) (A) (A) (A) (A) (A)
                 (A) (A) (A) (A) (A) (A) (A) (A) (A) (A) (A) (A)
                 (A) (A) (A) (A) (A) (A) (A) (A) (A) (A) (A) (A)
                 (A) (A) (A) (A) (A) (A) (A) (A) (A) (A) (A) (A)
                 (A) (A) (A) (A) (A) (A) (A) (A) (A) (A) (A) (A)
                 (A) (A) (A) (A) (A) (A) (A) (A) (A) (A) (A) (A)
                 (A) (A) (A) (A) (A) (A) (A) (A) (A) (A) (A) (A)
                 (A) (A) (A) (A) (A) (A) (A) (A) (A) (A) (A) (A)
                 (A) (A) (A) (A) (A) (A) (A) (A) (A) (A) (A) (A)
                 (A) (A) (A) (A) (A) (A) (A) (A) (A) (A) (A) (A)
                 (A) (A) (A) (A) (A) (A) (A) (A) (A) (A) (A) (A)
                 (A) (A) (A) (A) (A) (A) (A) (A) (A) (A) (A) (A)
                 (A) (A)
 Beta  Orbitals:
       Occupied  (A) (A) (A) (A) (A) (A) (A) (A) (A) (A) (A) (A)
                 (A) (A) (A) (A) (A) (A) (A) (A) (A) (A) (A) (A)
                 (A) (A) (A) (A) (A) (A)
       Virtual   (A) (A) (A) (A) (A) (A) (A) (A) (A) (A) (A) (A)
                 (A) (A) (A) (A) (A) (A) (A) (A) (A) (A) (A) (A)
                 (A) (A) (A) (A) (A) (A) (A) (A) (A) (A) (A) (A)
                 (A) (A) (A) (A) (A) (A) (A) (A) (A) (A) (A) (A)
                 (A) (A) (A) (A) (A) (A) (A) (A) (A) (A) (A) (A)
                 (A) (A) (A) (A) (A) (A) (A) (A) (A) (A) (A) (A)
                 (A) (A) (A) (A) (A) (A) (A) (A) (A) (A) (A) (A)
                 (A) (A) (A) (A) (A) (A) (A) (A) (A) (A) (A) (A)
                 (A) (A) (A) (A) (A) (A) (A) (A) (A) (A) (A) (A)
                 (A) (A) (A) (A) (A) (A) (A) (A) (A) (A) (A) (A)
                 (A) (A) (A) (A) (A) (A) (A) (A) (A) (A) (A) (A)
                 (A) (A) (A) (A) (A) (A) (A) (A) (A) (A) (A) (A)
                 (A) (A) (A) (A) (A) (A) (A) (A) (A) (A) (A) (A)
                 (A) (A) (A) (A) (A) (A) (A) (A) (A) (A) (A) (A)
                 (A) (A) (A) (A) (A) (A) (A) (A) (A) (A) (A) (A)
                 (A) (A) (A) (A) (A) (A) (A) (A) (A) (A) (A) (A)
                 (A) (A) (A)
 The electronic state is 2-A.
 Alpha  occ. eigenvalues --  -19.68166 -19.66952 -19.63142 -10.70184 -10.64044
 Alpha  occ. eigenvalues --  -10.60985 -10.58264 -10.54053  -1.23734  -1.19474
 Alpha  occ. eigenvalues --   -1.14258  -0.90715  -0.87187  -0.77878  -0.72830
 Alpha  occ. eigenvalues --   -0.66475  -0.62166  -0.58539  -0.56449  -0.55565
 Alpha  occ. eigenvalues --   -0.53314  -0.50005  -0.49166  -0.47872  -0.46028
 Alpha  occ. eigenvalues --   -0.44881  -0.42148  -0.39684  -0.38526  -0.33582
 Alpha  occ. eigenvalues --   -0.33105
 Alpha virt. eigenvalues --   -0.02115  -0.00155   0.00922   0.01707   0.01988
 Alpha virt. eigenvalues --    0.02939   0.04247   0.05377   0.06078   0.06909
 Alpha virt. eigenvalues --    0.07299   0.08044   0.08702   0.09378   0.10623
 Alpha virt. eigenvalues --    0.11359   0.11982   0.12930   0.13195   0.13399
 Alpha virt. eigenvalues --    0.13425   0.14575   0.14700   0.15091   0.15759
 Alpha virt. eigenvalues --    0.16655   0.17485   0.18804   0.19892   0.20225
 Alpha virt. eigenvalues --    0.21312   0.23063   0.23658   0.24632   0.25685
 Alpha virt. eigenvalues --    0.26379   0.28136   0.28666   0.29403   0.29580
 Alpha virt. eigenvalues --    0.30815   0.31432   0.32119   0.33195   0.34347
 Alpha virt. eigenvalues --    0.34589   0.35079   0.36768   0.38112   0.38816
 Alpha virt. eigenvalues --    0.40660   0.43312   0.45737   0.46994   0.47935
 Alpha virt. eigenvalues --    0.49940   0.51616   0.53328   0.56020   0.57882
 Alpha virt. eigenvalues --    0.59503   0.60593   0.62570   0.63926   0.64253
 Alpha virt. eigenvalues --    0.64591   0.66310   0.68737   0.70491   0.72264
 Alpha virt. eigenvalues --    0.72509   0.74228   0.75504   0.77504   0.78758
 Alpha virt. eigenvalues --    0.84100   0.85446   0.91426   0.93756   0.96715
 Alpha virt. eigenvalues --    0.98823   1.00972   1.06869   1.09002   1.09969
 Alpha virt. eigenvalues --    1.11062   1.13316   1.14690   1.17227   1.21272
 Alpha virt. eigenvalues --    1.22347   1.23711   1.26384   1.29339   1.30815
 Alpha virt. eigenvalues --    1.31085   1.37181   1.39963   1.45067   1.47679
 Alpha virt. eigenvalues --    1.51060   1.51346   1.51900   1.56826   1.58784
 Alpha virt. eigenvalues --    1.59462   1.60698   1.61892   1.64337   1.67779
 Alpha virt. eigenvalues --    1.68539   1.69833   1.70571   1.72202   1.75325
 Alpha virt. eigenvalues --    1.77516   1.82277   1.84850   1.85992   1.90422
 Alpha virt. eigenvalues --    1.95029   1.95884   1.97644   1.99401   2.06153
 Alpha virt. eigenvalues --    2.06910   2.08798   2.12947   2.18355   2.23079
 Alpha virt. eigenvalues --    2.30527   2.33646   2.39330   2.42728   2.50528
 Alpha virt. eigenvalues --    2.53451   2.54320   2.60634   2.60922   2.61940
 Alpha virt. eigenvalues --    2.64000   2.65789   2.66982   2.68370   2.73039
 Alpha virt. eigenvalues --    2.74900   2.76559   2.80843   2.88316   2.89574
 Alpha virt. eigenvalues --    2.92458   2.96196   2.97083   3.02084   3.08052
 Alpha virt. eigenvalues --    3.11123   3.13367   3.14102   3.22279   3.23499
 Alpha virt. eigenvalues --    3.26740   3.28462   3.31292   3.38151   3.49958
 Alpha virt. eigenvalues --    3.57825   3.68736   3.78171   3.83987   3.85619
 Alpha virt. eigenvalues --    3.87430   3.89566   3.97107   4.03274   4.14639
 Alpha virt. eigenvalues --    4.25243   4.34991   5.08374   5.13573   5.16209
 Alpha virt. eigenvalues --    5.36804   5.39869   5.47050   5.69191   5.79558
 Alpha virt. eigenvalues --    5.94464  23.66673  23.89612  23.91996  24.04511
 Alpha virt. eigenvalues --   24.23213  49.97850  49.99857  50.07647
  Beta  occ. eigenvalues --  -19.68158 -19.66901 -19.62972 -10.70170 -10.64085
  Beta  occ. eigenvalues --  -10.60984 -10.57257 -10.54052  -1.23556  -1.19194
  Beta  occ. eigenvalues --   -1.13821  -0.89288  -0.86171  -0.77555  -0.72309
  Beta  occ. eigenvalues --   -0.66107  -0.61602  -0.57916  -0.55746  -0.55172
  Beta  occ. eigenvalues --   -0.52757  -0.49795  -0.48329  -0.47489  -0.45959
  Beta  occ. eigenvalues --   -0.44770  -0.41968  -0.38414  -0.37357  -0.31272
  Beta virt. eigenvalues --   -0.07789  -0.02057  -0.00160   0.00985   0.01683
  Beta virt. eigenvalues --    0.02177   0.02953   0.04515   0.05427   0.06155
  Beta virt. eigenvalues --    0.07074   0.07223   0.08092   0.08688   0.09314
  Beta virt. eigenvalues --    0.10130   0.11173   0.12002   0.12941   0.13026
  Beta virt. eigenvalues --    0.13393   0.13546   0.14507   0.14702   0.15150
  Beta virt. eigenvalues --    0.16000   0.16862   0.17521   0.18576   0.19861
  Beta virt. eigenvalues --    0.20226   0.21329   0.23037   0.24128   0.24700
  Beta virt. eigenvalues --    0.25704   0.26261   0.28154   0.29017   0.29397
  Beta virt. eigenvalues --    0.29781   0.30722   0.31094   0.32066   0.33120
  Beta virt. eigenvalues --    0.34311   0.34594   0.35115   0.36972   0.37654
  Beta virt. eigenvalues --    0.38969   0.40655   0.43043   0.45456   0.47238
  Beta virt. eigenvalues --    0.47698   0.49554   0.51702   0.53363   0.56011
  Beta virt. eigenvalues --    0.56666   0.58962   0.60583   0.61861   0.64009
  Beta virt. eigenvalues --    0.64448   0.65394   0.66032   0.68737   0.70580
  Beta virt. eigenvalues --    0.72320   0.72529   0.74278   0.75586   0.77545
  Beta virt. eigenvalues --    0.78552   0.83865   0.85188   0.92287   0.93743
  Beta virt. eigenvalues --    0.96824   0.98911   1.01096   1.06875   1.09216
  Beta virt. eigenvalues --    1.09773   1.12122   1.13574   1.15162   1.17344
  Beta virt. eigenvalues --    1.21104   1.22488   1.23748   1.26326   1.29908
  Beta virt. eigenvalues --    1.30241   1.31223   1.37533   1.39967   1.46472
  Beta virt. eigenvalues --    1.48219   1.51082   1.52034   1.52438   1.56913
  Beta virt. eigenvalues --    1.58861   1.60023   1.60724   1.61985   1.65186
  Beta virt. eigenvalues --    1.68368   1.68650   1.70027   1.70758   1.72244
  Beta virt. eigenvalues --    1.75528   1.77990   1.82852   1.84809   1.86051
  Beta virt. eigenvalues --    1.90567   1.95705   1.96353   1.98265   2.00077
  Beta virt. eigenvalues --    2.06565   2.07473   2.09287   2.12997   2.18538
  Beta virt. eigenvalues --    2.23276   2.30701   2.33979   2.40466   2.43626
  Beta virt. eigenvalues --    2.50539   2.53484   2.54407   2.60710   2.61097
  Beta virt. eigenvalues --    2.61989   2.64044   2.65827   2.67018   2.68472
  Beta virt. eigenvalues --    2.73277   2.75375   2.76396   2.80862   2.88863
  Beta virt. eigenvalues --    2.89602   2.92593   2.97442   2.98809   3.02608
  Beta virt. eigenvalues --    3.08036   3.11139   3.13406   3.14160   3.22184
  Beta virt. eigenvalues --    3.23630   3.27304   3.29101   3.31437   3.38284
  Beta virt. eigenvalues --    3.50182   3.58206   3.69287   3.78359   3.83996
  Beta virt. eigenvalues --    3.85624   3.87447   3.89632   3.97124   4.03319
  Beta virt. eigenvalues --    4.14782   4.25322   4.35909   5.08285   5.13665
  Beta virt. eigenvalues --    5.16371   5.37260   5.40074   5.47212   5.69347
  Beta virt. eigenvalues --    5.79833   5.94531  23.67002  23.89786  23.91997
  Beta virt. eigenvalues --   24.04511  24.23852  49.97753  49.99837  50.07501
          Condensed to atoms (all electrons):
               1          2          3          4          5          6
     1  O    7.894211   0.270837   0.163970  -0.071494  -0.025241   0.006458
     2  H    0.270837   0.393806   0.050873   0.012772  -0.057840  -0.035441
     3  C    0.163970   0.050873   6.200938   0.454903  -0.328697  -0.189766
     4  H   -0.071494   0.012772   0.454903   0.489689  -0.063338  -0.039626
     5  C   -0.025241  -0.057840  -0.328697  -0.063338   7.307629  -0.719910
     6  C    0.006458  -0.035441  -0.189766  -0.039626  -0.719910   6.806148
     7  O   -0.014783   0.054501   0.027895  -0.002161  -0.118415   0.405692
     8  O   -0.008035   0.006160   0.072341  -0.000248  -0.423899   0.211504
     9  C    0.002396  -0.000284  -0.005453  -0.001435  -0.084919  -0.035441
    10  C   -0.003491   0.001862  -0.000011   0.000093  -0.046837  -0.046308
    11  H    0.000388  -0.000046   0.001450  -0.000001   0.005022   0.009800
    12  H   -0.000960  -0.000211  -0.000083  -0.000152  -0.023482  -0.012266
    13  H   -0.000154   0.000089   0.000109   0.000036   0.005492  -0.005761
    14  H    0.000118  -0.000023  -0.001908  -0.000021   0.002384   0.002551
    15  H    0.000538  -0.000455  -0.001839  -0.000376  -0.033646   0.010129
               7          8          9         10         11         12
     1  O   -0.014783  -0.008035   0.002396  -0.003491   0.000388  -0.000960
     2  H    0.054501   0.006160  -0.000284   0.001862  -0.000046  -0.000211
     3  C    0.027895   0.072341  -0.005453  -0.000011   0.001450  -0.000083
     4  H   -0.002161  -0.000248  -0.001435   0.000093  -0.000001  -0.000152
     5  C   -0.118415  -0.423899  -0.084919  -0.046837   0.005022  -0.023482
     6  C    0.405692   0.211504  -0.035441  -0.046308   0.009800  -0.012266
     7  O    8.152353  -0.158976   0.079417  -0.086539   0.007212  -0.022992
     8  O   -0.158976   8.320903   0.129571  -0.034336  -0.094685   0.005686
     9  C    0.079417   0.129571   5.410541  -0.013049   0.447832   0.409356
    10  C   -0.086539  -0.034336  -0.013049   5.519516  -0.065506  -0.018631
    11  H    0.007212  -0.094685   0.447832  -0.065506   0.529441  -0.036737
    12  H   -0.022992   0.005686   0.409356  -0.018631  -0.036737   0.508681
    13  H   -0.001778   0.016184  -0.050915   0.403324  -0.000346  -0.005263
    14  H    0.001170  -0.006255  -0.028024   0.409855  -0.010320   0.004204
    15  H    0.008731  -0.015871   0.001494   0.383785   0.010257  -0.009077
              13         14         15
     1  O   -0.000154   0.000118   0.000538
     2  H    0.000089  -0.000023  -0.000455
     3  C    0.000109  -0.001908  -0.001839
     4  H    0.000036  -0.000021  -0.000376
     5  C    0.005492   0.002384  -0.033646
     6  C   -0.005761   0.002551   0.010129
     7  O   -0.001778   0.001170   0.008731
     8  O    0.016184  -0.006255  -0.015871
     9  C   -0.050915  -0.028024   0.001494
    10  C    0.403324   0.409855   0.383785
    11  H   -0.000346  -0.010320   0.010257
    12  H   -0.005263   0.004204  -0.009077
    13  H    0.544461  -0.034777  -0.031930
    14  H   -0.034777   0.539062  -0.047131
    15  H   -0.031930  -0.047131   0.540932
          Atomic-Atomic Spin Densities.
               1          2          3          4          5          6
     1  O    0.046769  -0.000224   0.000978  -0.011542  -0.052330   0.016853
     2  H   -0.000224  -0.000702   0.002481  -0.000226   0.003779  -0.002196
     3  C    0.000978   0.002481  -0.104655   0.027631   0.007092   0.035350
     4  H   -0.011542  -0.000226   0.027631   0.023366  -0.007233  -0.011227
     5  C   -0.052330   0.003779   0.007092  -0.007233   0.978204   0.018586
     6  C    0.016853  -0.002196   0.035350  -0.011227   0.018586  -0.019893
     7  O    0.017278  -0.002250  -0.011922  -0.002098  -0.058952  -0.001011
     8  O   -0.001117  -0.000351  -0.006803  -0.000082   0.021552   0.023395
     9  C   -0.000370   0.000236  -0.002306   0.000063  -0.005056  -0.011100
    10  C    0.000706  -0.000144  -0.001884  -0.000246   0.001614   0.007784
    11  H    0.000021   0.000012   0.000239   0.000010  -0.001276  -0.000994
    12  H    0.000088  -0.000063  -0.000123  -0.000040   0.001403   0.002362
    13  H   -0.000029  -0.000014  -0.000163   0.000001   0.000766  -0.001369
    14  H   -0.000013  -0.000008   0.000170   0.000010   0.000613   0.000219
    15  H    0.000067  -0.000009   0.000251  -0.000018  -0.000692   0.000403
               7          8          9         10         11         12
     1  O    0.017278  -0.001117  -0.000370   0.000706   0.000021   0.000088
     2  H   -0.002250  -0.000351   0.000236  -0.000144   0.000012  -0.000063
     3  C   -0.011922  -0.006803  -0.002306  -0.001884   0.000239  -0.000123
     4  H   -0.002098  -0.000082   0.000063  -0.000246   0.000010  -0.000040
     5  C   -0.058952   0.021552  -0.005056   0.001614  -0.001276   0.001403
     6  C   -0.001011   0.023395  -0.011100   0.007784  -0.000994   0.002362
     7  O    0.122891  -0.005213  -0.004312   0.001677   0.000053   0.001098
     8  O   -0.005213  -0.029273   0.011351  -0.010642   0.000658  -0.001702
     9  C   -0.004312   0.011351  -0.005353   0.005774   0.000076   0.001134
    10  C    0.001677  -0.010642   0.005774  -0.000337   0.000998  -0.002821
    11  H    0.000053   0.000658   0.000076   0.000998   0.000046   0.000268
    12  H    0.001098  -0.001702   0.001134  -0.002821   0.000268  -0.000481
    13  H   -0.000204  -0.000133   0.000076   0.000363   0.000099  -0.000197
    14  H    0.000044   0.000070   0.000102  -0.000862  -0.000151   0.000049
    15  H    0.000229  -0.000068  -0.000480   0.000564  -0.000021   0.000208
              13         14         15
     1  O   -0.000029  -0.000013   0.000067
     2  H   -0.000014  -0.000008  -0.000009
     3  C   -0.000163   0.000170   0.000251
     4  H    0.000001   0.000010  -0.000018
     5  C    0.000766   0.000613  -0.000692
     6  C   -0.001369   0.000219   0.000403
     7  O   -0.000204   0.000044   0.000229
     8  O   -0.000133   0.000070  -0.000068
     9  C    0.000076   0.000102  -0.000480
    10  C    0.000363  -0.000862   0.000564
    11  H    0.000099  -0.000151  -0.000021
    12  H   -0.000197   0.000049   0.000208
    13  H    0.001513  -0.000345  -0.000152
    14  H   -0.000345   0.000275  -0.000153
    15  H   -0.000152  -0.000153  -0.000301
 Mulliken charges and spin densities:
               1          2
     1  O   -0.214759   0.017134
     2  H    0.303402   0.000321
     3  C   -0.444723  -0.053664
     4  H    0.221357   0.018368
     5  C    0.605697   0.908070
     6  C   -0.367761   0.057162
     7  O   -0.331326   0.057309
     8  O   -0.020045   0.001642
     9  C   -0.261085  -0.010165
    10  C   -0.403728   0.002542
    11  H    0.196239   0.000039
    12  H    0.201927   0.001183
    13  H    0.161230   0.000212
    14  H    0.169117   0.000019
    15  H    0.184459  -0.000172
 Sum of Mulliken charges =  -0.00000   1.00000
 Mulliken charges and spin densities with hydrogens summed into heavy atoms:
               1          2
     1  O    0.088643   0.017456
     3  C   -0.223366  -0.035295
     5  C    0.605697   0.908070
     6  C   -0.367761   0.057162
     7  O   -0.331326   0.057309
     8  O   -0.020045   0.001642
     9  C    0.137081  -0.008944
    10  C    0.111078   0.002602
 APT charges:
               1
     1  O   -0.187893
     2  H    0.230263
     3  C   -0.212580
     4  H    0.776883
     5  C    0.002747
     6  C   -0.489050
     7  O   -0.370345
     8  O    0.108913
     9  C   -0.777089
    10  C   -1.259883
    11  H    0.609640
    12  H    0.314437
    13  H    0.678934
    14  H    0.397274
    15  H    0.177750
 Sum of APT charges =  -0.00000
 APT charges with hydrogens summed into heavy atoms:
               1
     1  O    0.042369
     3  C    0.564303
     5  C    0.002747
     6  C   -0.489050
     7  O   -0.370345
     8  O    0.108913
     9  C    0.146988
    10  C   -0.005925
 Electronic spatial extent (au):  <R**2>=           1206.6400
 Charge=              0.0000 electrons
 Dipole moment (field-independent basis, Debye):
    X=             -1.6089    Y=             -0.6910    Z=              0.1644  Tot=              1.7587
 Quadrupole moment (field-independent basis, Debye-Ang):
   XX=            -41.1686   YY=            -49.8966   ZZ=            -47.7575
   XY=             -3.9621   XZ=              1.7415   YZ=              0.1044
 Traceless Quadrupole moment (field-independent basis, Debye-Ang):
   XX=              5.1056   YY=             -3.6224   ZZ=             -1.4832
   XY=             -3.9621   XZ=              1.7415   YZ=              0.1044
 Octapole moment (field-independent basis, Debye-Ang**2):
  XXX=            -20.0585  YYY=              9.7470  ZZZ=             -3.7909  XYY=              4.5230
  XXY=            -13.4145  XXZ=              0.1660  XZZ=             -1.7574  YZZ=              1.7818
  YYZ=             -0.2248  XYZ=             -3.3493
 Hexadecapole moment (field-independent basis, Debye-Ang**3):
 XXXX=          -1214.4602 YYYY=           -215.1460 ZZZZ=           -112.2877 XXXY=            -48.7128
 XXXZ=             25.4061 YYYX=             19.9730 YYYZ=             -1.0485 ZZZX=              0.7000
 ZZZY=             -1.1337 XXYY=           -232.9260 XXZZ=           -226.7897 YYZZ=            -55.4044
 XXYZ=             -9.0035 YYXZ=              1.2215 ZZXY=              6.5167
 N-N= 3.606311722732D+02 E-N=-1.705442580786D+03  KE= 4.185405247601D+02
  Exact polarizability:   0.000   0.000   0.000   0.000   0.000   0.000
 Approx polarizability: 101.809   5.839  85.223   4.534  -5.372  60.970
                          Isotropic Fermi Contact Couplings
        Atom                 a.u.       MegaHertz       Gauss      10(-4) cm-1
     1  O(17)              0.01489      -9.02435      -3.22011      -3.01020
     2  H(1)              -0.00032      -1.42944      -0.51006      -0.47681
     3  C(13)              0.02841      31.93866      11.39651      10.65359
     4  H(1)               0.00954      42.62118      15.20830      14.21690
     5  C(13)              0.48186     541.70294     193.29308     180.69265
     6  C(13)              0.01246      14.00829       4.99851       4.67266
     7  O(17)              0.02410     -14.60813      -5.21254      -4.87275
     8  O(17)             -0.00014       0.08227       0.02936       0.02744
     9  C(13)              0.00069       0.77547       0.27671       0.25867
    10  C(13)              0.00021       0.23997       0.08563       0.08005
    11  H(1)               0.00002       0.09367       0.03342       0.03124
    12  H(1)               0.00006       0.27680       0.09877       0.09233
    13  H(1)              -0.00003      -0.13095      -0.04673      -0.04368
    14  H(1)               0.00000       0.02143       0.00765       0.00715
    15  H(1)              -0.00002      -0.11126      -0.03970      -0.03711
 --------------------------------------------------------
       Center         ----  Spin Dipole Couplings  ----
                      3XX-RR        3YY-RR        3ZZ-RR
 --------------------------------------------------------
     1   Atom        0.036061      0.181992     -0.218053
     2   Atom        0.000358      0.010998     -0.011356
     3   Atom        0.107243      0.019872     -0.127114
     4   Atom        0.018903     -0.007844     -0.011059
     5   Atom       -0.537408      0.848590     -0.311182
     6   Atom        0.047777     -0.005240     -0.042537
     7   Atom        0.108980     -0.033908     -0.075073
     8   Atom        0.007654     -0.002043     -0.005611
     9   Atom        0.004944     -0.002323     -0.002621
    10   Atom        0.002530     -0.000822     -0.001708
    11   Atom        0.003234     -0.001719     -0.001514
    12   Atom        0.002686     -0.001194     -0.001492
    13   Atom        0.001498     -0.000535     -0.000963
    14   Atom        0.002398     -0.001252     -0.001146
    15   Atom        0.001871     -0.000279     -0.001592
 --------------------------------------------------------
                        XY            XZ            YZ
 --------------------------------------------------------
     1   Atom        0.171293     -0.000524     -0.074370
     2   Atom        0.005745      0.000581     -0.004764
     3   Atom        0.028397      0.029847     -0.033551
     4   Atom        0.008306      0.002524      0.000441
     5   Atom        0.147146     -0.060513     -0.263197
     6   Atom       -0.047211      0.025314     -0.017570
     7   Atom       -0.189706      0.075673     -0.042693
     8   Atom       -0.019250      0.006234     -0.003978
     9   Atom       -0.000761      0.000466      0.000056
    10   Atom       -0.001625     -0.000863      0.000260
    11   Atom       -0.000143      0.001226     -0.000076
    12   Atom       -0.001625      0.002600     -0.000870
    13   Atom       -0.000934     -0.000165      0.000027
    14   Atom       -0.000988     -0.001357      0.000239
    15   Atom       -0.002444     -0.001373      0.000588
 --------------------------------------------------------


 ---------------------------------------------------------------------------------
              Anisotropic Spin Dipole Couplings in Principal Axis System
 ---------------------------------------------------------------------------------

       Atom             a.u.   MegaHertz   Gauss  10(-4) cm-1        Axes

              Baa    -0.2357    17.059     6.087     5.690 -0.1431  0.2301  0.9626
     1 O(17)  Bbb    -0.0670     4.847     1.730     1.617  0.8315 -0.4995  0.2430
              Bcc     0.3027   -21.906    -7.817    -7.307  0.5367  0.8352 -0.1198
 
              Baa    -0.0126    -6.713    -2.395    -2.239 -0.1452  0.2298  0.9623
     2 H(1)   Bbb    -0.0016    -0.856    -0.306    -0.286  0.9165 -0.3352  0.2184
              Bcc     0.0142     7.569     2.701     2.525  0.3728  0.9137 -0.1619
 
              Baa    -0.1395   -18.718    -6.679    -6.244 -0.1428  0.2282  0.9631
     3 C(13)  Bbb     0.0222     2.984     1.065     0.995 -0.2242  0.9403 -0.2560
              Bcc     0.1173    15.734     5.614     5.248  0.9640  0.2525  0.0831
 
              Baa    -0.0113    -6.042    -2.156    -2.015 -0.1372  0.2046  0.9692
     4 H(1)   Bbb    -0.0101    -5.415    -1.932    -1.806 -0.2485  0.9400 -0.2336
              Bcc     0.0215    11.457     4.088     3.821  0.9589  0.2728  0.0781
 
              Baa    -0.5583   -74.918   -26.733   -24.990  0.9838 -0.0722  0.1640
     5 C(13)  Bbb    -0.3640   -48.850   -17.431   -16.295 -0.1439  0.2265  0.9633
              Bcc     0.9223   123.768    44.164    41.285  0.1067  0.9713 -0.2125
 
              Baa    -0.0504    -6.758    -2.412    -2.254 -0.1369  0.2317  0.9631
     6 C(13)  Bbb    -0.0326    -4.371    -1.560    -1.458  0.5317  0.8375 -0.1259
              Bcc     0.0829    11.130     3.971     3.712  0.8358 -0.4949  0.2379
 
              Baa    -0.1660    12.015     4.287     4.008  0.5846  0.8040 -0.1089
     7 O(17)  Bbb    -0.0964     6.975     2.489     2.327 -0.1401  0.2323  0.9625
              Bcc     0.2624   -18.990    -6.776    -6.334  0.7992 -0.5474  0.2484
 
              Baa    -0.0171     1.237     0.441     0.413  0.6232  0.7790 -0.0685
     8 O(17)  Bbb    -0.0074     0.533     0.190     0.178 -0.1447  0.2009  0.9689
              Bcc     0.0245    -1.770    -0.632    -0.590  0.7685 -0.5939  0.2379
 
              Baa    -0.0027    -0.360    -0.129    -0.120 -0.0907 -0.3348  0.9379
     9 C(13)  Bbb    -0.0024    -0.317    -0.113    -0.106  0.0757  0.9367  0.3417
              Bcc     0.0050     0.678     0.242     0.226  0.9930 -0.1020  0.0596
 
              Baa    -0.0019    -0.253    -0.090    -0.084  0.2328  0.1198  0.9651
    10 C(13)  Bbb    -0.0015    -0.196    -0.070    -0.066  0.3331  0.9225 -0.1948
              Bcc     0.0033     0.449     0.160     0.150  0.9137 -0.3669 -0.1749
 
              Baa    -0.0018    -0.975    -0.348    -0.325 -0.2104  0.3572  0.9100
    11 H(1)   Bbb    -0.0017    -0.912    -0.325    -0.304  0.1115  0.9336 -0.3406
              Bcc     0.0035     1.887     0.673     0.629  0.9712 -0.0298  0.2363
 
              Baa    -0.0027    -1.465    -0.523    -0.489 -0.4112  0.0789  0.9081
    12 H(1)   Bbb    -0.0018    -0.950    -0.339    -0.317  0.3111  0.9486  0.0584
              Bcc     0.0045     2.414     0.862     0.805  0.8568 -0.3065  0.4146
 
              Baa    -0.0010    -0.526    -0.188    -0.176  0.1860  0.3310  0.9251
    13 H(1)   Bbb    -0.0009    -0.472    -0.169    -0.158  0.3157  0.8715 -0.3753
              Bcc     0.0019     0.999     0.356     0.333  0.9304 -0.3619 -0.0576
 
              Baa    -0.0017    -0.882    -0.315    -0.294  0.3808  0.4589  0.8028
    14 H(1)   Bbb    -0.0014    -0.769    -0.274    -0.256  0.0406  0.8590 -0.5103
              Bcc     0.0031     1.651     0.589     0.551  0.9238 -0.2269 -0.3085
 
              Baa    -0.0022    -1.167    -0.417    -0.389  0.5055  0.4141  0.7570
    15 H(1)   Bbb    -0.0017    -0.894    -0.319    -0.298  0.2839  0.7487 -0.5991
              Bcc     0.0039     2.061     0.736     0.688  0.8148 -0.5178 -0.2609
 

 ---------------------------------------------------------------------------------

 Calling FoFJK, ICntrl=    100147 FMM=F ISym2X=0 I1Cent= 0 IOpClX= 1 NMat=1 NMatS=1 NMatT=0.
 ***** Axes restored to original set *****
 -------------------------------------------------------------------
 Center     Atomic                   Forces (Hartrees/Bohr)
 Number     Number              X              Y              Z
 -------------------------------------------------------------------
      1        8          -0.006243201   -0.012724963    0.002053570
      2        1           0.004883159   -0.015002045    0.004323707
      3        6          -0.008233780    0.024712546   -0.007071993
      4        1           0.000937619   -0.000699534    0.000287042
      5        6           0.008152025    0.002295365    0.000739598
      6        6          -0.020359432    0.037258442   -0.011950161
      7        8          -0.002237910   -0.042903110    0.009922780
      8        8           0.006292887    0.012220296   -0.001993894
      9        6           0.015399086   -0.002878023    0.004382969
     10        6           0.000306460   -0.000170961   -0.000188279
     11        1           0.000478116    0.000613179    0.000291338
     12        1          -0.000084065   -0.001171973    0.001164218
     13        1           0.001180378   -0.000857722   -0.000117250
     14        1           0.000092687    0.000640708   -0.001034422
     15        1          -0.000564029   -0.001332203   -0.000809223
 -------------------------------------------------------------------
 Cartesian Forces:  Max     0.042903110 RMS     0.011187406
 FormGI is forming the generalized inverse of G from B-inverse, IUseBI=4.

 GradGradGradGradGradGradGradGradGradGradGradGradGradGradGradGradGradGrad
 Berny optimization.
 Internal  Forces:  Max     0.044092723 RMS     0.008867032
 Search for a local minimum.
 Step number   1 out of a maximum of   65
 All quantities printed in internal units (Hartrees-Bohrs-Radians)
 Mixed Optimization -- RFO/linear search
 Second derivative matrix not updated -- analytic derivatives used.
 ITU=  0
     Eigenvalues ---    0.00252   0.00648   0.00752   0.01672   0.02076
     Eigenvalues ---    0.04368   0.04466   0.04521   0.05419   0.06005
     Eigenvalues ---    0.06892   0.09489   0.10557   0.11390   0.12301
     Eigenvalues ---    0.12359   0.13134   0.16369   0.16618   0.18670
     Eigenvalues ---    0.19168   0.21547   0.23766   0.24013   0.28230
     Eigenvalues ---    0.30753   0.33174   0.34120   0.34261   0.34338
     Eigenvalues ---    0.34859   0.35034   0.35636   0.37336   0.44741
     Eigenvalues ---    0.45697   0.48305   0.64786   0.68771
 RFO step:  Lambda=-8.60619405D-03 EMin= 2.52368718D-03
 Linear search not attempted -- first point.
 Iteration  1 RMS(Cart)=  0.03731057 RMS(Int)=  0.00060283
 Iteration  2 RMS(Cart)=  0.00056642 RMS(Int)=  0.00004280
 Iteration  3 RMS(Cart)=  0.00000042 RMS(Int)=  0.00004280
 Variable       Old X    -DE/DX   Delta X   Delta X   Delta X     New X
                                 (Linear)    (Quad)   (Total)
    R1        1.86504  -0.01333   0.00000  -0.02461  -0.02461   1.84043
    R2        2.58372  -0.02780   0.00000  -0.05871  -0.05871   2.52502
    R3        2.04360   0.00120   0.00000   0.00611   0.00611   2.04971
    R4        2.52789  -0.00942   0.00000  -0.01180  -0.01180   2.51610
    R5        2.71807   0.00041   0.00000   0.01392   0.01392   2.73199
    R6        2.36883  -0.04409   0.00000  -0.06712  -0.06712   2.30171
    R7        2.54457  -0.02344   0.00000  -0.03882  -0.03882   2.50575
    R8        2.78354  -0.01750   0.00000  -0.06325  -0.06325   2.72028
    R9        2.86841  -0.00292   0.00000  -0.00318  -0.00318   2.86523
   R10        2.05767  -0.00083   0.00000  -0.00068  -0.00068   2.05699
   R11        2.06390  -0.00163   0.00000  -0.00335  -0.00335   2.06055
   R12        2.06746  -0.00138   0.00000  -0.00432  -0.00432   2.06314
   R13        2.06490  -0.00121   0.00000  -0.00310  -0.00310   2.06180
   R14        2.06436  -0.00154   0.00000  -0.00427  -0.00427   2.06010
    A1        1.94905  -0.01770   0.00000  -0.06776  -0.06776   1.88129
    A2        1.95651   0.00059   0.00000   0.01180   0.01180   1.96831
    A3        2.17074  -0.00113   0.00000   0.00942   0.00942   2.18016
    A4        2.15594   0.00055   0.00000  -0.02122  -0.02122   2.13472
    A5        2.21194  -0.00050   0.00000  -0.00462  -0.00462   2.20732
    A6        2.11539   0.00114   0.00000  -0.00146  -0.00146   2.11394
    A7        2.01978  -0.00240   0.00000  -0.01464  -0.01464   2.00514
    A8        2.14800   0.00126   0.00000   0.01610   0.01610   2.16411
    A9        2.05741  -0.01184   0.00000  -0.02299  -0.02299   2.03442
   A10        1.92744  -0.00002   0.00000   0.00963   0.00965   1.93709
   A11        1.80232   0.00009   0.00000   0.01353   0.01357   1.81590
   A12        1.88994  -0.00026   0.00000   0.00793   0.00794   1.89788
   A13        1.96162  -0.00003   0.00000  -0.01213  -0.01225   1.94937
   A14        1.95226   0.00022   0.00000  -0.00645  -0.00657   1.94568
   A15        1.92344  -0.00003   0.00000  -0.01014  -0.01034   1.91310
   A16        1.91622  -0.00056   0.00000  -0.00235  -0.00235   1.91387
   A17        1.92718   0.00008   0.00000  -0.00043  -0.00043   1.92675
   A18        1.93219  -0.00075   0.00000  -0.00155  -0.00155   1.93064
   A19        1.89253   0.00024   0.00000   0.00065   0.00065   1.89318
   A20        1.88974   0.00063   0.00000   0.00246   0.00246   1.89220
   A21        1.90513   0.00038   0.00000   0.00133   0.00133   1.90646
    D1        3.13894   0.00002   0.00000  -0.00022  -0.00022   3.13871
    D2       -0.00226   0.00002   0.00000  -0.00029  -0.00029  -0.00255
    D3       -0.00110   0.00004   0.00000   0.00045   0.00045  -0.00065
    D4        3.14093   0.00004   0.00000   0.00037   0.00037   3.14130
    D5        0.00210  -0.00005   0.00000   0.00054   0.00054   0.00264
    D6        3.13966   0.00010   0.00000   0.00117   0.00117   3.14083
    D7        3.12930  -0.00006   0.00000  -0.00167  -0.00167   3.12762
    D8       -0.01641   0.00010   0.00000  -0.00107  -0.00107  -0.01748
    D9       -1.40541   0.00009   0.00000   0.00446   0.00448  -1.40093
   D10        2.77700   0.00008   0.00000   0.00627   0.00623   2.78322
   D11        0.73762   0.00018   0.00000   0.00776   0.00778   0.74541
   D12       -3.05985  -0.00013   0.00000  -0.00204  -0.00203  -3.06187
   D13       -0.97401  -0.00013   0.00000  -0.00299  -0.00297  -0.97699
   D14        1.13783  -0.00008   0.00000  -0.00262  -0.00261   1.13522
   D15       -1.05742  -0.00004   0.00000   0.01344   0.01337  -1.04405
   D16        1.02841  -0.00004   0.00000   0.01249   0.01242   1.04083
   D17        3.14026   0.00000   0.00000   0.01286   0.01279  -3.13014
   D18        1.11713   0.00006   0.00000  -0.01440  -0.01434   1.10279
   D19       -3.08022   0.00006   0.00000  -0.01535  -0.01529  -3.09551
   D20       -0.96838   0.00010   0.00000  -0.01498  -0.01492  -0.98330
         Item               Value     Threshold  Converged?
 Maximum Force            0.044093     0.000015     NO 
 RMS     Force            0.008867     0.000010     NO 
 Maximum Displacement     0.115688     0.000060     NO 
 RMS     Displacement     0.037147     0.000040     NO 
 Predicted change in Energy=-4.401039D-03
 GradGradGradGradGradGradGradGradGradGradGradGradGradGradGradGradGradGrad

                          Input orientation:                          
 ---------------------------------------------------------------------
 Center     Atomic      Atomic             Coordinates (Angstroms)
 Number     Number       Type             X           Y           Z
 ---------------------------------------------------------------------
      1          8           0        2.845061    0.775995    0.032394
      2          1           0        2.038024    1.266517   -0.205491
      3          6           0        2.496577   -0.491360    0.272704
      4          1           0        3.341523   -1.114902    0.544279
      5          6           0        1.255883   -0.968313    0.195371
      6          6           0        0.068645   -0.221908   -0.155925
      7          8           0        0.127405    0.964893   -0.423515
      8          8           0       -1.053130   -0.928882   -0.163228
      9          6           0       -2.260584   -0.216972   -0.491000
     10          6           0       -2.783726    0.546692    0.709853
     11          1           0       -2.951355   -0.998181   -0.803095
     12          1           0       -2.057785    0.448963   -1.330266
     13          1           0       -3.739941    1.011368    0.461480
     14          1           0       -2.936283   -0.128756    1.553006
     15          1           0       -2.084679    1.331230    1.000153
 ---------------------------------------------------------------------
                    Distance matrix (angstroms):
                    1          2          3          4          5
     1  O    0.000000
     2  H    0.973914   0.000000
     3  C    1.336181   1.878583   0.000000
     4  H    2.020890   2.816455   1.084662   0.000000
     5  C    2.365303   2.401437   1.331460   2.119698   0.000000
     6  C    2.956308   2.469072   2.480158   3.464023   1.445705
     7  O    2.762099   1.946529   2.866770   3.948763   2.322449
     8  O    4.259197   3.791674   3.603038   4.455126   2.337026
     9  C    5.227574   4.556345   4.825880   5.767295   3.660760
    10  C    5.674044   4.960370   5.399098   6.348779   4.344925
    11  H    6.119165   5.511795   5.576216   6.436565   4.324198
    12  H    5.099185   4.325409   4.918937   5.925549   3.913648
    13  H    6.603163   5.821926   6.417787   7.394256   5.380354
    14  H    6.046055   5.457365   5.593445   6.434351   4.485788
    15  H    5.054421   4.295863   4.983867   5.969510   4.134602
                    6          7          8          9         10
     6  C    0.000000
     7  O    1.218013   0.000000
     8  O    1.325988   2.246730   0.000000
     9  C    2.353212   2.665305   1.439513   0.000000
    10  C    3.078366   3.151841   2.436093   1.516215   0.000000
    11  H    3.184624   3.671036   2.004369   1.088511   2.168811
    12  H    2.520090   2.421454   2.066342   1.090396   2.167631
    13  H    4.050616   3.967586   3.372504   2.145818   1.091769
    14  H    3.458138   3.806427   2.670567   2.154603   1.091060
    15  H    2.895783   2.656002   2.743292   2.156712   1.090157
                   11         12         13         14         15
    11  H    0.000000
    12  H    1.780619   0.000000
    13  H    2.501860   2.521170   0.000000
    14  H    2.511441   3.069002   1.771208   0.000000
    15  H    3.070665   2.491981   1.769851   1.778324   0.000000
 Stoichiometry    C5H7O3(2)
 Framework group  C1[X(C5H7O3)]
 Deg. of freedom    39
 Full point group                 C1      NOp   1
 Largest Abelian subgroup         C1      NOp   1
 Largest concise Abelian subgroup C1      NOp   1
                         Standard orientation:                         
 ---------------------------------------------------------------------
 Center     Atomic      Atomic             Coordinates (Angstroms)
 Number     Number       Type             X           Y           Z
 ---------------------------------------------------------------------
      1          8           0        2.852056    0.769995    0.020507
      2          1           0        2.045435    1.257942   -0.223992
      3          6           0        2.502320   -0.493418    0.279065
      4          1           0        3.346722   -1.113932    0.559134
      5          6           0        1.261076   -0.970082    0.209126
      6          6           0        0.074476   -0.227485   -0.152254
      7          8           0        0.134389    0.955307   -0.436804
      8          8           0       -1.048064   -0.933273   -0.148937
      9          6           0       -2.254905   -0.224810   -0.486295
     10          6           0       -2.776652    0.556503    0.703763
     11          1           0       -2.946667   -1.009649   -0.786875
     12          1           0       -2.051788    0.428844   -1.335084
     13          1           0       -3.732483    1.018620    0.449214
     14          1           0       -2.929537   -0.106661    1.556553
     15          1           0       -2.076622    1.344351    0.982500
 ---------------------------------------------------------------------
 Rotational constants (GHZ):           5.9937114           1.0727530           0.9816346
 Standard basis: 6-311++G(d,p) (5D, 7F)
 There are   233 symmetry adapted cartesian basis functions of A   symmetry.
 There are   225 symmetry adapted basis functions of A   symmetry.
   225 basis functions,   351 primitive gaussians,   233 cartesian basis functions
    31 alpha electrons       30 beta electrons
       nuclear repulsion energy       365.1394085434 Hartrees.
 NAtoms=   15 NActive=   15 NUniq=   15 SFac= 1.00D+00 NAtFMM=   60 NAOKFM=F Big=F
 Integral buffers will be    131072 words long.
 Raffenetti 2 integral format.
 Two-electron integral symmetry is turned on.
 One-electron integrals computed using PRISM.
 NBasis=   225 RedAO= T EigKep=  1.65D-05  NBF=   225
 NBsUse=   225 1.00D-06 EigRej= -1.00D+00 NBFU=   225
 Initial guess from the checkpoint file:  "ethyl_propiolate.chk"
 B after Tr=     0.000000   -0.000000    0.000000
         Rot=    0.999978    0.006652   -0.000381   -0.000608 Ang=   0.77 deg.
 Initial guess <Sx>= 0.0000 <Sy>= 0.0000 <Sz>= 0.5000 <S**2>= 0.7652 S= 0.5076
 ExpMin= 3.60D-02 ExpMax= 8.59D+03 ExpMxC= 1.30D+03 IAcc=3 IRadAn=         5 AccDes= 0.00D+00
 Harris functional with IExCor= 1009 and IRadAn=       5 diagonalized for initial guess.
 HarFok:  IExCor= 1009 AccDes= 0.00D+00 IRadAn=         5 IDoV= 1 UseB2=F ITyADJ=14
 ICtDFT=  3500011 ScaDFX=  1.000000  1.000000  1.000000  1.000000
 FoFCou: FMM=F IPFlag=           0 FMFlag=      100000 FMFlg1=           0
         NFxFlg=           0 DoJE=T BraDBF=F KetDBF=T FulRan=T
         wScrn=  0.000000 ICntrl=       500 IOpCl=  0 I1Cent=   200000004 NGrid=           0
         NMat0=    1 NMatS0=      1 NMatT0=    0 NMatD0=    1 NMtDS0=    0 NMtDT0=    0
 Petite list used in FoFCou.
 Requested convergence on RMS density matrix=1.00D-08 within 128 cycles.
 Requested convergence on MAX density matrix=1.00D-06.
 Requested convergence on             energy=1.00D-06.
 No special actions if energy rises.
 SCF Done:  E(UM062X) =  -420.281832622     A.U. after   17 cycles
            NFock= 17  Conv=0.61D-08     -V/T= 2.0033
 <Sx>= 0.0000 <Sy>= 0.0000 <Sz>= 0.5000 <S**2>= 0.7644 S= 0.5072
 <L.S>=  0.00000000000    
 Annihilation of the first spin contaminant:
 S**2 before annihilation     0.7644,   after     0.7501
 Calling FoFJK, ICntrl=      2127 FMM=F ISym2X=0 I1Cent= 0 IOpClX= 1 NMat=1 NMatS=1 NMatT=0.
 ***** Axes restored to original set *****
 -------------------------------------------------------------------
 Center     Atomic                   Forces (Hartrees/Bohr)
 Number     Number              X              Y              Z
 -------------------------------------------------------------------
      1        8           0.000655897    0.001878150   -0.000328772
      2        1          -0.000072239    0.000559542   -0.000150057
      3        6          -0.000500430   -0.002008934    0.000389591
      4        1           0.000057885   -0.000190289    0.000052911
      5        6           0.000246504   -0.000391778    0.000126845
      6        6           0.000509420   -0.004222673    0.001142807
      7        8           0.000372016    0.005020644   -0.001128145
      8        8           0.000071766   -0.001118918    0.000138089
      9        6          -0.000710751    0.000300981    0.000006721
     10        6          -0.000134024    0.000103684   -0.000023029
     11        1          -0.000177981    0.000153335   -0.000096361
     12        1          -0.000313182   -0.000034172   -0.000106066
     13        1           0.000025399   -0.000010398   -0.000011096
     14        1          -0.000020517   -0.000000298   -0.000029517
     15        1          -0.000009765   -0.000038875    0.000016079
 -------------------------------------------------------------------
 Cartesian Forces:  Max     0.005020644 RMS     0.001127554

 GradGradGradGradGradGradGradGradGradGradGradGradGradGradGradGradGradGrad
 Berny optimization.
 Using GEDIIS/GDIIS optimizer.
 FormGI is forming the generalized inverse of G from B-inverse, IUseBI=4.
 Internal  Forces:  Max     0.005157625 RMS     0.000848851
 Search for a local minimum.
 Step number   2 out of a maximum of   65
 All quantities printed in internal units (Hartrees-Bohrs-Radians)
 Mixed Optimization -- En-DIIS/RFO-DIIS
 Update second derivatives using D2CorX and points    1    2
 DE= -4.11D-03 DEPred=-4.40D-03 R= 9.34D-01
 TightC=F SS=  1.41D+00  RLast= 1.51D-01 DXNew= 5.0454D-01 4.5260D-01
 Trust test= 9.34D-01 RLast= 1.51D-01 DXMaxT set to 4.53D-01
 ITU=  1  0
 Use linear search instead of GDIIS.
     Eigenvalues ---    0.00252   0.00648   0.00752   0.01672   0.02076
     Eigenvalues ---    0.04369   0.04466   0.04528   0.05419   0.06005
     Eigenvalues ---    0.06891   0.09497   0.10557   0.11417   0.12302
     Eigenvalues ---    0.12359   0.13138   0.16354   0.16618   0.18672
     Eigenvalues ---    0.19235   0.21521   0.23781   0.24016   0.28236
     Eigenvalues ---    0.30802   0.33444   0.34124   0.34269   0.34339
     Eigenvalues ---    0.34867   0.35112   0.35753   0.37335   0.44732
     Eigenvalues ---    0.45747   0.48973   0.65053   0.72785
 RFO step:  Lambda=-1.92369370D-05 EMin= 2.52367593D-03
 Quartic linear search produced a step of -0.06758.
 Iteration  1 RMS(Cart)=  0.00497422 RMS(Int)=  0.00001111
 Iteration  2 RMS(Cart)=  0.00002169 RMS(Int)=  0.00000245
 Iteration  3 RMS(Cart)=  0.00000000 RMS(Int)=  0.00000245
 Variable       Old X    -DE/DX   Delta X   Delta X   Delta X     New X
                                 (Linear)    (Quad)   (Total)
    R1        1.84043   0.00038   0.00166  -0.00121   0.00045   1.84088
    R2        2.52502   0.00255   0.00397   0.00123   0.00520   2.53022
    R3        2.04971   0.00017  -0.00041   0.00077   0.00036   2.05007
    R4        2.51610   0.00022   0.00080  -0.00118  -0.00039   2.51571
    R5        2.73199   0.00042  -0.00094   0.00114   0.00020   2.73219
    R6        2.30171   0.00516   0.00454   0.00237   0.00691   2.30862
    R7        2.50575   0.00142   0.00262  -0.00160   0.00103   2.50678
    R8        2.72028   0.00141   0.00427  -0.00099   0.00328   2.72357
    R9        2.86523   0.00004   0.00021  -0.00045  -0.00024   2.86499
   R10        2.05699   0.00003   0.00005   0.00004   0.00009   2.05708
   R11        2.06055   0.00000   0.00023  -0.00019   0.00003   2.06058
   R12        2.06314  -0.00002   0.00029  -0.00038  -0.00009   2.06305
   R13        2.06180  -0.00002   0.00021  -0.00029  -0.00008   2.06172
   R14        2.06010  -0.00003   0.00029  -0.00049  -0.00020   2.05990
    A1        1.88129   0.00082   0.00458  -0.00346   0.00112   1.88241
    A2        1.96831  -0.00012  -0.00080   0.00050  -0.00030   1.96801
    A3        2.18016   0.00048  -0.00064   0.00172   0.00108   2.18124
    A4        2.13472  -0.00036   0.00143  -0.00222  -0.00078   2.13393
    A5        2.20732   0.00038   0.00031   0.00094   0.00125   2.20857
    A6        2.11394  -0.00004   0.00010  -0.00089  -0.00080   2.11314
    A7        2.00514  -0.00019   0.00099  -0.00056   0.00043   2.00556
    A8        2.16411   0.00024  -0.00109   0.00146   0.00037   2.16447
    A9        2.03442   0.00080   0.00155  -0.00040   0.00115   2.03557
   A10        1.93709   0.00011  -0.00065   0.00243   0.00177   1.93886
   A11        1.81590   0.00009  -0.00092   0.00169   0.00077   1.81667
   A12        1.89788   0.00010  -0.00054   0.00185   0.00131   1.89920
   A13        1.94937  -0.00013   0.00083  -0.00185  -0.00101   1.94836
   A14        1.94568  -0.00006   0.00044  -0.00041   0.00004   1.94572
   A15        1.91310  -0.00009   0.00070  -0.00354  -0.00283   1.91027
   A16        1.91387  -0.00003   0.00016  -0.00135  -0.00119   1.91268
   A17        1.92675  -0.00001   0.00003   0.00032   0.00035   1.92711
   A18        1.93064   0.00002   0.00010   0.00025   0.00035   1.93099
   A19        1.89318   0.00001  -0.00004  -0.00003  -0.00007   1.89311
   A20        1.89220   0.00001  -0.00017   0.00039   0.00023   1.89243
   A21        1.90646   0.00000  -0.00009   0.00042   0.00033   1.90679
    D1        3.13871  -0.00001   0.00002  -0.00013  -0.00012   3.13860
    D2       -0.00255  -0.00001   0.00002  -0.00012  -0.00010  -0.00265
    D3       -0.00065  -0.00001  -0.00003  -0.00032  -0.00035  -0.00101
    D4        3.14130  -0.00001  -0.00003  -0.00032  -0.00034   3.14096
    D5        0.00264  -0.00000  -0.00004   0.00001  -0.00003   0.00261
    D6        3.14083  -0.00001  -0.00008  -0.00030  -0.00037   3.14046
    D7        3.12762  -0.00003   0.00011  -0.00334  -0.00323   3.12440
    D8       -0.01748  -0.00003   0.00007  -0.00366  -0.00359  -0.02107
    D9       -1.40093   0.00000  -0.00030   0.00913   0.00882  -1.39211
   D10        2.78322   0.00004  -0.00042   0.00908   0.00866   2.79188
   D11        0.74541   0.00006  -0.00053   0.01145   0.01093   0.75633
   D12       -3.06187   0.00001   0.00014  -0.00613  -0.00600  -3.06787
   D13       -0.97699  -0.00000   0.00020  -0.00682  -0.00662  -0.98361
   D14        1.13522   0.00000   0.00018  -0.00591  -0.00574   1.12948
   D15       -1.04405   0.00012  -0.00090  -0.00366  -0.00456  -1.04861
   D16        1.04083   0.00010  -0.00084  -0.00434  -0.00518   1.03565
   D17       -3.13014   0.00011  -0.00086  -0.00344  -0.00430  -3.13444
   D18        1.10279  -0.00014   0.00097  -0.00990  -0.00893   1.09385
   D19       -3.09551  -0.00016   0.00103  -0.01059  -0.00956  -3.10507
   D20       -0.98330  -0.00015   0.00101  -0.00968  -0.00868  -0.99198
         Item               Value     Threshold  Converged?
 Maximum Force            0.005158     0.000015     NO 
 RMS     Force            0.000849     0.000010     NO 
 Maximum Displacement     0.017368     0.000060     NO 
 RMS     Displacement     0.004975     0.000040     NO 
 Predicted change in Energy=-3.226477D-05
 GradGradGradGradGradGradGradGradGradGradGradGradGradGradGradGradGradGrad

                          Input orientation:                          
 ---------------------------------------------------------------------
 Center     Atomic      Atomic             Coordinates (Angstroms)
 Number     Number       Type             X           Y           Z
 ---------------------------------------------------------------------
      1          8           0        2.847974    0.778496    0.036424
      2          1           0        2.042143    1.271449   -0.201495
      3          6           0        2.497258   -0.491839    0.273051
      4          1           0        3.341579   -1.116794    0.544072
      5          6           0        1.256910   -0.968659    0.192905
      6          6           0        0.068866   -0.222793   -0.157253
      7          8           0        0.127371    0.968409   -0.422000
      8          8           0       -1.052629   -0.931182   -0.168104
      9          6           0       -2.263362   -0.219145   -0.491104
     10          6           0       -2.782401    0.547178    0.709676
     11          1           0       -2.956180   -1.000407   -0.798663
     12          1           0       -2.066976    0.444367   -1.333830
     13          1           0       -3.736790    1.015120    0.460624
     14          1           0       -2.937778   -0.127008    1.553269
     15          1           0       -2.080350    1.329190    0.999147
 ---------------------------------------------------------------------
                    Distance matrix (angstroms):
                    1          2          3          4          5
     1  O    0.000000
     2  H    0.974152   0.000000
     3  C    1.338934   1.881889   0.000000
     4  H    2.023234   2.819239   1.084850   0.000000
     5  C    2.368232   2.406289   1.331256   2.119224   0.000000
     6  C    2.960326   2.475589   2.480854   3.464354   1.445813
     7  O    2.765484   1.951104   2.869108   3.951266   2.325123
     8  O    4.263746   3.798725   3.604072   4.455414   2.337884
     9  C    5.234437   4.565426   4.829265   5.769986   3.663599
    10  C    5.675200   4.962965   5.398610   6.348178   4.345209
    11  H    6.127812   5.522787   5.580968   6.440362   4.328319
    12  H    5.113313   4.341786   4.928568   5.934325   3.921196
    13  H    6.602655   5.822385   6.416343   7.392924   5.379971
    14  H    6.049436   5.462095   5.595683   6.436496   4.489362
    15  H    5.051582   4.294162   4.979745   5.965505   4.131276
                    6          7          8          9         10
     6  C    0.000000
     7  O    1.221669   0.000000
     8  O    1.326530   2.250624   0.000000
     9  C    2.356005   2.670331   1.441250   0.000000
    10  C    3.078010   3.150381   2.438885   1.516089   0.000000
    11  H    3.188573   3.677825   2.006466   1.088559   2.168018
    12  H    2.528093   2.433354   2.068804   1.090414   2.167561
    13  H    4.049348   3.963956   3.374628   2.144804   1.091721
    14  H    3.460486   3.807461   2.676492   2.154712   1.091017
    15  H    2.892238   2.650256   2.743714   2.156776   1.090051
                   11         12         13         14         15
    11  H    0.000000
    12  H    1.778893   0.000000
    13  H    2.501500   2.516764   0.000000
    14  H    2.508933   3.069219   1.771088   0.000000
    15  H    3.070215   2.495169   1.769870   1.778411   0.000000
 Stoichiometry    C5H7O3(2)
 Framework group  C1[X(C5H7O3)]
 Deg. of freedom    39
 Full point group                 C1      NOp   1
 Largest Abelian subgroup         C1      NOp   1
 Largest concise Abelian subgroup C1      NOp   1
                         Standard orientation:                         
 ---------------------------------------------------------------------
 Center     Atomic      Atomic             Coordinates (Angstroms)
 Number     Number       Type             X           Y           Z
 ---------------------------------------------------------------------
      1          8           0        2.855014    0.770822    0.019654
      2          1           0        2.049722    1.260677   -0.226350
      3          6           0        2.502475   -0.494370    0.279943
      4          1           0        3.346078   -1.115662    0.561421
      5          6           0        1.261248   -0.970502    0.209968
      6          6           0        0.074030   -0.229196   -0.152462
      7          8           0        0.134195    0.956850   -0.439082
      8          8           0       -1.048646   -0.935786   -0.149041
      9          6           0       -2.258577   -0.227767   -0.483671
     10          6           0       -2.774945    0.561319    0.703440
     11          1           0       -2.953045   -1.013378   -0.776058
     12          1           0       -2.062079    0.419847   -1.338648
     13          1           0       -3.728850    1.026212    0.446931
     14          1           0       -2.930451   -0.097020    1.559434
     15          1           0       -2.071265    1.347332    0.977719
 ---------------------------------------------------------------------
 Rotational constants (GHZ):           5.9734355           1.0717584           0.9802587
 Standard basis: 6-311++G(d,p) (5D, 7F)
 There are   233 symmetry adapted cartesian basis functions of A   symmetry.
 There are   225 symmetry adapted basis functions of A   symmetry.
   225 basis functions,   351 primitive gaussians,   233 cartesian basis functions
    31 alpha electrons       30 beta electrons
       nuclear repulsion energy       364.8114051147 Hartrees.
 NAtoms=   15 NActive=   15 NUniq=   15 SFac= 1.00D+00 NAtFMM=   60 NAOKFM=F Big=F
 Integral buffers will be    131072 words long.
 Raffenetti 2 integral format.
 Two-electron integral symmetry is turned on.
 One-electron integrals computed using PRISM.
 NBasis=   225 RedAO= T EigKep=  1.65D-05  NBF=   225
 NBsUse=   225 1.00D-06 EigRej= -1.00D+00 NBFU=   225
 Initial guess from the checkpoint file:  "ethyl_propiolate.chk"
 B after Tr=    -0.000000    0.000000   -0.000000
         Rot=    0.999999    0.001244   -0.000163    0.000174 Ang=   0.15 deg.
 Initial guess <Sx>= 0.0000 <Sy>= 0.0000 <Sz>= 0.5000 <S**2>= 0.7644 S= 0.5072
 Requested convergence on RMS density matrix=1.00D-08 within 128 cycles.
 Requested convergence on MAX density matrix=1.00D-06.
 Requested convergence on             energy=1.00D-06.
 No special actions if energy rises.
 SCF Done:  E(UM062X) =  -420.281861051     A.U. after   13 cycles
            NFock= 13  Conv=0.52D-08     -V/T= 2.0033
 <Sx>= 0.0000 <Sy>= 0.0000 <Sz>= 0.5000 <S**2>= 0.7644 S= 0.5072
 <L.S>=  0.00000000000    
 Annihilation of the first spin contaminant:
 S**2 before annihilation     0.7644,   after     0.7501
 Calling FoFJK, ICntrl=      2127 FMM=F ISym2X=0 I1Cent= 0 IOpClX= 1 NMat=1 NMatS=1 NMatT=0.
 ***** Axes restored to original set *****
 -------------------------------------------------------------------
 Center     Atomic                   Forces (Hartrees/Bohr)
 Number     Number              X              Y              Z
 -------------------------------------------------------------------
      1        8          -0.000075670   -0.000193698    0.000033238
      2        1          -0.000021824    0.000121565   -0.000029092
      3        6           0.000137296   -0.000004617    0.000018523
      4        1           0.000013384    0.000040571   -0.000007935
      5        6          -0.000073477    0.000061847   -0.000026943
      6        6           0.000193486    0.000510958   -0.000121967
      7        8          -0.000063276   -0.000552934    0.000113898
      8        8          -0.000023637   -0.000040158    0.000048730
      9        6          -0.000264063    0.000103589   -0.000115549
     10        6           0.000036805   -0.000028047    0.000023026
     11        1           0.000056305   -0.000057168    0.000022153
     12        1           0.000097870    0.000023196    0.000018052
     13        1          -0.000012034    0.000005193    0.000003703
     14        1           0.000004719   -0.000003737    0.000010992
     15        1          -0.000005884    0.000013441    0.000009173
 -------------------------------------------------------------------
 Cartesian Forces:  Max     0.000552934 RMS     0.000137166

 GradGradGradGradGradGradGradGradGradGradGradGradGradGradGradGradGradGrad
 Berny optimization.
 Using GEDIIS/GDIIS optimizer.
 FormGI is forming the generalized inverse of G from B-inverse, IUseBI=4.
 Internal  Forces:  Max     0.000567155 RMS     0.000087924
 Search for a local minimum.
 Step number   3 out of a maximum of   65
 All quantities printed in internal units (Hartrees-Bohrs-Radians)
 Mixed Optimization -- En-DIIS/RFO-DIIS
 Swapping is turned off.
 Update second derivatives using D2CorX and points    1    2    3
 DE= -2.84D-05 DEPred=-3.23D-05 R= 8.81D-01
 TightC=F SS=  1.41D+00  RLast= 2.88D-02 DXNew= 7.6118D-01 8.6521D-02
 Trust test= 8.81D-01 RLast= 2.88D-02 DXMaxT set to 4.53D-01
 ITU=  1  1  0
     Eigenvalues ---    0.00252   0.00655   0.00752   0.01672   0.02077
     Eigenvalues ---    0.04365   0.04466   0.04513   0.05419   0.06004
     Eigenvalues ---    0.06891   0.09498   0.10557   0.11419   0.12304
     Eigenvalues ---    0.12359   0.13133   0.16447   0.16617   0.18672
     Eigenvalues ---    0.19246   0.21465   0.23788   0.24018   0.28270
     Eigenvalues ---    0.30808   0.33440   0.34125   0.34267   0.34346
     Eigenvalues ---    0.34862   0.35099   0.35745   0.37321   0.45079
     Eigenvalues ---    0.45750   0.49068   0.65317   0.79741
 En-DIIS/RFO-DIIS/Sim-DIIS IScMMF=       -3 using points:     3    2
 RFO step:  Lambda=-1.64899179D-06.
 DidBck=T Rises=F RFO-DIIS coefs:    0.71754    0.28246
 Iteration  1 RMS(Cart)=  0.00238630 RMS(Int)=  0.00000221
 Iteration  2 RMS(Cart)=  0.00000362 RMS(Int)=  0.00000009
 Iteration  3 RMS(Cart)=  0.00000000 RMS(Int)=  0.00000009
 Variable       Old X    -DE/DX   Delta X   Delta X   Delta X     New X
                                 (Linear)    (Quad)   (Total)
    R1        1.84088   0.00009  -0.00013   0.00020   0.00007   1.84095
[...]
 ! D16   D(11,9,10,14)          59.3731         -DE/DX =    0.0                 !
 ! D17   D(11,9,10,15)        -179.5671         -DE/DX =    0.0                 !
 ! D18   D(12,9,10,13)          62.7989         -DE/DX =    0.0                 !
 ! D19   D(12,9,10,14)        -177.7725         -DE/DX =    0.0                 !
 ! D20   D(12,9,10,15)         -56.7127         -DE/DX =    0.0                 !
 --------------------------------------------------------------------------------
 GradGradGradGradGradGradGradGradGradGradGradGradGradGradGradGradGradGrad


 ----------------------------------------------------------------------

 Electric dipole moment (input orientation):
 (Debye = 10**-18 statcoulomb cm , SI units = C m)
                  (au)            (Debye)         (10**-30 SI)
   Tot        0.672691D+00      0.170981D+01      0.570331D+01
   x         -0.627256D+00     -0.159432D+01     -0.531810D+01
   y         -0.238105D+00     -0.605202D+00     -0.201874D+01
   z          0.486704D-01      0.123708D+00      0.412644D+00

 Dipole polarizability, Alpha (input orientation).
 (esu units = cm**3 , SI units = C**2 m**2 J**-1)
 Alpha(0;0):
               (au)            (10**-24 esu)      (10**-40 SI)
   iso        0.706450D+02      0.104685D+02      0.116478D+02
   aniso      0.420632D+02      0.623312D+01      0.693529D+01
   xx         0.974713D+02      0.144438D+02      0.160708D+02
   yx         0.108825D+01      0.161262D+00      0.179428D+00
   yy         0.630685D+02      0.934579D+01      0.103986D+02
   zx         0.328986D+01      0.487506D+00      0.542424D+00
   zy        -0.199059D+01     -0.294975D+00     -0.328204D+00
   zz         0.513953D+02      0.761600D+01      0.847394D+01

 ----------------------------------------------------------------------

 Dipole orientation:
     8          0.62715729         -0.33623389         -5.53519096
     1         -0.36819320          0.79654434         -4.47913530
     6          1.66062436         -2.09145422         -4.03449030
     1          2.80456412         -3.44325783         -5.06724146
     6          1.35453765         -2.21743316         -1.54059434
     6         -0.12241982         -0.51636114          0.00527121
     8         -1.26343370          1.25785443         -0.93094774
     8         -0.12817393         -1.05150585          2.45461367
     6         -1.54738433          0.62379417          4.06711045
     6         -0.06225131          3.00659745          4.63690879
     1         -1.88485432         -0.48520028          5.76643102
     1         -3.34582013          1.05420344          3.15810224
     1         -1.11424520          4.17508811          5.97268815
     1          1.76044891          2.53426121          5.47679753
     1          0.24498578          4.09902803          2.91771035

 Electric dipole moment (dipole orientation):
 (Debye = 10**-18 statcoulomb cm , SI units = C m)
                  (au)            (Debye)         (10**-30 SI)
   Tot        0.672691D+00      0.170981D+01      0.570331D+01
   x          0.000000D+00      0.000000D+00      0.000000D+00
   y          0.000000D+00      0.000000D+00      0.000000D+00
   z          0.672691D+00      0.170981D+01      0.570331D+01

 Dipole polarizability, Alpha (dipole orientation).
 (esu units = cm**3 , SI units = C**2 m**2 J**-1)
 Alpha(0;0):
               (au)            (10**-24 esu)      (10**-40 SI)
   iso        0.706450D+02      0.104685D+02      0.116478D+02
   aniso      0.420632D+02      0.623312D+01      0.693529D+01
   xx         0.563268D+02      0.834677D+01      0.928703D+01
   yx        -0.771736D+01     -0.114359D+01     -0.127242D+01
   yy         0.623120D+02      0.923369D+01      0.102739D+02
   zx        -0.873110D+01     -0.129381D+01     -0.143956D+01
   zy         0.775996D+01      0.114991D+01      0.127944D+01
   zz         0.932963D+02      0.138251D+02      0.153825D+02

 ----------------------------------------------------------------------
 1\1\GINC-AJ\Freq\UM062X\6-311++G(d,p)\C5H7O3(2)\AAYUSH\08-Jun-2025\0\\
 #N Geom=AllCheck Guess=TCheck SCRF=Check GenChk UM062X/6-311++G(d,p) F
 req\\Title Card Required\\0,2\O,2.8488097069,0.7774950003,0.0345573439
 \H,2.0435691441,1.2712083809,-0.2039734581\C,2.4976500549,-0.492224330
 2,0.2731986915\H,3.3419401261,-1.1168656466,0.5449159687\C,1.256948299
 4,-0.9683722985,0.1940514407\C,0.069243966,-0.2223706514,-0.1569225966
 \O,0.1280076541,0.968011047,-0.4234611611\O,-1.0527647447,-0.930313364
 3,-0.1662205326\C,-2.2633685392,-0.2182421811,-0.4909762928\C,-2.78393
 83927,0.5467503086,0.7099730346\H,-2.9550347178,-0.9998626855,-0.80015
 68141\H,-2.0649795503,0.4460886667,-1.3325729002\H,-3.7386918637,1.013
 9853228,0.4608913149\H,-2.9389634708,-0.1281805893,1.5530429847\H,-2.0
 82792672,1.3292770208,1.0003719765\\Version=ES64L-G16RevA.03\State=2-A
 \HF=-420.2818619\S2=0.76444\S2-1=0.\S2A=0.750076\RMSD=1.642e-09\RMSF=1
 .385e-06\ZeroPoint=0.1185591\Thermal=0.1269157\Dipole=-0.6272557,-0.23
 8105,0.0486704\DipoleDeriv=-0.661015,-0.0692253,-0.0111148,-0.9003857,
 -1.0252259,0.0316789,0.1677716,0.1353721,-0.4068275,0.3533533,0.005689
 ,-0.004949,0.0203818,0.3524502,-0.0070652,-0.0025819,-0.0067821,0.3298
 839,0.9863241,0.2477929,0.0584748,1.0230696,0.924269,-0.0597506,-0.101
 4177,-0.1493577,0.1366894,0.0446997,0.0491435,-0.0285687,0.0197047,0.0
 571746,0.0284988,-0.0235072,0.031884,0.1558974,-1.3026227,-0.0316471,-
 0.1102525,0.0780418,-0.2469351,0.0097583,-0.1707246,-0.0060121,-0.2805
 752,2.6508039,0.1171004,0.1753644,0.1671985,1.2673997,-0.2256473,0.253
 8745,-0.1736727,0.5203472,-0.9061992,0.0316275,-0.041073,0.1169336,-1.
 1095702,0.213998,-0.0769094,0.1784044,-0.4466648,-2.0162845,-0.1657841
 ,-0.0456625,-0.2983598,-0.6037064,0.0018465,-0.1466091,-0.0014663,-0.3
 413171,0.9674442,-0.1265061,0.0062771,-0.2997362,0.3372724,0.0246924,0
 .1094421,0.0616018,0.3293156,-0.0734605,-0.0030945,0.0085031,0.0589814
 ,-0.0009272,-0.0516157,0.008305,-0.0998981,-0.0432523,-0.059575,-0.034
 5536,-0.0282738,-0.0624525,-0.0325912,-0.0728925,-0.0256806,-0.0415779
 ,0.0470092,-0.0131342,-0.0174282,0.0684514,0.071269,0.021118,0.0597329
 ,0.0025507,0.028703,-0.0437789,-0.0899424,0.0767869,-0.0250665,0.08976
 92,0.0604599,0.0032436,-0.0285835,0.021543,0.0511169,0.0840243,0.00556
 53,0.013995,-0.0206203,-0.011583,0.0881855,0.0440835,0.0428763,-0.0456
 469,0.035584,-0.0854663,-0.0361051,-0.0637952,0.0103951,-0.0446635,-0.
 0100133,-0.0216178,0.0378029\Polar=97.4712633,1.0882482,63.0685144,3.2
 898552,-1.9905922,51.3952997\Quadrupole=3.5849204,-2.7053904,-0.87953,
 -2.7385931,1.201412,0.1199878\PG=C01 [X(C5H7O3)]\NImag=0\\0.48927049,-
 0.08299722,0.52679407,0.08924968,-0.12659189,0.07775438,-0.35010377,0.
 18516909,-0.09404466,0.33051301,0.14966341,-0.14436468,0.05246486,-0.1
 8259970,0.18946393,-0.08589173,0.05803894,-0.04458465,0.09030458,-0.06
 783281,0.04804879,-0.12434203,-0.06065254,0.00183816,0.02026778,0.0340
 1106,-0.00486597,0.84253830,-0.04690204,-0.31486762,0.05503450,0.00686
 833,-0.03626486,0.00955925,0.03337553,0.59781949,-0.00148184,0.0528783
 3,-0.05705396,0.00138252,0.01382083,-0.00194683,0.09860956,-0.09940722
 ,0.18037055,0.01212310,-0.00677344,0.00231759,0.00109975,-0.00293855,0
 .00017632,-0.23633837,0.13142161,-0.05864441,0.24426934,0.02730306,-0.
 02965779,0.01265545,-0.00408075,-0.00432908,0.00136253,0.11844746,-0.1
 3654928,0.03802391,-0.13304434,0.16038625,-0.00546716,0.00746328,0.004
 55828,0.00044907,0.00155680,0.00412787,-0.05573594,0.04009590,-0.06694
 803,0.06401163,-0.05152930,0.04580010,-0.01741015,-0.06632109,0.009477
 49,-0.01316482,0.00413065,-0.00268975,-0.45560951,-0.11838261,-0.03420
 728,-0.01766630,-0.00572759,-0.00247697,0.74364431,-0.04897315,-0.0334
 2333,0.00480973,-0.00245622,0.00149842,-0.00109133,-0.11390933,-0.1325
 6747,0.00155205,0.01258301,0.00998678,0.00138927,0.06705021,0.30795485
 ,0.00558756,0.00224367,0.02004274,-0.00116020,-0.00006837,-0.00172467,
 -0.03536600,0.00064434,-0.05527948,-0.00674477,-0.00135813,0.00707777,
 0.08909061,-0.04799996,0.07884056,0.00914875,0.03448132,-0.00653847,0.
 00660502,-0.00849085,0.00297552,-0.04825122,-0.00920330,-0.00471223,-0
 .00256674,-0.00290009,-0.00093818,-0.18422772,0.07107605,-0.03393421,0
 .65503723,0.00901831,-0.03676943,0.01015954,-0.02827974,0.00048132,-0.
 00461764,0.00910948,0.05241908,-0.01167746,-0.00207280,-0.00085404,0.0
 0162337,0.06618730,-0.11462941,0.02071301,0.01400056,0.86544993,-0.000
 76921,0.01388243,-0.00256269,0.00767392,-0.00149481,0.00089964,-0.0089
 8011,-0.01431528,-0.00194656,-0.00111402,0.00155554,0.00728575,-0.0325
 3575,0.02146470,-0.07806371,0.06384424,-0.15025042,0.25368593,-0.01539
 406,0.00533908,-0.00373282,0.00325388,0.00473223,0.00022241,-0.0011390
 2,-0.01132841,0.00225618,0.00042945,0.00073044,-0.00004767,0.00780355,
 0.03486119,-0.01021086,-0.11276067,0.00850061,-0.00761811,0.12477678,-
 0.00290924,0.03038095,-0.00730060,0.01954519,-0.00637081,0.00340674,-0
 .02491598,-0.02684250,0.00275646,0.00024316,0.00054262,-0.00019586,0.0
 5117975,-0.05155063,0.02468769,-0.02076799,-0.61975079,0.12204622,0.03
 119028,0.74391446,-0.00176235,-0.00611770,0.00189430,-0.00332431,0.001
 06347,-0.00561896,0.00543748,0.00489952,0.00105541,0.00006600,-0.00008
 868,-0.00030646,-0.01417689,0.02216128,0.01427030,0.00028325,0.1280966
 8,-0.10835743,0.00627335,-0.15891606,0.07524389,-0.00480395,-0.0095312
 2,0.00154252,0.00271615,0.00173036,-0.00012221,0.00499956,0.01502193,-
 0.00300716,-0.00127321,-0.00065430,0.00013474,-0.06500008,-0.01703718,
 -0.00796732,-0.26503821,-0.09086817,-0.00625629,-0.00804664,-0.0628170
 6,0.00686172,0.55471014,-0.00380522,0.00255174,-0.00133694,0.00540654,
 -0.00040980,0.00118432,0.00460130,-0.00461364,0.00222197,0.00078877,0.
 00060862,-0.00025146,0.00628352,0.01421524,0.00041843,-0.06787027,-0.1
 6439403,0.01275779,-0.06735811,-0.06613313,0.01131935,0.05603743,0.355
 18059,0.00019426,-0.00218566,0.00000346,-0.00098978,0.00056447,0.00064
 980,-0.00037440,0.00379959,0.00110242,-0.00018166,-0.00045869,-0.00094
 040,-0.01290509,-0.00309566,0.00960670,-0.01354719,0.00851595,-0.07026
 542,0.00944339,0.01228936,0.02680774,0.05375278,-0.05296255,0.10315666
 ,0.00200164,0.00310739,-0.00036873,-0.00121181,-0.00054916,-0.00016321
 ,-0.00291940,-0.00327933,0.00026359,0.00008497,0.00001095,0.00002105,0
 .00523581,-0.00185569,0.00124162,-0.06587223,-0.00414620,-0.01108883,0
 .00497035,0.01545280,-0.00249360,-0.14525369,0.03434537,-0.02231712,0.
 50737465,-0.00055750,-0.00121526,0.00026860,0.00043224,0.00029751,-0.0
 0007221,0.00016573,0.00236489,-0.00035346,-0.00032615,-0.00019215,-0.0
 0015814,-0.00637923,-0.00222732,0.00034333,-0.00529273,0.02877236,-0.0
 0751870,-0.00411256,-0.00969826,0.00021567,0.05594867,-0.12579930,0.02
 557066,0.10747204,0.57912536,0.00035962,0.00081213,-0.00020158,-0.0001
 5902,-0.00005294,0.00022197,-0.00076960,-0.00089738,0.00077055,0.00012
 912,-0.00013724,-0.00064584,0.00098273,0.00115181,0.00555700,-0.011658
 95,-0.00983742,-0.00015884,0.00014179,0.00403226,-0.00660729,-0.026785
 36,0.02333618,-0.07575287,-0.00093886,-0.02282465,0.56172783,-0.000253
 42,-0.00082607,0.00015099,0.00002802,0.00014017,-0.00002211,0.00050048
 ,0.00097698,-0.00034090,-0.00006815,0.00001327,0.00017255,-0.00122094,
 -0.00058710,-0.00137086,0.00382319,0.00701530,0.00204505,-0.00028674,-
 0.00226374,0.00106894,-0.03036535,0.02468012,0.02456275,-0.08595535,0.
 00920200,0.02634738,0.57532846,0.00017676,0.00015123,-0.00003389,-0.00
 015820,-0.00002495,0.00005830,-0.00019526,-0.00017832,0.00005138,0.000
 03801,-0.00000812,-0.00005823,0.00060818,0.00017674,0.00075075,-0.0021
 5080,-0.00031344,0.00013308,0.00147625,0.00018401,-0.00194080,0.018509
 41,-0.01215391,-0.01166038,0.01249443,-0.11195412,-0.05125119,0.019590
 65,0.56349228,-0.00012509,-0.00041585,0.00009016,0.00001600,0.00006616
 ,-0.00006629,0.00016774,0.00052430,-0.00014261,-0.00003209,0.00000196,
 0.00008435,-0.00040171,-0.00040641,-0.00067979,0.00263281,0.00442229,0
 .00042369,0.00056788,-0.00234900,-0.00004541,-0.00650787,0.00374894,0.
 01162519,0.03675950,-0.05673244,-0.17801276,0.02917857,-0.03746567,0.5
 2980325,-0.00017854,-0.00043825,0.00008195,0.00011071,0.00009780,-0.00
 000048,0.00005076,0.00079715,-0.00010381,-0.00008901,-0.00006929,-0.00
 004628,-0.00160539,-0.00070160,0.00019403,-0.00047325,0.00518367,-0.00
 312799,0.00027969,-0.00094605,0.00023959,-0.03594307,-0.01711987,-0.00
 930548,-0.15128305,-0.12296047,-0.04504816,0.01048043,0.00956069,0.003
 74078,0.18010320,-0.00007138,0.00014970,-0.00002589,0.00009906,-0.0000
 1299,-0.00002238,0.00011016,-0.00036574,0.00005049,0.00004964,0.000042
 78,0.00004810,0.00074268,0.00044677,-0.00038407,0.00216530,-0.00402533
 ,0.00209571,-0.00135691,0.00185673,-0.00079403,0.02168395,0.01351593,0
 .00720692,-0.13592404,-0.20107167,-0.05545129,-0.00935218,-0.01099922,
 -0.00369265,0.13054601,0.21136223,0.00004792,-0.00010354,0.00003385,-0
 .00008868,-0.00001919,-0.00000892,-0.00001716,0.00020730,-0.00003172,-
 0.00001366,-0.00002194,-0.00003490,-0.00045982,-0.00016734,0.00023031,
 0.00078292,0.00337891,-0.00101125,0.00147761,-0.00100274,0.00093779,-0
 .01077268,-0.00479635,-0.00184449,-0.04483784,-0.05150881,-0.07325967,
 -0.01656947,-0.02126953,-0.00777361,0.05243435,0.05982432,0.07533065,-
 0.00003434,-0.00054793,0.00007285,-0.00015437,0.00005699,0.00002109,0.
 00025898,0.00065243,-0.00002885,0.00000543,-0.00003811,-0.00010542,-0.
 00076633,-0.00004616,0.00093246,0.00431244,0.00611810,-0.00239067,-0.0
 0178138,-0.00317534,0.00012676,-0.00891286,0.02510837,-0.02916350,-0.0
 6246451,-0.04055739,0.04857198,-0.00094587,-0.00757993,0.00887617,-0.0
 0185873,-0.01094455,0.01594594,0.07206165,0.00016586,0.00028059,-0.000
 11240,-0.00007929,-0.00001146,0.00003963,-0.00024088,-0.00031774,0.000
 04290,0.00002121,0.00001648,0.00002813,0.00057116,-0.00010793,0.000164
 95,-0.00416967,-0.00180269,0.00005759,-0.00128447,0.00096575,-0.001261
 25,0.00949525,-0.01389658,0.01387240,-0.03233535,-0.15037856,0.1260644
 8,0.00301667,0.01278201,-0.01562027,-0.00449283,-0.01170150,0.01689925
 ,0.02872245,0.16466421,0.00009374,-0.00009430,0.00005010,-0.00014116,-
 0.00002709,-0.00001482,0.00002370,0.00015444,-0.00001907,-0.00000461,-
 0.00001462,-0.00001822,-0.00012495,-0.00026565,-0.00001321,0.00235196,
 0.00442780,-0.00002217,0.00147195,-0.00224306,0.00089283,-0.00690651,0
 .00575761,-0.00459111,0.03963246,0.12413257,-0.21013854,0.00645570,0.0
 1515831,-0.01976182,-0.00074192,-0.00641689,0.00944812,-0.04361227,-0.
 13786365,0.22568436,-0.00016517,-0.00032554,0.00006792,0.00008763,0.00
 007289,-0.00002842,0.00027417,0.00036151,-0.00006667,-0.00000830,-0.00
 000105,0.00001403,-0.00046022,-0.00001700,-0.00026194,0.00183696,0.000
 32263,-0.00011454,-0.00048308,-0.00008905,0.00055119,-0.00082411,0.000
 94045,0.00252122,-0.00978792,0.00261955,-0.00492302,-0.25477929,0.1021
 7430,-0.05473884,0.00035526,0.00021195,0.00019359,0.00007714,-0.000308
 03,0.00034469,0.27496665,0.00007506,0.00021085,-0.00003014,-0.00000697
 ,-0.00002239,-0.00000651,-0.00013724,-0.00025704,0.00007087,0.00001452
 ,0.00000391,-0.00002112,0.00035707,0.00012337,0.00013031,-0.00173051,-
 0.00257199,-0.00028358,-0.00023822,0.00118955,0.00025565,0.00440121,-0
 .00100430,-0.00351242,0.01260266,-0.00692887,0.00724690,0.10121641,-0.
 09533964,0.02550947,-0.00058834,-0.00002544,0.00040984,-0.00008891,0.0
 0049398,-0.00005130,-0.11269147,0.10072082,0.00006136,0.00021371,-0.00
 001178,-0.00001661,-0.00003575,-0.00001138,-0.00005986,-0.00027531,0.0
 0006811,0.00002800,-0.00000103,-0.00005225,0.00037914,0.00024396,0.000
 40329,-0.00147944,-0.00238716,-0.00039550,0.00007470,0.00104062,-0.000
 18860,0.00612089,-0.00399194,-0.00405029,0.02190772,-0.00865246,0.0091
 9654,-0.05631923,0.02679924,-0.06256033,-0.00081369,0.00008717,0.00097
 460,-0.00030412,0.00117493,0.00050315,0.05961455,-0.02760673,0.0640451
 5,0.00001662,0.00013283,-0.00004902,0.00003725,-0.00002453,0.00002274,
 -0.00010391,-0.00014568,0.00002402,-0.00000360,0.00000677,0.00001387,0
 .00008315,0.00008762,-0.00005644,-0.00095886,-0.00144818,0.00035706,-0
 .00035666,0.00097618,0.00002936,0.00171240,-0.00088189,-0.00067762,-0.
 00339115,-0.00647621,0.00986814,-0.05269346,-0.02526273,0.02805815,0.0
 0021319,0.00027200,-0.00074178,-0.00002104,0.00132170,0.00190318,0.005
 57996,0.01743835,-0.02276099,0.05223718,-0.00006122,-0.00004676,-0.000
 02098,0.00005127,-0.00000721,0.00002529,0.00005525,0.00004458,0.000015
 60,-0.00000534,0.00000310,0.00000879,-0.00014021,0.00007071,-0.0001598
 0,0.00042995,-0.00016430,0.00033621,-0.00034968,0.00033585,0.00024009,
 -0.00215127,0.00114877,0.00075305,0.00359494,0.01199434,-0.01656103,-0
 .02520293,-0.15611922,0.13255761,-0.00039443,0.00097100,0.00072219,0.0
 0190036,-0.00161702,-0.00318620,-0.00301940,-0.00865524,0.00900089,0.0
 2599586,0.16529210,0.00002419,0.00003967,0.00000918,-0.00002297,-0.000
 01399,-0.00001412,-0.00001048,-0.00006112,0.00000835,0.00000522,0.0000
 0094,-0.00000338,0.00013396,0.00001115,-0.00000590,0.00017340,0.000354
 26,-0.00017820,-0.00004794,-0.00023076,0.00022642,-0.00118551,0.000212
 86,0.00280957,0.00335017,0.01821552,-0.02361319,0.02925556,0.12958891,
 -0.20667730,-0.00043389,0.00003286,0.00080485,0.00163791,-0.00389919,-
 0.00288564,0.00090097,0.00298112,-0.00489653,-0.03335693,-0.14107729,0
 .22640007,0.00012484,0.00018360,-0.00006544,-0.00008443,-0.00003277,0.
 00006122,-0.00018656,-0.00023410,0.00005728,0.00000163,0.00000355,0.00
 000067,0.00036464,-0.00007466,0.00002630,-0.00061468,0.00135912,0.0000
 7523,-0.00126546,-0.00070291,0.00081952,0.00132291,-0.00115651,-0.0010
 1255,0.00847170,0.01082201,0.00388220,-0.16359202,-0.12928174,-0.04819
 199,-0.00016220,0.00176833,0.00261878,0.00022379,-0.00040378,-0.000745
 94,-0.01666968,-0.02062363,-0.00643241,-0.00235105,-0.00070316,-0.0004
 2367,0.17441655,-0.00012548,-0.00017423,0.00006004,0.00008915,0.000077
 05,-0.00003212,0.00017527,0.00017616,-0.00004666,0.00000069,-0.0000000
 9,0.00000047,-0.00015979,0.00003320,-0.00012617,0.00042305,-0.00184724
 ,-0.00046648,-0.00080171,0.00097620,0.00086680,0.00023097,0.00118381,0
 .00130295,-0.01099081,-0.01308894,-0.00563065,-0.12761957,-0.18969533,
 -0.05014843,0.00152580,-0.00014325,-0.00255236,0.00041962,0.00063044,0
 .00053203,0.00974826,0.01206244,0.00438986,-0.01199209,-0.01325071,-0.
 00615493,0.13907665,0.20306049,-0.00012095,-0.00006323,-0.00002179,0.0
 0012130,0.00000838,0.00004256,0.00010289,0.00003715,-0.00000712,0.0000
 0133,0.00000931,0.00001536,-0.00008572,0.00024241,-0.00026192,-0.00023
 541,-0.00292172,0.00066675,-0.00027185,0.00197872,-0.00020451,0.001098
 25,0.00238179,0.00168305,-0.02096791,-0.02092548,-0.00908329,-0.044614
 92,-0.04886027,-0.06630671,0.00293100,-0.00255839,-0.00379561,-0.00058
 034,0.00041249,0.00088604,-0.00407474,-0.00509237,-0.00302418,0.017366
 26,0.01734556,0.00801582,0.04933081,0.05800566,0.07139557\\-0.00000091
 ,-0.00000152,-0.00000070,-0.00000083,0.00000140,-0.00000205,0.00000118
 ,0.00000269,0.00000076,0.00000061,0.00000228,0.00000181,0.00000060,0.0
 0000117,0.00000155,0.00000063,-0.00000223,0.00000096,-0.00000088,0.000
 00182,-0.00000176,0.00000051,-0.00000156,0.00000188,-0.00000195,-0.000
 00018,-0.00000036,0.00000021,0.,-0.00000051,0.00000078,-0.00000275,0.0
 0000186,0.00000047,-0.00000290,-0.00000048,-0.00000033,-0.00000056,-0.
 00000140,0.00000015,0.00000143,0.00000036,-0.00000023,0.00000091,-0.00
 000191\\\@


 LET US PLACE AT THE END OF EVERY CHAPTER.....THE
 TWO LETTERS USED BY THE ROMAN JUDGES WHEN THEY DID
 NOT UNDERSTAND A PLEADING.
 N. L. -NON LIQUET- IT IS NOT CLEAR.
                                              -- VOLTAIRE
 Job cpu time:       0 days  0 hours 46 minutes 16.5 seconds.
 Elapsed time:       0 days  0 hours  1 minutes 55.7 seconds.
 File lengths (MBytes):  RWF=    153 Int=      0 D2E=      0 Chk=      8 Scr=      1
 Normal termination of Gaussian 16 at Sun Jun  8 23:50:26 2025.
