 Entering Gaussian System, Link 0=g16
 Initial command:
 /opt/g16/l1.exe "/home/aayush/scratches/g16/Gau-24742.inp" -scrdir="/home/aayush/scratches/g16/"
 Entering Link 1 = /opt/g16/l1.exe PID=     24745.
  
 Copyright (c) 1988,1990,1992,1993,1995,1998,2003,2009,2016,
            Gaussian, Inc.  All Rights Reserved.
  
 This is part of the Gaussian(R) 16 program.  It is based on
 the Gaussian(R) 09 system (copyright 2009, Gaussian, Inc.),
 the Gaussian(R) 03 system (copyright 2003, Gaussian, Inc.),
 the Gaussian(R) 98 system (copyright 1998, Gaussian, Inc.),
 the Gaussian(R) 94 system (copyright 1995, Gaussian, Inc.),
 the Gaussian 92(TM) system (copyright 1992, Gaussian, Inc.),
 the Gaussian 90(TM) system (copyright 1990, Gaussian, Inc.),
 the Gaussian 88(TM) system (copyright 1988, Gaussian, Inc.),
 the Gaussian 86(TM) system (copyright 1986, Carnegie Mellon
 University), and the Gaussian 82(TM) system (copyright 1983,
 Carnegie Mellon University). Gaussian is a federally registered
 trademark of Gaussian, Inc.
  
 This software contains proprietary and confidential information,
 including trade secrets, belonging to Gaussian, Inc.
  
 This software is provided under written license and may be
 used, copied, transmitted, or stored only in accord with that
 written license.
  
 The following legend is applicable only to US Government
 contracts under FAR:
  
                    RESTRICTED RIGHTS LEGEND
  
 Use, reproduction and disclosure by the US Government is
 subject to restrictions as set forth in subparagraphs (a)
 and (c) of the Commercial Computer Software - Restricted
 Rights clause in FAR 52.227-19.
  
 Gaussian, Inc.
 340 Quinnipiac St., Bldg. 40, Wallingford CT 06492
  
  
 ---------------------------------------------------------------
 Warning -- This program may not be used in any manner that
 competes with the business of Gaussian, Inc. or will provide
 assistance to any competitor of Gaussian, Inc.  The licensee
 of this program is prohibited from giving any competitor of
 Gaussian, Inc. access to this program.  By using this program,
 the user acknowledges that Gaussian, Inc. is engaged in the
 business of creating and licensing software in the field of
 computational chemistry and represents and warrants to the
 licensee that it is not a competitor of Gaussian, Inc. and that
 it will not use this program in any manner prohibited above.
 ---------------------------------------------------------------
  

 Cite this work as:
 Gaussian 16, Revision A.03,
 M. J. Frisch, G. W. Trucks, H. B. Schlegel, G. E. Scuseria, 
 M. A. Robb, J. R. Cheeseman, G. Scalmani, V. Barone, 
 G. A. Petersson, H. Nakatsuji, X. Li, M. Caricato, A. V. Marenich, 
 J. Bloino, B. G. Janesko, R. Gomperts, B. Mennucci, H. P. Hratchian, 
 J. V. Ortiz, A. F. Izmaylov, J. L. Sonnenberg, D. Williams-Young, 
 F. Ding, F. Lipparini, F. Egidi, J. Goings, B. Peng, A. Petrone, 
 T. Henderson, D. Ranasinghe, V. G. Zakrzewski, J. Gao, N. Rega, 
 G. Zheng, W. Liang, M. Hada, M. Ehara, K. Toyota, R. Fukuda, 
 J. Hasegawa, M. Ishida, T. Nakajima, Y. Honda, O. Kitao, H. Nakai, 
 T. Vreven, K. Throssell, J. A. Montgomery, Jr., J. E. Peralta, 
 F. Ogliaro, M. J. Bearpark, J. J. Heyd, E. N. Brothers, K. N. Kudin, 
 V. N. Staroverov, T. A. Keith, R. Kobayashi, J. Normand, 
 K. Raghavachari, A. P. Rendell, J. C. Burant, S. S. Iyengar, 
 J. Tomasi, M. Cossi, J. M. Millam, M. Klene, C. Adamo, R. Cammi, 
 J. W. Ochterski, R. L. Martin, K. Morokuma, O. Farkas, 
 J. B. Foresman, and D. J. Fox, Gaussian, Inc., Wallingford CT, 2016.
 
 ******************************************
 Gaussian 16:  ES64L-G16RevA.03 25-Dec-2016
                 9-Jun-2025 
 ******************************************
 %chk=ethyl_propiolate_non_planar.chk
 %mem=12GB
 %nprocshared=24
 Will use up to   24 processors via shared memory.
 ---------------------------------------------------------
 # opt=(calcfc,tight,noeigentest) freq 6-311++g(d,p) m062x
 ---------------------------------------------------------
 1/7=10,10=4,11=1,18=20,19=15,26=3,38=1/1,3;
 2/9=110,12=2,17=6,18=5,40=1/2;
 3/5=4,6=6,7=1111,11=2,25=1,30=1,71=2,74=-55,140=1/1,2,3;
 4//1;
 5/5=2,38=5/2;
 8/6=4,10=90,11=11/1;
 11/6=1,8=1,9=11,15=111,16=1/1,2,10;
 10/6=1,13=1/2;
 6/7=2,8=2,9=2,10=2,28=1/1;
 7/10=1,18=20,25=1/1,2,3,16;
 1/7=10,10=4,11=1,18=20,19=15,26=3/3(2);
 2/9=110/2;
 99//99;
 2/9=110/2;
 3/5=4,6=6,7=1111,11=2,25=1,30=1,71=1,74=-55/1,2,3;
 4/5=5,16=3,69=1/1;
 5/5=2,38=5/2;
 7//1,2,3,16;
 1/7=10,11=1,18=20,19=15,26=3/3(-5);
 2/9=110/2;
 6/7=2,8=2,9=2,10=2,19=2,28=1/1;
 99/9=1/99;
 -------------------
 Title Card Required
 -------------------
 Symbolic Z-matrix:
 Charge =  0 Multiplicity = 2
 C                     2.67788   0.73833   0.26174 
 H                     2.79272   1.80898   0.27097 
 C                     1.66667  -0.09796   0.08754 
 C                     0.2903    0.40882  -0.16748 
 O                    -0.03959   1.58914  -0.24308 
 O                    -0.58367  -0.63065  -0.31563 
 C                    -2.00049  -0.31322  -0.5572 
 C                    -2.69512   0.02849   0.74801 
 H                    -2.39285  -1.22063  -1.01416 
 H                    -2.04128   0.51441  -1.26898 
 H                    -3.76088   0.19607   0.56657 
 H                    -2.59158  -0.79066   1.46378 
 H                    -2.27518   0.93882   1.18197 
 O                     1.8301   -1.47169   0.13152 
 H                     0.97886  -1.92818  -0.01836 
 

 GradGradGradGradGradGradGradGradGradGradGradGradGradGradGradGradGradGrad
 Berny optimization.
 Initialization pass.
                           ----------------------------
                           !    Initial Parameters    !
                           ! (Angstroms and Degrees)  !
 --------------------------                            --------------------------
 ! Name  Definition              Value          Derivative Info.                !
 --------------------------------------------------------------------------------
 ! R1    R(1,2)                  1.0768         calculate D2E/DX2 analytically  !
 ! R2    R(1,3)                  1.3237         calculate D2E/DX2 analytically  !
 ! R3    R(3,4)                  1.4887         calculate D2E/DX2 analytically  !
 ! R4    R(3,14)                 1.3841         calculate D2E/DX2 analytically  !
 ! R5    R(4,5)                  1.2279         calculate D2E/DX2 analytically  !
 ! R6    R(4,6)                  1.3661         calculate D2E/DX2 analytically  !
 ! R7    R(6,7)                  1.4719         calculate D2E/DX2 analytically  !
 ! R8    R(7,8)                  1.5175         calculate D2E/DX2 analytically  !
 ! R9    R(7,9)                  1.0891         calculate D2E/DX2 analytically  !
 ! R10   R(7,10)                 1.0924         calculate D2E/DX2 analytically  !
 ! R11   R(8,11)                 1.094          calculate D2E/DX2 analytically  !
 ! R12   R(8,12)                 1.0927         calculate D2E/DX2 analytically  !
 ! R13   R(8,13)                 1.0924         calculate D2E/DX2 analytically  !
 ! R14   R(14,15)                0.9775         calculate D2E/DX2 analytically  !
 ! A1    A(2,1,3)              135.2944         calculate D2E/DX2 analytically  !
 ! A2    A(1,3,4)              120.9134         calculate D2E/DX2 analytically  !
 ! A3    A(1,3,14)             122.1844         calculate D2E/DX2 analytically  !
 ! A4    A(4,3,14)             116.9023         calculate D2E/DX2 analytically  !
 ! A5    A(3,4,5)              125.8861         calculate D2E/DX2 analytically  !
 ! A6    A(3,4,6)              110.5503         calculate D2E/DX2 analytically  !
 ! A7    A(5,4,6)              123.5633         calculate D2E/DX2 analytically  !
 ! A8    A(4,6,7)              118.0028         calculate D2E/DX2 analytically  !
 ! A9    A(6,7,8)              110.3657         calculate D2E/DX2 analytically  !
 ! A10   A(6,7,9)              103.648          calculate D2E/DX2 analytically  !
 ! A11   A(6,7,10)             107.8354         calculate D2E/DX2 analytically  !
 ! A12   A(8,7,9)              112.5556         calculate D2E/DX2 analytically  !
 ! A13   A(8,7,10)             111.8845         calculate D2E/DX2 analytically  !
 ! A14   A(9,7,10)             110.1452         calculate D2E/DX2 analytically  !
 ! A15   A(7,8,11)             109.7412         calculate D2E/DX2 analytically  !
 ! A16   A(7,8,12)             110.5622         calculate D2E/DX2 analytically  !
 ! A17   A(7,8,13)             110.6928         calculate D2E/DX2 analytically  !
 ! A18   A(11,8,12)            108.4072         calculate D2E/DX2 analytically  !
 ! A19   A(11,8,13)            108.223          calculate D2E/DX2 analytically  !
 ! A20   A(12,8,13)            109.1505         calculate D2E/DX2 analytically  !
 ! A21   A(3,14,15)            110.8428         calculate D2E/DX2 analytically  !
 ! D1    D(2,1,3,4)              0.0056         calculate D2E/DX2 analytically  !
 ! D2    D(2,1,3,14)           179.9759         calculate D2E/DX2 analytically  !
 ! D3    D(1,3,4,5)              0.1669         calculate D2E/DX2 analytically  !
 ! D4    D(1,3,4,6)            179.9539         calculate D2E/DX2 analytically  !
 ! D5    D(14,3,4,5)          -179.805          calculate D2E/DX2 analytically  !
 ! D6    D(14,3,4,6)            -0.018          calculate D2E/DX2 analytically  !
 ! D7    D(1,3,14,15)         -179.96           calculate D2E/DX2 analytically  !
 ! D8    D(4,3,14,15)            0.0115         calculate D2E/DX2 analytically  !
 ! D9    D(3,4,6,7)            179.1813         calculate D2E/DX2 analytically  !
 ! D10   D(5,4,6,7)             -1.0258         calculate D2E/DX2 analytically  !
 ! D11   D(4,6,7,8)            -80.6018         calculate D2E/DX2 analytically  !
 ! D12   D(4,6,7,9)            158.6557         calculate D2E/DX2 analytically  !
 ! D13   D(4,6,7,10)            41.8847         calculate D2E/DX2 analytically  !
 ! D14   D(6,7,8,11)          -176.1793         calculate D2E/DX2 analytically  !
 ! D15   D(6,7,8,12)           -56.6459         calculate D2E/DX2 analytically  !
 ! D16   D(6,7,8,13)            64.4336         calculate D2E/DX2 analytically  !
 ! D17   D(9,7,8,11)           -60.9196         calculate D2E/DX2 analytically  !
 ! D18   D(9,7,8,12)            58.6138         calculate D2E/DX2 analytically  !
 ! D19   D(9,7,8,13)           179.6933         calculate D2E/DX2 analytically  !
 ! D20   D(10,7,8,11)           63.742          calculate D2E/DX2 analytically  !
 ! D21   D(10,7,8,12)         -176.7246         calculate D2E/DX2 analytically  !
 ! D22   D(10,7,8,13)          -55.645          calculate D2E/DX2 analytically  !
 --------------------------------------------------------------------------------
 Trust Radius=3.00D-01 FncErr=1.00D-07 GrdErr=1.00D-06 EigMax=2.50D+02 EigMin=1.00D-04
 Number of steps in this run=     67 maximum allowed number of steps=    100.
 GradGradGradGradGradGradGradGradGradGradGradGradGradGradGradGradGradGrad

                          Input orientation:                          
 ---------------------------------------------------------------------
 Center     Atomic      Atomic             Coordinates (Angstroms)
 Number     Number       Type             X           Y           Z
 ---------------------------------------------------------------------
      1          6           0        2.677883    0.738330    0.261740
      2          1           0        2.792718    1.808982    0.270968
      3          6           0        1.666671   -0.097959    0.087544
      4          6           0        0.290303    0.408823   -0.167476
      5          8           0       -0.039594    1.589138   -0.243080
      6          8           0       -0.583671   -0.630647   -0.315627
      7          6           0       -2.000488   -0.313219   -0.557199
      8          6           0       -2.695116    0.028486    0.748010
      9          1           0       -2.392846   -1.220628   -1.014161
     10          1           0       -2.041284    0.514412   -1.268981
     11          1           0       -3.760877    0.196067    0.566574
     12          1           0       -2.591581   -0.790659    1.463781
     13          1           0       -2.275181    0.938822    1.181975
     14          8           0        1.830100   -1.471689    0.131519
     15          1           0        0.978855   -1.928178   -0.018363
 ---------------------------------------------------------------------
                    Distance matrix (angstroms):
                    1          2          3          4          5
     1  C    0.000000
     2  H    1.076832   0.000000
     3  C    1.323735   2.222172   0.000000
     4  C    2.448130   2.900820   1.488708   0.000000
     5  O    2.891954   2.886965   2.422179   1.227881   0.000000
     6  O    3.584018   4.206648   2.347412   1.366118   2.286641
     7  C    4.864522   5.307016   3.729623   2.433301   2.750043
     8  C    5.441457   5.789133   4.413320   3.145711   3.235690
     9  H    5.583702   6.141675   4.353598   3.251350   3.745283
    10  H    4.966265   5.235927   3.995509   2.580845   2.492844
    11  H    6.468740   6.755626   5.456574   4.122639   4.055137
    12  H    5.616935   6.096853   4.528418   3.522075   3.884514
    13  H    5.041812   5.222137   4.220295   2.946799   2.729751
    14  O    2.370628   3.421824   1.384116   2.448816   3.606209
    15  H    3.174180   4.164154   1.958062   2.440883   3.668685
                    6          7          8          9         10
     6  O    0.000000
     7  C    1.471899   0.000000
     8  C    2.454380   1.517511   0.000000
     9  H    2.027102   1.089105   2.181032   0.000000
    10  H    2.084390   1.092369   2.175287   1.788545   0.000000
    11  H    3.399467   2.149699   1.094006   2.525323   2.535272
    12  H    2.687675   2.159097   1.092724   2.522809   3.077990
    13  H    2.750864   2.160507   1.092421   3.082220   2.498403
    14  O    2.594915   4.060762   4.807095   4.382794   4.570953
    15  H    2.052667   3.431461   4.232484   3.586169   4.080629
                   11         12         13         14         15
    11  H    0.000000
    12  H    1.773658   0.000000
    13  H    1.771354   1.780626   0.000000
    14  O    5.850616   4.667975   4.875177   0.000000
    15  H    5.226818   4.029729   4.499917   0.977479   0.000000
 Stoichiometry    C5H7O3(2)
 Framework group  C1[X(C5H7O3)]
 Deg. of freedom    39
 Full point group                 C1      NOp   1
 Largest Abelian subgroup         C1      NOp   1
 Largest concise Abelian subgroup C1      NOp   1
                         Standard orientation:                         
 ---------------------------------------------------------------------
 Center     Atomic      Atomic             Coordinates (Angstroms)
 Number     Number       Type             X           Y           Z
 ---------------------------------------------------------------------
      1          6           0        2.677883    0.738330    0.261740
      2          1           0        2.792718    1.808982    0.270968
      3          6           0        1.666671   -0.097959    0.087544
      4          6           0        0.290303    0.408823   -0.167476
      5          8           0       -0.039594    1.589138   -0.243080
      6          8           0       -0.583671   -0.630647   -0.315627
      7          6           0       -2.000488   -0.313219   -0.557199
      8          6           0       -2.695116    0.028486    0.748010
      9          1           0       -2.392846   -1.220628   -1.014161
     10          1           0       -2.041284    0.514412   -1.268981
     11          1           0       -3.760877    0.196067    0.566574
     12          1           0       -2.591581   -0.790659    1.463781
     13          1           0       -2.275181    0.938822    1.181975
     14          8           0        1.830100   -1.471689    0.131519
     15          1           0        0.978855   -1.928178   -0.018363
 ---------------------------------------------------------------------
 Rotational constants (GHZ):           4.1208627           1.3295914           1.0972546
 Standard basis: 6-311++G(d,p) (5D, 7F)
 There are   233 symmetry adapted cartesian basis functions of A   symmetry.
 There are   225 symmetry adapted basis functions of A   symmetry.
   225 basis functions,   351 primitive gaussians,   233 cartesian basis functions
    31 alpha electrons       30 beta electrons
       nuclear repulsion energy       367.3473960642 Hartrees.
 NAtoms=   15 NActive=   15 NUniq=   15 SFac= 1.00D+00 NAtFMM=   60 NAOKFM=F Big=F
 Integral buffers will be    131072 words long.
 Raffenetti 2 integral format.
 Two-electron integral symmetry is turned on.
 One-electron integrals computed using PRISM.
 NBasis=   225 RedAO= T EigKep=  2.20D-05  NBF=   225
 NBsUse=   225 1.00D-06 EigRej= -1.00D+00 NBFU=   225
 ExpMin= 3.60D-02 ExpMax= 8.59D+03 ExpMxC= 1.30D+03 IAcc=3 IRadAn=         5 AccDes= 0.00D+00
 Harris functional with IExCor= 1009 and IRadAn=       5 diagonalized for initial guess.
 HarFok:  IExCor= 1009 AccDes= 0.00D+00 IRadAn=         5 IDoV= 1 UseB2=F ITyADJ=14
 ICtDFT=  3500011 ScaDFX=  1.000000  1.000000  1.000000  1.000000
 FoFCou: FMM=F IPFlag=           0 FMFlag=      100000 FMFlg1=           0
         NFxFlg=           0 DoJE=T BraDBF=F KetDBF=T FulRan=T
         wScrn=  0.000000 ICntrl=       500 IOpCl=  0 I1Cent=   200000004 NGrid=           0
         NMat0=    1 NMatS0=      1 NMatT0=    0 NMatD0=    1 NMtDS0=    0 NMtDT0=    0
 Petite list used in FoFCou.
 Initial guess <Sx>= 0.0000 <Sy>= 0.0000 <Sz>= 0.5000 <S**2>= 0.7500 S= 0.5000
 Requested convergence on RMS density matrix=1.00D-08 within 128 cycles.
 Requested convergence on MAX density matrix=1.00D-06.
 Requested convergence on             energy=1.00D-06.
 No special actions if energy rises.
 SCF Done:  E(UM062X) =  -420.266989475     A.U. after   18 cycles
            NFock= 18  Conv=0.45D-08     -V/T= 2.0041
 <Sx>= 0.0000 <Sy>= 0.0000 <Sz>= 0.5000 <S**2>= 0.7783 S= 0.5141
 <L.S>=  0.00000000000    
 Annihilation of the first spin contaminant:
 S**2 before annihilation     0.7783,   after     0.7502
 DoSCS=F DFT=T ScalE2(SS,OS)=  1.000000  1.000000
 Range of M.O.s used for correlation:     1   225
 NBasis=   225 NAE=    31 NBE=    30 NFC=     0 NFV=     0
 NROrb=    225 NOA=    31 NOB=    30 NVA=   194 NVB=   195

 **** Warning!!: The largest alpha MO coefficient is  0.52990692D+02


 **** Warning!!: The largest beta MO coefficient is  0.56464669D+02

 Symmetrizing basis deriv contribution to polar:
 IMax=3 JMax=2 DiffMx= 0.00D+00
 G2DrvN: will do    16 centers at a time, making    1 passes.
 Calling FoFCou, ICntrl=  3107 FMM=F I1Cent=   0 AccDes= 0.00D+00.
 End of G2Drv F.D. properties file   721 does not exist.
 End of G2Drv F.D. properties file   722 does not exist.
 End of G2Drv F.D. properties file   788 does not exist.
          IDoAtm=111111111111111
          Differentiating once with respect to nuclear coordinates.
 Keep R1 and R2 ints in memory in canonical form, NReq=671901991.
          There are    48 degrees of freedom in the 1st order CPHF.  IDoFFX=6 NUNeed=     0.
     42 vectors produced by pass  0 Test12= 2.47D-14 2.08D-09 XBig12= 3.54D-01 1.29D-01.
 AX will form    42 AO Fock derivatives at one time.
     42 vectors produced by pass  1 Test12= 2.47D-14 2.08D-09 XBig12= 8.11D-02 5.61D-02.
     42 vectors produced by pass  2 Test12= 2.47D-14 2.08D-09 XBig12= 2.69D-03 1.54D-02.
     42 vectors produced by pass  3 Test12= 2.47D-14 2.08D-09 XBig12= 5.74D-05 1.67D-03.
     42 vectors produced by pass  4 Test12= 2.47D-14 2.08D-09 XBig12= 6.64D-07 9.46D-05.
     42 vectors produced by pass  5 Test12= 2.47D-14 2.08D-09 XBig12= 6.68D-09 8.42D-06.
     39 vectors produced by pass  6 Test12= 2.47D-14 2.08D-09 XBig12= 5.71D-11 6.68D-07.
     22 vectors produced by pass  7 Test12= 2.47D-14 2.08D-09 XBig12= 4.43D-13 5.31D-08.
      3 vectors produced by pass  8 Test12= 2.47D-14 2.08D-09 XBig12= 3.39D-15 4.85D-09.
 InvSVY:  IOpt=1 It=  1 EMax= 1.78D-15
 Solved reduced A of dimension   316 with    42 vectors.
 End of Minotr F.D. properties file   721 does not exist.
 End of Minotr F.D. properties file   722 does not exist.
 End of Minotr F.D. properties file   788 does not exist.

 **********************************************************************

            Population analysis using the SCF density.

 **********************************************************************

 Orbital symmetries:
 Alpha Orbitals:
       Occupied  (A) (A) (A) (A) (A) (A) (A) (A) (A) (A) (A) (A)
                 (A) (A) (A) (A) (A) (A) (A) (A) (A) (A) (A) (A)
                 (A) (A) (A) (A) (A) (A) (A)
       Virtual   (A) (A) (A) (A) (A) (A) (A) (A) (A) (A) (A) (A)
                 (A) (A) (A) (A) (A) (A) (A) (A) (A) (A) (A) (A)
                 (A) (A) (A) (A) (A) (A) (A) (A) (A) (A) (A) (A)
                 (A) (A) (A) (A) (A) (A) (A) (A) (A) (A) (A) (A)
                 (A) (A) (A) (A) (A) (A) (A) (A) (A) (A) (A) (A)
                 (A) (A) (A) (A) (A) (A) (A) (A) (A) (A) (A) (A)
                 (A) (A) (A) (A) (A) (A) (A) (A) (A) (A) (A) (A)
                 (A) (A) (A) (A) (A) (A) (A) (A) (A) (A) (A) (A)
                 (A) (A) (A) (A) (A) (A) (A) (A) (A) (A) (A) (A)
                 (A) (A) (A) (A) (A) (A) (A) (A) (A) (A) (A) (A)
                 (A) (A) (A) (A) (A) (A) (A) (A) (A) (A) (A) (A)
                 (A) (A) (A) (A) (A) (A) (A) (A) (A) (A) (A) (A)
                 (A) (A) (A) (A) (A) (A) (A) (A) (A) (A) (A) (A)
                 (A) (A) (A) (A) (A) (A) (A) (A) (A) (A) (A) (A)
                 (A) (A) (A) (A) (A) (A) (A) (A) (A) (A) (A) (A)
                 (A) (A) (A) (A) (A) (A) (A) (A) (A) (A) (A) (A)
                 (A) (A)
 Beta  Orbitals:
       Occupied  (A) (A) (A) (A) (A) (A) (A) (A) (A) (A) (A) (A)
                 (A) (A) (A) (A) (A) (A) (A) (A) (A) (A) (A) (A)
                 (A) (A) (A) (A) (A) (A)
       Virtual   (A) (A) (A) (A) (A) (A) (A) (A) (A) (A) (A) (A)
                 (A) (A) (A) (A) (A) (A) (A) (A) (A) (A) (A) (A)
                 (A) (A) (A) (A) (A) (A) (A) (A) (A) (A) (A) (A)
                 (A) (A) (A) (A) (A) (A) (A) (A) (A) (A) (A) (A)
                 (A) (A) (A) (A) (A) (A) (A) (A) (A) (A) (A) (A)
                 (A) (A) (A) (A) (A) (A) (A) (A) (A) (A) (A) (A)
                 (A) (A) (A) (A) (A) (A) (A) (A) (A) (A) (A) (A)
                 (A) (A) (A) (A) (A) (A) (A) (A) (A) (A) (A) (A)
                 (A) (A) (A) (A) (A) (A) (A) (A) (A) (A) (A) (A)
                 (A) (A) (A) (A) (A) (A) (A) (A) (A) (A) (A) (A)
                 (A) (A) (A) (A) (A) (A) (A) (A) (A) (A) (A) (A)
                 (A) (A) (A) (A) (A) (A) (A) (A) (A) (A) (A) (A)
                 (A) (A) (A) (A) (A) (A) (A) (A) (A) (A) (A) (A)
                 (A) (A) (A) (A) (A) (A) (A) (A) (A) (A) (A) (A)
                 (A) (A) (A) (A) (A) (A) (A) (A) (A) (A) (A) (A)
                 (A) (A) (A) (A) (A) (A) (A) (A) (A) (A) (A) (A)
                 (A) (A) (A)
 The electronic state is 2-A.
 Alpha  occ. eigenvalues --  -19.69134 -19.65790 -19.63293 -10.70335 -10.63078
 Alpha  occ. eigenvalues --  -10.61801 -10.58399 -10.54650  -1.24574  -1.18080
 Alpha  occ. eigenvalues --   -1.15078  -0.90347  -0.87993  -0.78034  -0.70285
 Alpha  occ. eigenvalues --   -0.66954  -0.64141  -0.58544  -0.56471  -0.55248
 Alpha  occ. eigenvalues --   -0.54202  -0.50199  -0.48355  -0.47958  -0.46078
 Alpha  occ. eigenvalues --   -0.45569  -0.42919  -0.39238  -0.37523  -0.33605
 Alpha  occ. eigenvalues --   -0.32723
 Alpha virt. eigenvalues --   -0.02762  -0.00765   0.01059   0.01366   0.01605
 Alpha virt. eigenvalues --    0.03331   0.04320   0.05094   0.06220   0.06628
 Alpha virt. eigenvalues --    0.07362   0.08320   0.09073   0.09520   0.10698
 Alpha virt. eigenvalues --    0.11667   0.12187   0.12656   0.13114   0.13317
 Alpha virt. eigenvalues --    0.13976   0.14337   0.14607   0.14735   0.15713
 Alpha virt. eigenvalues --    0.16214   0.16965   0.17423   0.19944   0.20915
 Alpha virt. eigenvalues --    0.21912   0.22711   0.23687   0.24346   0.25006
 Alpha virt. eigenvalues --    0.25797   0.26716   0.28003   0.29090   0.29740
 Alpha virt. eigenvalues --    0.30836   0.31827   0.32203   0.33243   0.33881
 Alpha virt. eigenvalues --    0.34455   0.35008   0.36626   0.38790   0.38955
 Alpha virt. eigenvalues --    0.42368   0.43168   0.43824   0.45972   0.47055
 Alpha virt. eigenvalues --    0.49989   0.51447   0.55768   0.55998   0.57485
 Alpha virt. eigenvalues --    0.59610   0.60963   0.62232   0.63465   0.65118
 Alpha virt. eigenvalues --    0.66999   0.68079   0.68781   0.69831   0.72400
 Alpha virt. eigenvalues --    0.73400   0.74567   0.76521   0.78954   0.79594
 Alpha virt. eigenvalues --    0.82216   0.87917   0.91037   0.92963   0.96066
 Alpha virt. eigenvalues --    0.99628   1.00497   1.06268   1.08199   1.10650
 Alpha virt. eigenvalues --    1.11594   1.15934   1.17545   1.20932   1.22937
 Alpha virt. eigenvalues --    1.23329   1.26031   1.26285   1.27444   1.29027
 Alpha virt. eigenvalues --    1.34785   1.36649   1.39185   1.40444   1.46461
 Alpha virt. eigenvalues --    1.48965   1.50310   1.54616   1.57078   1.58257
 Alpha virt. eigenvalues --    1.60006   1.60120   1.61648   1.62773   1.67636
 Alpha virt. eigenvalues --    1.68911   1.71558   1.73375   1.75231   1.76009
 Alpha virt. eigenvalues --    1.80630   1.81477   1.83304   1.84466   1.86401
 Alpha virt. eigenvalues --    1.89839   1.92746   1.97654   2.06458   2.08326
 Alpha virt. eigenvalues --    2.09505   2.12137   2.14176   2.17397   2.21571
 Alpha virt. eigenvalues --    2.28167   2.30195   2.33801   2.39015   2.50014
 Alpha virt. eigenvalues --    2.52333   2.53459   2.60112   2.60993   2.62417
 Alpha virt. eigenvalues --    2.66201   2.66978   2.68136   2.69914   2.73205
 Alpha virt. eigenvalues --    2.75257   2.80068   2.81367   2.88814   2.89568
 Alpha virt. eigenvalues --    2.92328   2.93956   2.95265   2.98151   3.03431
 Alpha virt. eigenvalues --    3.10433   3.12807   3.13511   3.21104   3.23943
 Alpha virt. eigenvalues --    3.26209   3.30037   3.32098   3.40868   3.44922
 Alpha virt. eigenvalues --    3.58482   3.64241   3.71800   3.83398   3.85030
 Alpha virt. eigenvalues --    3.88344   3.94864   4.03297   4.08012   4.18535
 Alpha virt. eigenvalues --    4.24868   4.28485   5.10148   5.13602   5.17594
 Alpha virt. eigenvalues --    5.31381   5.44720   5.45655   5.70551   5.83927
 Alpha virt. eigenvalues --    5.92504  23.65909  23.87061  23.91831  24.04537
 Alpha virt. eigenvalues --   24.29412  49.97379  50.02995  50.11402
  Beta  occ. eigenvalues --  -19.69118 -19.65792 -19.63349 -10.70243 -10.63191
  Beta  occ. eigenvalues --  -10.61797 -10.57386 -10.54651  -1.24527  -1.18023
  Beta  occ. eigenvalues --   -1.15150  -0.89779  -0.86693  -0.77327  -0.68905
  Beta  occ. eigenvalues --   -0.66171  -0.63623  -0.58413  -0.56418  -0.54682
  Beta  occ. eigenvalues --   -0.53464  -0.50263  -0.48397  -0.47678  -0.46152
  Beta  occ. eigenvalues --   -0.45652  -0.42906  -0.39434  -0.37302  -0.30818
  Beta virt. eigenvalues --   -0.07084  -0.01786  -0.00678   0.01195   0.01433
  Beta virt. eigenvalues --    0.01740   0.03428   0.04504   0.05131   0.06232
  Beta virt. eigenvalues --    0.06668   0.07628   0.07975   0.09003   0.09880
  Beta virt. eigenvalues --    0.10560   0.11614   0.12308   0.12778   0.13073
  Beta virt. eigenvalues --    0.13249   0.14098   0.14555   0.14748   0.15001
  Beta virt. eigenvalues --    0.15485   0.16075   0.17104   0.17371   0.19889
  Beta virt. eigenvalues --    0.20876   0.21626   0.22680   0.23748   0.24688
  Beta virt. eigenvalues --    0.25384   0.25858   0.26497   0.28020   0.29108
  Beta virt. eigenvalues --    0.29646   0.30617   0.31801   0.32216   0.33153
  Beta virt. eigenvalues --    0.33917   0.33952   0.35102   0.36537   0.38855
  Beta virt. eigenvalues --    0.39042   0.42289   0.43200   0.44113   0.45928
  Beta virt. eigenvalues --    0.46947   0.50034   0.51481   0.56019   0.56189
  Beta virt. eigenvalues --    0.57826   0.59607   0.61096   0.62414   0.63403
  Beta virt. eigenvalues --    0.63875   0.64983   0.68068   0.68886   0.69831
  Beta virt. eigenvalues --    0.72376   0.73563   0.74757   0.76613   0.79209
  Beta virt. eigenvalues --    0.80374   0.82198   0.88018   0.91342   0.92975
  Beta virt. eigenvalues --    0.96062   0.99541   1.00519   1.06445   1.08765
  Beta virt. eigenvalues --    1.10971   1.11853   1.15788   1.17546   1.21421
  Beta virt. eigenvalues --    1.23240   1.23463   1.26075   1.26455   1.28474
  Beta virt. eigenvalues --    1.30377   1.34940   1.36927   1.39330   1.43567
  Beta virt. eigenvalues --    1.46531   1.49152   1.50436   1.56096   1.57588
  Beta virt. eigenvalues --    1.58275   1.60110   1.60291   1.61982   1.62786
  Beta virt. eigenvalues --    1.67778   1.68956   1.71928   1.73591   1.75525
  Beta virt. eigenvalues --    1.76632   1.81059   1.82338   1.83801   1.84419
  Beta virt. eigenvalues --    1.86463   1.89970   1.93325   1.97702   2.06500
  Beta virt. eigenvalues --    2.08543   2.09803   2.12273   2.15396   2.18696
  Beta virt. eigenvalues --    2.21684   2.29353   2.30546   2.33969   2.39942
  Beta virt. eigenvalues --    2.50017   2.52357   2.53470   2.60146   2.60997
  Beta virt. eigenvalues --    2.62450   2.66395   2.67261   2.68777   2.70469
  Beta virt. eigenvalues --    2.73304   2.75750   2.80228   2.84673   2.89227
  Beta virt. eigenvalues --    2.89777   2.92545   2.95099   2.95835   2.98037
  Beta virt. eigenvalues --    3.05392   3.10497   3.12768   3.13420   3.21073
  Beta virt. eigenvalues --    3.23840   3.26431   3.30192   3.32379   3.40755
  Beta virt. eigenvalues --    3.44948   3.59314   3.64625   3.72551   3.83402
  Beta virt. eigenvalues --    3.85030   3.88356   3.94953   4.03328   4.08416
  Beta virt. eigenvalues --    4.18568   4.24996   4.28625   5.09999   5.13488
  Beta virt. eigenvalues --    5.17424   5.31274   5.44746   5.45664   5.70605
  Beta virt. eigenvalues --    5.83930   5.92506  23.66236  23.87097  23.91849
  Beta virt. eigenvalues --   24.04538  24.30319  49.97376  50.02995  50.11467
          Condensed to atoms (all electrons):
               1          2          3          4          5          6
     1  C    6.458378   0.415159   0.090720  -0.675772   0.107666   0.046654
     2  H    0.415159   0.470242  -0.026659  -0.068427   0.004054  -0.000364
     3  C    0.090720  -0.026659   7.102725  -1.216125   0.006832  -0.408156
     4  C   -0.675772  -0.068427  -1.216125   7.950649   0.268674   0.121756
     5  O    0.107666   0.004054   0.006832   0.268674   8.071274  -0.169201
     6  O    0.046654  -0.000364  -0.408156   0.121756  -0.169201   8.506635
     7  C   -0.028770  -0.003018  -0.089036  -0.027145   0.075954   0.136899
     8  C    0.015334   0.001155   0.045686  -0.130543  -0.069754  -0.057844
     9  H   -0.000647   0.000016  -0.003497   0.017206   0.006809  -0.086433
    10  H   -0.006579  -0.000228  -0.017729   0.022907  -0.022377  -0.021632
    11  H    0.000449   0.000035   0.005039  -0.004581  -0.000152   0.017609
    12  H   -0.001489  -0.000054  -0.000903   0.003466   0.000406  -0.005005
    13  H   -0.003061  -0.000309  -0.025433   0.012895   0.007466  -0.020478
    14  O   -0.266452   0.005015   0.253043  -0.009685   0.001501   0.028660
    15  H    0.069129   0.001369   0.056499  -0.136422   0.000309   0.014005
               7          8          9         10         11         12
     1  C   -0.028770   0.015334  -0.000647  -0.006579   0.000449  -0.001489
     2  H   -0.003018   0.001155   0.000016  -0.000228   0.000035  -0.000054
     3  C   -0.089036   0.045686  -0.003497  -0.017729   0.005039  -0.000903
     4  C   -0.027145  -0.130543   0.017206   0.022907  -0.004581   0.003466
     5  O    0.075954  -0.069754   0.006809  -0.022377  -0.000152   0.000406
     6  O    0.136899  -0.057844  -0.086433  -0.021632   0.017609  -0.005005
     7  C    5.411499   0.026376   0.443036   0.406313  -0.047873  -0.025022
     8  C    0.026376   5.463418  -0.066126  -0.018723   0.404742   0.406764
     9  H    0.443036  -0.066126   0.541336  -0.038738   0.000082  -0.011792
    10  H    0.406313  -0.018723  -0.038738   0.504831  -0.005435   0.004690
    11  H   -0.047873   0.404742   0.000082  -0.005435   0.530068  -0.034384
    12  H   -0.025022   0.406764  -0.011792   0.004690  -0.034384   0.545930
    13  H    0.000982   0.378533   0.011967  -0.012993  -0.030502  -0.046167
    14  O   -0.004923   0.000850   0.000169   0.001039  -0.000017   0.000138
    15  H   -0.008780   0.003377  -0.002484   0.000048   0.000202  -0.000742
              13         14         15
     1  C   -0.003061  -0.266452   0.069129
     2  H   -0.000309   0.005015   0.001369
     3  C   -0.025433   0.253043   0.056499
     4  C    0.012895  -0.009685  -0.136422
     5  O    0.007466   0.001501   0.000309
     6  O   -0.020478   0.028660   0.014005
     7  C    0.000982  -0.004923  -0.008780
     8  C    0.378533   0.000850   0.003377
     9  H    0.011967   0.000169  -0.002484
    10  H   -0.012993   0.001039   0.000048
    11  H   -0.030502  -0.000017   0.000202
    12  H   -0.046167   0.000138  -0.000742
    13  H    0.538112   0.001013  -0.000298
    14  O    0.001013   7.960340   0.276546
    15  H   -0.000298   0.276546   0.407987
          Atomic-Atomic Spin Densities.
               1          2          3          4          5          6
     1  C    1.283269   0.015120  -0.054073  -0.127360  -0.010797   0.017589
     2  H    0.015120   0.019325  -0.016364  -0.028855  -0.000115   0.001148
     3  C   -0.054073  -0.016364  -0.112985   0.050912   0.013853  -0.012198
     4  C   -0.127360  -0.028855   0.050912   0.217831   0.011139  -0.033209
     5  O   -0.010797  -0.000115   0.013853   0.011139  -0.037780  -0.007812
     6  O    0.017589   0.001148  -0.012198  -0.033209  -0.007812   0.034747
     7  C   -0.020712  -0.001405   0.009207   0.015834   0.005649  -0.015762
     8  C    0.005012   0.000378   0.001147  -0.008471  -0.001090   0.004741
     9  H    0.000223   0.000036  -0.001322   0.002295  -0.000189   0.000531
    10  H   -0.000425  -0.000083   0.000469  -0.000993   0.000030  -0.000100
    11  H   -0.000190  -0.000008   0.000228  -0.000356   0.000103  -0.000273
    12  H    0.000069  -0.000009  -0.000274   0.000177  -0.000057   0.000118
    13  H   -0.000893  -0.000091   0.001049   0.001218  -0.000078  -0.001051
    14  O   -0.001781   0.005103   0.004685  -0.045520  -0.002446   0.011939
    15  H    0.008215   0.000407   0.009728  -0.012984   0.000315  -0.003344
               7          8          9         10         11         12
     1  C   -0.020712   0.005012   0.000223  -0.000425  -0.000190   0.000069
     2  H   -0.001405   0.000378   0.000036  -0.000083  -0.000008  -0.000009
     3  C    0.009207   0.001147  -0.001322   0.000469   0.000228  -0.000274
     4  C    0.015834  -0.008471   0.002295  -0.000993  -0.000356   0.000177
     5  O    0.005649  -0.001090  -0.000189   0.000030   0.000103  -0.000057
     6  O   -0.015762   0.004741   0.000531  -0.000100  -0.000273   0.000118
     7  C    0.025929  -0.005491  -0.003001   0.001812   0.000395  -0.000258
     8  C   -0.005491   0.000807   0.000749  -0.000935   0.000137   0.000350
     9  H   -0.003001   0.000749   0.001235   0.000084  -0.000246  -0.000045
    10  H    0.001812  -0.000935   0.000084  -0.000251   0.000211   0.000013
    11  H    0.000395   0.000137  -0.000246   0.000211   0.000381  -0.000063
    12  H   -0.000258   0.000350  -0.000045   0.000013  -0.000063   0.000027
    13  H    0.000016   0.000628  -0.000149   0.000269  -0.000194  -0.000033
    14  O   -0.006441   0.001036   0.000368  -0.000148  -0.000049   0.000060
    15  H   -0.000498   0.000563  -0.000117  -0.000093   0.000010  -0.000059
              13         14         15
     1  C   -0.000893  -0.001781   0.008215
     2  H   -0.000091   0.005103   0.000407
     3  C    0.001049   0.004685   0.009728
     4  C    0.001218  -0.045520  -0.012984
     5  O   -0.000078  -0.002446   0.000315
     6  O   -0.001051   0.011939  -0.003344
     7  C    0.000016  -0.006441  -0.000498
     8  C    0.000628   0.001036   0.000563
     9  H   -0.000149   0.000368  -0.000117
    10  H    0.000269  -0.000148  -0.000093
    11  H   -0.000194  -0.000049   0.000010
    12  H   -0.000033   0.000060  -0.000059
    13  H   -0.000339  -0.000316  -0.000032
    14  O   -0.000316   0.026531  -0.011236
    15  H   -0.000032  -0.011236   0.010720
 Mulliken charges and spin densities:
               1          2
     1  C   -0.220720   1.113267
     2  H    0.202014  -0.005412
     3  C    0.226995  -0.105938
     4  C   -0.128854   0.041658
     5  O   -0.289463  -0.029275
     6  O   -0.103107  -0.002936
     7  C   -0.266493   0.005276
     8  C   -0.403245  -0.000439
     9  H    0.189095   0.000453
    10  H    0.204605  -0.000139
    11  H    0.164718   0.000088
    12  H    0.164166   0.000014
    13  H    0.188272   0.000002
    14  O   -0.247238  -0.018216
    15  H    0.319255   0.001595
 Sum of Mulliken charges =  -0.00000   1.00000
 Mulliken charges and spin densities with hydrogens summed into heavy atoms:
               1          2
     1  C   -0.018706   1.107855
     3  C    0.226995  -0.105938
     4  C   -0.128854   0.041658
     5  O   -0.289463  -0.029275
     6  O   -0.103107  -0.002936
     7  C    0.127207   0.005591
     8  C    0.113911  -0.000335
    14  O    0.072017  -0.016621
 APT charges:
               1
     1  C    0.245935
     2  H    0.555951
     3  C   -0.444956
     4  C   -0.298420
     5  O   -0.223092
     6  O    0.017832
     7  C   -0.826186
     8  C   -1.274865
     9  H    0.532873
    10  H    0.388790
    11  H    0.681265
    12  H    0.350278
    13  H    0.248175
    14  O   -0.328421
    15  H    0.374842
 Sum of APT charges =  -0.00000
 APT charges with hydrogens summed into heavy atoms:
               1
     1  C    0.801886
     3  C   -0.444956
     4  C   -0.298420
     5  O   -0.223092
     6  O    0.017832
     7  C    0.095477
     8  C    0.004853
    14  O    0.046421
 Electronic spatial extent (au):  <R**2>=           1076.4099
 Charge=              0.0000 electrons
 Dipole moment (field-independent basis, Debye):
    X=             -2.8248    Y=             -0.9150    Z=             -0.2290  Tot=              2.9781
 Quadrupole moment (field-independent basis, Debye-Ang):
   XX=            -45.0950   YY=            -49.5753   ZZ=            -47.7999
   XY=              6.1544   XZ=              0.4439   YZ=              1.4321
 Traceless Quadrupole moment (field-independent basis, Debye-Ang):
   XX=              2.3951   YY=             -2.0852   ZZ=             -0.3099
   XY=              6.1544   XZ=              0.4439   YZ=              1.4321
 Octapole moment (field-independent basis, Debye-Ang**2):
  XXX=            -29.3606  YYY=            -13.7418  ZZZ=             -3.8045  XYY=              0.1800
  XXY=             14.4161  XXZ=             -3.2220  XZZ=             -5.6739  YZZ=             -1.3344
  YYZ=              0.2894  XYZ=              1.2377
 Hexadecapole moment (field-independent basis, Debye-Ang**3):
 XXXX=          -1028.7373 YYYY=           -273.0471 ZZZZ=           -115.0478 XXXY=             34.8785
 XXXZ=              6.6491 YYYX=             12.1644 YYYZ=              5.7019 ZZZX=              0.4400
 ZZZY=             -2.2205 XXYY=           -215.1979 XXZZ=           -197.9193 YYZZ=            -66.2631
 XXYZ=              5.3599 YYXZ=              1.3352 ZZXY=             -2.4792
 N-N= 3.673473960642D+02 E-N=-1.718786373004D+03  KE= 4.185442656974D+02
  Exact polarizability:   0.000   0.000   0.000   0.000   0.000   0.000
 Approx polarizability:  88.979  10.603  90.400   4.976   1.383  59.682
                          Isotropic Fermi Contact Couplings
        Atom                 a.u.       MegaHertz       Gauss      10(-4) cm-1
     1  C(13)              0.41309     464.39292     165.70694     154.90480
     2  H(1)               0.00205       9.15396       3.26636       3.05343
     3  C(13)             -0.03294     -37.03472     -13.21491     -12.35345
     4  C(13)              0.06783      76.25717      27.21046      25.43665
     5  O(17)             -0.00485       2.94205       1.04980       0.98136
     6  O(17)              0.02499     -15.14925      -5.40563      -5.05325
     7  C(13)              0.00264       2.96271       1.05717       0.98825
     8  C(13)             -0.00057      -0.64012      -0.22841      -0.21352
     9  H(1)               0.00011       0.50917       0.18169       0.16984
    10  H(1)              -0.00014      -0.64289      -0.22940      -0.21445
    11  H(1)               0.00010       0.43326       0.15460       0.14452
    12  H(1)               0.00002       0.07604       0.02713       0.02536
    13  H(1)               0.00002       0.10974       0.03916       0.03661
    14  O(17)              0.03782     -22.92513      -8.18025      -7.64700
    15  H(1)               0.00088       3.92708       1.40128       1.30993
 --------------------------------------------------------
       Center         ----  Spin Dipole Couplings  ----
                      3XX-RR        3YY-RR        3ZZ-RR
 --------------------------------------------------------
     1   Atom        0.581043     -0.282368     -0.298675
     2   Atom       -0.024908      0.086061     -0.061153
     3   Atom        0.081447      0.100902     -0.182349
     4   Atom        0.039777     -0.022928     -0.016849
     5   Atom        0.064446      0.062314     -0.126761
     6   Atom        0.024372     -0.004004     -0.020368
     7   Atom        0.008152     -0.004157     -0.003995
     8   Atom        0.001576     -0.000692     -0.000884
     9   Atom        0.001114     -0.000275     -0.000839
    10   Atom        0.001684     -0.000962     -0.000722
    11   Atom        0.000966     -0.000504     -0.000461
    12   Atom        0.001202     -0.000666     -0.000535
    13   Atom        0.001824     -0.000965     -0.000859
    14   Atom        0.012415      0.161844     -0.174259
    15   Atom        0.000682      0.004258     -0.004940
 --------------------------------------------------------
                        XY            XZ            YZ
 --------------------------------------------------------
     1   Atom       -0.635950      0.171054     -0.115225
     2   Atom        0.011686      0.006614      0.000525
     3   Atom        0.072202      0.048665      0.010096
     4   Atom       -0.020120      0.011264     -0.003470
     5   Atom        0.000883      0.034822     -0.002133
     6   Atom        0.012737      0.008320      0.002337
     7   Atom        0.000004      0.002299     -0.000030
     8   Atom        0.000101     -0.000011      0.000125
     9   Atom        0.000808      0.000612      0.000476
    10   Atom       -0.000252      0.001030     -0.000475
    11   Atom        0.000052     -0.000094      0.000036
    12   Atom        0.000537     -0.000478     -0.000110
    13   Atom       -0.000291     -0.000450      0.000155
    14   Atom        0.004292      0.034943     -0.003163
    15   Atom        0.003195      0.001025      0.000477
 --------------------------------------------------------


 ---------------------------------------------------------------------------------
              Anisotropic Spin Dipole Couplings in Principal Axis System
 ---------------------------------------------------------------------------------

       Atom             a.u.   MegaHertz   Gauss  10(-4) cm-1        Axes

              Baa    -0.6209   -83.319   -29.730   -27.792  0.4582  0.8858  0.0735
     1 C(13)  Bbb    -0.3307   -44.380   -15.836   -14.804 -0.1775  0.0102  0.9841
              Bcc     0.9516   127.699    45.566    42.596  0.8709 -0.4640  0.1619
 
              Baa    -0.0623   -33.261   -11.868   -11.095 -0.1772  0.0105  0.9841
     2 H(1)   Bbb    -0.0249   -13.312    -4.750    -4.440  0.9787 -0.1039  0.1773
              Bcc     0.0873    46.573    16.618    15.535  0.1041  0.9945  0.0082
 
              Baa    -0.1911   -25.640    -9.149    -8.552 -0.1784  0.0101  0.9839
     3 C(13)  Bbb     0.0225     3.017     1.077     1.007  0.7198 -0.6804  0.1375
              Bcc     0.1686    22.622     8.072     7.546  0.6709  0.7327  0.1141
 
              Baa    -0.0288    -3.869    -1.381    -1.291  0.2790  0.9602  0.0158
     4 C(13)  Bbb    -0.0190    -2.549    -0.909    -0.850 -0.1765  0.0351  0.9837
              Bcc     0.0478     6.418     2.290     2.141  0.9439 -0.2772  0.1793
 
              Baa    -0.1329     9.619     3.432     3.208 -0.1738  0.0115  0.9847
     5 O(17)  Bbb     0.0623    -4.509    -1.609    -1.504 -0.0572  0.9981 -0.0218
              Bcc     0.0706    -5.110    -1.823    -1.705  0.9831  0.0601  0.1728
 
              Baa    -0.0219     1.582     0.565     0.528 -0.1763 -0.0031  0.9843
     6 O(17)  Bbb    -0.0088     0.639     0.228     0.213 -0.3446  0.9369 -0.0588
              Bcc     0.0307    -2.221    -0.793    -0.741  0.9220  0.3496  0.1662
 
              Baa    -0.0044    -0.593    -0.212    -0.198 -0.1787  0.1169  0.9769
     7 C(13)  Bbb    -0.0042    -0.557    -0.199    -0.186  0.0211  0.9931 -0.1150
              Bcc     0.0086     1.150     0.410     0.384  0.9837 -0.0001  0.1799
 
              Baa    -0.0009    -0.127    -0.045    -0.042  0.0216 -0.4473  0.8941
     8 C(13)  Bbb    -0.0006    -0.085    -0.030    -0.028 -0.0386  0.8933  0.4478
              Bcc     0.0016     0.212     0.076     0.071  0.9990  0.0442 -0.0020
 
              Baa    -0.0011    -0.600    -0.214    -0.200 -0.0982 -0.4140  0.9050
     9 H(1)   Bbb    -0.0006    -0.313    -0.112    -0.104 -0.4976  0.8080  0.3156
              Bcc     0.0017     0.912     0.326     0.304  0.8618  0.4193  0.2854
 
              Baa    -0.0014    -0.756    -0.270    -0.252 -0.1890  0.6572  0.7296
    10 H(1)   Bbb    -0.0007    -0.374    -0.133    -0.125  0.3303  0.7422 -0.5831
              Bcc     0.0021     1.130     0.403     0.377  0.9248 -0.1308  0.3574
 
              Baa    -0.0005    -0.283    -0.101    -0.094 -0.0627  0.8473 -0.5273
    11 H(1)   Bbb    -0.0004    -0.237    -0.084    -0.079  0.0371  0.5300  0.8472
              Bcc     0.0010     0.519     0.185     0.173  0.9973  0.0335 -0.0647
 
              Baa    -0.0008    -0.433    -0.154    -0.144 -0.2796  0.9544 -0.1051
    12 H(1)   Bbb    -0.0007    -0.349    -0.124    -0.116  0.2011  0.1652  0.9655
              Bcc     0.0015     0.782     0.279     0.261  0.9388  0.2488 -0.2381
 
              Baa    -0.0011    -0.574    -0.205    -0.192 -0.0125  0.8010 -0.5985
    13 H(1)   Bbb    -0.0009    -0.456    -0.163    -0.152  0.1958  0.5889  0.7841
              Bcc     0.0019     1.031     0.368     0.344  0.9806 -0.1074 -0.1642
 
              Baa    -0.1806    13.070     4.664     4.360 -0.1783  0.0113  0.9839
    14 O(17)  Bbb     0.0186    -1.349    -0.481    -0.450  0.9836 -0.0255  0.1786
              Bcc     0.1620   -11.721    -4.182    -3.910  0.0271  0.9996 -0.0066
 
              Baa    -0.0051    -2.733    -0.975    -0.912 -0.1799  0.0112  0.9836
    15 H(1)   Bbb    -0.0011    -0.580    -0.207    -0.193  0.8410 -0.5169  0.1597
              Bcc     0.0062     3.313     1.182     1.105  0.5103  0.8559  0.0835
 

 ---------------------------------------------------------------------------------

 Calling FoFJK, ICntrl=    100147 FMM=F ISym2X=0 I1Cent= 0 IOpClX= 1 NMat=1 NMatS=1 NMatT=0.
 ***** Axes restored to original set *****
 -------------------------------------------------------------------
 Center     Atomic                   Forces (Hartrees/Bohr)
 Number     Number              X              Y              Z
 -------------------------------------------------------------------
      1        6          -0.007710302   -0.004785061   -0.001332238
      2        1          -0.000803008   -0.000861444   -0.000132231
      3        6           0.007425094   -0.019471043    0.001462921
      4        6          -0.032637446    0.032292980   -0.006253070
      5        8           0.013033247   -0.043952019    0.002997137
      6        8           0.000692932    0.013650006   -0.000051758
      7        6           0.014660379    0.002251456    0.003894688
      8        6           0.000279268   -0.000022074   -0.000208937
      9        1           0.000354371    0.000656370    0.000451119
     10        1           0.000243265   -0.001341371    0.001022204
     11        1           0.001412124   -0.000425699   -0.000249508
     12        1          -0.000132913    0.000764002   -0.000925825
     13        1          -0.000101718   -0.001273005   -0.001068500
     14        8          -0.006216829    0.009995632   -0.001194599
     15        1           0.009501536    0.012521270    0.001588598
 -------------------------------------------------------------------
 Cartesian Forces:  Max     0.043952019 RMS     0.011156946
 FormGI is forming the generalized inverse of G from B-inverse, IUseBI=4.

 GradGradGradGradGradGradGradGradGradGradGradGradGradGradGradGradGradGrad
 Berny optimization.
 Internal  Forces:  Max     0.045935446 RMS     0.008409886
 Search for a local minimum.
 Step number   1 out of a maximum of   67
 All quantities printed in internal units (Hartrees-Bohrs-Radians)
 Mixed Optimization -- RFO/linear search
 Second derivative matrix not updated -- analytic derivatives used.
 ITU=  0
     Eigenvalues ---    0.00249   0.00327   0.00615   0.00860   0.01468
     Eigenvalues ---    0.01955   0.03309   0.04355   0.04459   0.04501
     Eigenvalues ---    0.06002   0.06605   0.07145   0.09484   0.12299
     Eigenvalues ---    0.12387   0.13167   0.15013   0.16626   0.16746
     Eigenvalues ---    0.19419   0.22430   0.23544   0.24214   0.26213
     Eigenvalues ---    0.29342   0.32115   0.34122   0.34262   0.34381
     Eigenvalues ---    0.34897   0.35509   0.38358   0.38799   0.40601
     Eigenvalues ---    0.45868   0.49793   0.63019   0.75966
 RFO step:  Lambda=-7.63351826D-03 EMin= 2.49468687D-03
 Linear search not attempted -- first point.
 Iteration  1 RMS(Cart)=  0.04093658 RMS(Int)=  0.00051243
 Iteration  2 RMS(Cart)=  0.00057590 RMS(Int)=  0.00003303
 Iteration  3 RMS(Cart)=  0.00000012 RMS(Int)=  0.00003303
 Variable       Old X    -DE/DX   Delta X   Delta X   Delta X     New X
                                 (Linear)    (Quad)   (Total)
    R1        2.03492  -0.00094   0.00000  -0.00233  -0.00233   2.03259
    R2        2.50150  -0.01026   0.00000  -0.01286  -0.01286   2.48864
    R3        2.81325   0.00298   0.00000   0.02866   0.02866   2.84192
    R4        2.61560  -0.02195   0.00000  -0.05608  -0.05608   2.55952
    R5        2.32036  -0.04594   0.00000  -0.06139  -0.06139   2.25897
    R6        2.58159  -0.02229   0.00000  -0.04118  -0.04118   2.54041
    R7        2.78149  -0.01644   0.00000  -0.05770  -0.05770   2.72378
    R8        2.86768  -0.00299   0.00000  -0.00403  -0.00403   2.86365
    R9        2.05811  -0.00086   0.00000  -0.00091  -0.00091   2.05720
   R10        2.06428  -0.00169   0.00000  -0.00395  -0.00395   2.06033
   R11        2.06737  -0.00140   0.00000  -0.00440  -0.00440   2.06297
   R12        2.06495  -0.00119   0.00000  -0.00308  -0.00308   2.06187
   R13        2.06438  -0.00153   0.00000  -0.00433  -0.00433   2.06004
   R14        1.84717  -0.01437   0.00000  -0.02669  -0.02669   1.82048
    A1        2.36133  -0.00146   0.00000  -0.01800  -0.01800   2.34333
    A2        2.11034  -0.00398   0.00000  -0.03482  -0.03482   2.07552
    A3        2.13252   0.00019   0.00000   0.02185   0.02185   2.15437
    A4        2.04033   0.00379   0.00000   0.01298   0.01298   2.05330
    A5        2.19713  -0.00159   0.00000  -0.00665  -0.00665   2.19047
    A6        1.92947   0.00146   0.00000  -0.00722  -0.00722   1.92225
    A7        2.15659   0.00013   0.00000   0.01387   0.01387   2.17045
    A8        2.05954  -0.01210   0.00000  -0.02425  -0.02425   2.03529
    A9        1.92624  -0.00001   0.00000   0.00864   0.00865   1.93490
   A10        1.80900   0.00001   0.00000   0.01173   0.01177   1.82077
   A11        1.88208  -0.00016   0.00000   0.00698   0.00699   1.88907
   A12        1.96447  -0.00002   0.00000  -0.01120  -0.01130   1.95317
   A13        1.95275   0.00016   0.00000  -0.00547  -0.00557   1.94719
   A14        1.92240  -0.00000   0.00000  -0.00853  -0.00868   1.91372
   A15        1.91535  -0.00058   0.00000  -0.00304  -0.00304   1.91230
   A16        1.92967   0.00005   0.00000  -0.00048  -0.00048   1.92920
   A17        1.93195  -0.00080   0.00000  -0.00192  -0.00192   1.93003
   A18        1.89206   0.00027   0.00000   0.00069   0.00069   1.89275
   A19        1.88885   0.00067   0.00000   0.00294   0.00294   1.89179
   A20        1.90504   0.00043   0.00000   0.00195   0.00195   1.90699
   A21        1.93457  -0.01214   0.00000  -0.04626  -0.04626   1.88831
    D1        0.00010  -0.00001   0.00000  -0.00062  -0.00061  -0.00052
    D2        3.14117   0.00002   0.00000   0.00037   0.00036   3.14154
    D3        0.00291  -0.00000   0.00000  -0.00061  -0.00062   0.00229
    D4        3.14079   0.00002   0.00000  -0.00108  -0.00108   3.13971
    D5       -3.13819  -0.00003   0.00000  -0.00155  -0.00155  -3.13974
    D6       -0.00031  -0.00001   0.00000  -0.00201  -0.00201  -0.00232
    D7       -3.14090  -0.00001   0.00000   0.00100   0.00099  -3.13991
    D8        0.00020   0.00002   0.00000   0.00193   0.00194   0.00214
    D9        3.12730   0.00004   0.00000  -0.00036  -0.00036   3.12694
   D10       -0.01790   0.00006   0.00000  -0.00086  -0.00086  -0.01877
   D11       -1.40677   0.00006   0.00000   0.00210   0.00212  -1.40465
   D12        2.76906   0.00008   0.00000   0.00421   0.00418   2.77324
   D13        0.73103   0.00014   0.00000   0.00520   0.00522   0.73624
   D14       -3.07491  -0.00006   0.00000  -0.00181  -0.00180  -3.07671
   D15       -0.98866  -0.00007   0.00000  -0.00318  -0.00317  -0.99183
   D16        1.12458  -0.00003   0.00000  -0.00232  -0.00231   1.12227
   D17       -1.06325  -0.00007   0.00000   0.01143   0.01138  -1.05187
   D18        1.02300  -0.00007   0.00000   0.01006   0.01001   1.03301
   D19        3.13624  -0.00003   0.00000   0.01092   0.01087  -3.13608
   D20        1.11251   0.00004   0.00000  -0.01289  -0.01284   1.09967
   D21       -3.08443   0.00003   0.00000  -0.01426  -0.01422  -3.09864
   D22       -0.97119   0.00008   0.00000  -0.01340  -0.01335  -0.98454
         Item               Value     Threshold  Converged?
 Maximum Force            0.045935     0.000015     NO 
 RMS     Force            0.008410     0.000010     NO 
 Maximum Displacement     0.190840     0.000060     NO 
 RMS     Displacement     0.041025     0.000040     NO 
 Predicted change in Energy=-3.894698D-03
 GradGradGradGradGradGradGradGradGradGradGradGradGradGradGradGradGradGrad

                          Input orientation:                          
 ---------------------------------------------------------------------
 Center     Atomic      Atomic             Coordinates (Angstroms)
 Number     Number       Type             X           Y           Z
 ---------------------------------------------------------------------
      1          6           0        2.633009    0.739373    0.260849
      2          1           0        2.691730    1.813367    0.263832
      3          6           0        1.656399   -0.127285    0.089256
      4          6           0        0.265950    0.385241   -0.166891
      5          8           0       -0.048143    1.536680   -0.234042
      6          8           0       -0.586159   -0.643614   -0.317178
      7          6           0       -1.968233   -0.308372   -0.551726
      8          6           0       -2.667310    0.038578    0.747232
      9          1           0       -2.387385   -1.201055   -1.012740
     10          1           0       -2.002944    0.520398   -1.259290
     11          1           0       -3.725698    0.224194    0.554574
     12          1           0       -2.585052   -0.785139    1.458012
     13          1           0       -2.234930    0.937523    1.186919
     14          8           0        1.833704   -1.469416    0.131106
     15          1           0        0.980955   -1.890391   -0.022689
 ---------------------------------------------------------------------
                    Distance matrix (angstroms):
                    1          2          3          4          5
     1  C    0.000000
     2  H    1.075602   0.000000
     3  C    1.316931   2.206472   0.000000
     4  C    2.431325   2.847714   1.503877   0.000000
     5  O    2.840632   2.798453   2.403906   1.195397   0.000000
     6  O    3.551029   4.137497   2.336847   1.344328   2.247232
     7  C    4.788473   5.184801   3.685324   2.370816   2.681769
     8  C    5.368524   5.665938   4.376631   3.091894   3.172892
     9  H    5.530971   6.042664   4.326612   3.204994   3.684239
    10  H    4.883731   5.102120   3.953336   2.521801   2.430063
    11  H    6.386300   6.617656   5.413596   4.059519   3.983584
    12  H    5.566461   6.001893   4.505127   3.484008   3.832727
    13  H    4.959203   5.088337   4.181043   2.896932   2.675847
    14  O    2.352545   3.395657   1.354438   2.446714   3.565290
    15  H    3.118547   4.089825   1.891375   2.389671   3.584484
                    6          7          8          9         10
     6  O    0.000000
     7  C    1.441363   0.000000
     8  C    2.435065   1.515379   0.000000
     9  H    2.009717   1.088626   2.170841   0.000000
    10  H    2.061499   1.090280   2.167870   1.781007   0.000000
    11  H    3.371905   2.143877   1.091676   2.505771   2.519071
    12  H    2.677107   2.155648   1.091093   2.513300   3.070343
    13  H    2.735095   2.155520   1.090128   3.071686   2.492337
    14  O    2.595890   4.033486   4.786729   4.381552   4.540091
    15  H    2.024110   3.388270   4.198039   3.577862   4.030476
                   11         12         13         14         15
    11  H    0.000000
    12  H    1.770883   0.000000
    13  H    1.769487   1.778663   0.000000
    14  O    5.827056   4.664152   4.843746   0.000000
    15  H    5.192040   4.016274   4.449962   0.963356   0.000000
 Stoichiometry    C5H7O3(2)
 Framework group  C1[X(C5H7O3)]
 Deg. of freedom    39
 Full point group                 C1      NOp   1
 Largest Abelian subgroup         C1      NOp   1
 Largest concise Abelian subgroup C1      NOp   1
                         Standard orientation:                         
 ---------------------------------------------------------------------
 Center     Atomic      Atomic             Coordinates (Angstroms)
 Number     Number       Type             X           Y           Z
 ---------------------------------------------------------------------
      1          6           0        2.629389    0.772166    0.255001
      2          1           0        2.679661    1.846583    0.250435
      3          6           0        1.659684   -0.103335    0.089239
      4          6           0        0.265334    0.396420   -0.170909
      5          8           0       -0.057782    1.544850   -0.246258
      6          8           0       -0.578605   -0.640140   -0.314187
      7          6           0       -1.963193   -0.317441   -0.551485
      8          6           0       -2.665419    0.033137    0.744798
      9          1           0       -2.375154   -1.216619   -1.006318
     10          1           0       -2.004180    0.506027   -1.264879
     11          1           0       -3.725168    0.209059    0.550536
     12          1           0       -2.576927   -0.784882    1.461386
     13          1           0       -2.240273    0.938529    1.178264
     14          8           0        1.847525   -1.443702    0.140593
     15          1           0        0.998165   -1.872445   -0.010476
 ---------------------------------------------------------------------
 Rotational constants (GHZ):           4.2264665           1.3572971           1.1227639
 Standard basis: 6-311++G(d,p) (5D, 7F)
 There are   233 symmetry adapted cartesian basis functions of A   symmetry.
 There are   225 symmetry adapted basis functions of A   symmetry.
   225 basis functions,   351 primitive gaussians,   233 cartesian basis functions
    31 alpha electrons       30 beta electrons
       nuclear repulsion energy       371.6602053579 Hartrees.
 NAtoms=   15 NActive=   15 NUniq=   15 SFac= 1.00D+00 NAtFMM=   60 NAOKFM=F Big=F
 Integral buffers will be    131072 words long.
 Raffenetti 2 integral format.
 Two-electron integral symmetry is turned on.
 One-electron integrals computed using PRISM.
 NBasis=   225 RedAO= T EigKep=  2.28D-05  NBF=   225
 NBsUse=   225 1.00D-06 EigRej= -1.00D+00 NBFU=   225
 Initial guess from the checkpoint file:  "ethyl_propiolate_non_planar.chk"
 B after Tr=    -0.000000   -0.000000    0.000000
         Rot=    0.999984    0.003904    0.000070   -0.003983 Ang=   0.64 deg.
 Initial guess <Sx>= 0.0000 <Sy>= 0.0000 <Sz>= 0.5000 <S**2>= 0.7781 S= 0.5140
 ExpMin= 3.60D-02 ExpMax= 8.59D+03 ExpMxC= 1.30D+03 IAcc=3 IRadAn=         5 AccDes= 0.00D+00
 Harris functional with IExCor= 1009 and IRadAn=       5 diagonalized for initial guess.
 HarFok:  IExCor= 1009 AccDes= 0.00D+00 IRadAn=         5 IDoV= 1 UseB2=F ITyADJ=14
 ICtDFT=  3500011 ScaDFX=  1.000000  1.000000  1.000000  1.000000
 FoFCou: FMM=F IPFlag=           0 FMFlag=      100000 FMFlg1=           0
         NFxFlg=           0 DoJE=T BraDBF=F KetDBF=T FulRan=T
         wScrn=  0.000000 ICntrl=       500 IOpCl=  0 I1Cent=   200000004 NGrid=           0
         NMat0=    1 NMatS0=      1 NMatT0=    0 NMatD0=    1 NMtDS0=    0 NMtDT0=    0
 Petite list used in FoFCou.
 Requested convergence on RMS density matrix=1.00D-08 within 128 cycles.
 Requested convergence on MAX density matrix=1.00D-06.
 Requested convergence on             energy=1.00D-06.
 No special actions if energy rises.
 SCF Done:  E(UM062X) =  -420.270654332     A.U. after   14 cycles
            NFock= 14  Conv=0.98D-08     -V/T= 2.0033
 <Sx>= 0.0000 <Sy>= 0.0000 <Sz>= 0.5000 <S**2>= 0.7752 S= 0.5125
 <L.S>=  0.00000000000    
 Annihilation of the first spin contaminant:
 S**2 before annihilation     0.7752,   after     0.7501
 Calling FoFJK, ICntrl=      2127 FMM=F ISym2X=0 I1Cent= 0 IOpClX= 1 NMat=1 NMatS=1 NMatT=0.
 ***** Axes restored to original set *****
 -------------------------------------------------------------------
 Center     Atomic                   Forces (Hartrees/Bohr)
 Number     Number              X              Y              Z
 -------------------------------------------------------------------
      1        6           0.000160551    0.000198646    0.000008039
      2        1          -0.000082736   -0.000036238   -0.000011083
      3        6           0.000423169    0.001374144    0.000056308
      4        6           0.001455285   -0.003732324    0.000371537
      5        8          -0.001135274    0.005006195   -0.000250162
      6        8           0.000327922   -0.000968365   -0.000024564
      7        6          -0.000746566    0.000056458   -0.000022924
      8        6          -0.000119463    0.000048292    0.000003461
      9        1          -0.000167970    0.000075349   -0.000045237
     10        1          -0.000238787   -0.000108681   -0.000086451
     11        1           0.000021373    0.000002876   -0.000012902
     12        1          -0.000025315   -0.000003023   -0.000030214
     13        1           0.000006892   -0.000035462   -0.000005191
     14        8           0.000538104   -0.001448999    0.000134222
     15        1          -0.000417184   -0.000428870   -0.000084836
 -------------------------------------------------------------------
 Cartesian Forces:  Max     0.005006195 RMS     0.001046213

 GradGradGradGradGradGradGradGradGradGradGradGradGradGradGradGradGradGrad
 Berny optimization.
 Using GEDIIS/GDIIS optimizer.
 FormGI is forming the generalized inverse of G from B-inverse, IUseBI=4.
 Internal  Forces:  Max     0.005134780 RMS     0.000785930
 Search for a local minimum.
 Step number   2 out of a maximum of   67
 All quantities printed in internal units (Hartrees-Bohrs-Radians)
 Mixed Optimization -- En-DIIS/RFO-DIIS
 Update second derivatives using D2CorX and points    1    2
 DE= -3.66D-03 DEPred=-3.89D-03 R= 9.41D-01
 TightC=F SS=  1.41D+00  RLast= 1.43D-01 DXNew= 5.0454D-01 4.2870D-01
 Trust test= 9.41D-01 RLast= 1.43D-01 DXMaxT set to 4.29D-01
 ITU=  1  0
 Use linear search instead of GDIIS.
     Eigenvalues ---    0.00249   0.00327   0.00615   0.00860   0.01468
     Eigenvalues ---    0.01955   0.03308   0.04355   0.04459   0.04507
     Eigenvalues ---    0.06002   0.06604   0.07144   0.09493   0.12301
     Eigenvalues ---    0.12386   0.13170   0.15063   0.16625   0.16737
     Eigenvalues ---    0.19362   0.22442   0.23536   0.24197   0.26229
     Eigenvalues ---    0.29463   0.32170   0.34122   0.34262   0.34385
     Eigenvalues ---    0.34891   0.35524   0.38362   0.39199   0.40760
     Eigenvalues ---    0.46042   0.49788   0.63068   0.80819
 RFO step:  Lambda=-2.00519980D-05 EMin= 2.49467848D-03
 Quartic linear search produced a step of -0.06150.
 Iteration  1 RMS(Cart)=  0.00426763 RMS(Int)=  0.00000843
 Iteration  2 RMS(Cart)=  0.00001210 RMS(Int)=  0.00000183
 Iteration  3 RMS(Cart)=  0.00000000 RMS(Int)=  0.00000183
 Variable       Old X    -DE/DX   Delta X   Delta X   Delta X     New X
                                 (Linear)    (Quad)   (Total)
    R1        2.03259  -0.00004   0.00014  -0.00014   0.00001   2.03260
    R2        2.48864   0.00016   0.00079  -0.00082  -0.00003   2.48861
    R3        2.84192   0.00071  -0.00176   0.00301   0.00125   2.84316
    R4        2.55952   0.00188   0.00345   0.00061   0.00406   2.56358
    R5        2.25897   0.00513   0.00378   0.00245   0.00622   2.26519
    R6        2.54041   0.00134   0.00253  -0.00181   0.00072   2.54113
    R7        2.72378   0.00126   0.00355  -0.00034   0.00321   2.72699
    R8        2.86365   0.00002   0.00025  -0.00052  -0.00027   2.86338
    R9        2.05720   0.00002   0.00006  -0.00000   0.00005   2.05726
   R10        2.06033  -0.00002   0.00024  -0.00030  -0.00006   2.06027
   R11        2.06297  -0.00002   0.00027  -0.00033  -0.00006   2.06291
   R12        2.06187  -0.00002   0.00019  -0.00028  -0.00009   2.06178
   R13        2.06004  -0.00003   0.00027  -0.00045  -0.00019   2.05986
   R14        1.82048   0.00057   0.00164  -0.00073   0.00091   1.82139
    A1        2.34333  -0.00017   0.00111  -0.00402  -0.00291   2.34042
    A2        2.07552  -0.00025   0.00214  -0.00317  -0.00103   2.07449
    A3        2.15437   0.00010  -0.00134   0.00216   0.00081   2.15518
    A4        2.05330   0.00014  -0.00080   0.00101   0.00022   2.05352
    A5        2.19047  -0.00020   0.00041  -0.00157  -0.00116   2.18932
    A6        1.92225  -0.00010   0.00044   0.00009   0.00053   1.92278
    A7        2.17045   0.00031  -0.00085   0.00148   0.00063   2.17108
    A8        2.03529   0.00076   0.00149  -0.00012   0.00137   2.03666
    A9        1.93490   0.00008  -0.00053   0.00189   0.00136   1.93626
   A10        1.82077   0.00007  -0.00072   0.00100   0.00028   1.82105
   A11        1.88907   0.00008  -0.00043   0.00148   0.00105   1.89012
   A12        1.95317  -0.00010   0.00069  -0.00145  -0.00075   1.95242
   A13        1.94719  -0.00005   0.00034  -0.00019   0.00016   1.94735
   A14        1.91372  -0.00007   0.00053  -0.00260  -0.00205   1.91166
   A15        1.91230  -0.00002   0.00019  -0.00122  -0.00103   1.91127
   A16        1.92920  -0.00001   0.00003   0.00028   0.00031   1.92951
   A17        1.93003   0.00000   0.00012   0.00007   0.00019   1.93022
   A18        1.89275   0.00001  -0.00004  -0.00003  -0.00007   1.89268
   A19        1.89179   0.00001  -0.00018   0.00037   0.00019   1.89198
   A20        1.90699   0.00001  -0.00012   0.00053   0.00041   1.90740
   A21        1.88831   0.00036   0.00284  -0.00293  -0.00008   1.88823
    D1       -0.00052   0.00000   0.00004   0.00087   0.00090   0.00039
    D2        3.14154   0.00000  -0.00002   0.00113   0.00111  -3.14054
    D3        0.00229  -0.00000   0.00004  -0.00311  -0.00307  -0.00078
    D4        3.13971  -0.00001   0.00007  -0.00380  -0.00373   3.13598
    D5       -3.13974  -0.00000   0.00010  -0.00336  -0.00327   3.14018
    D6       -0.00232  -0.00002   0.00012  -0.00405  -0.00393  -0.00625
    D7       -3.13991   0.00001  -0.00006   0.00465   0.00459  -3.13531
    D8        0.00214   0.00001  -0.00012   0.00492   0.00480   0.00694
    D9        3.12694   0.00001   0.00002  -0.00094  -0.00091   3.12603
   D10       -0.01877  -0.00000   0.00005  -0.00162  -0.00157  -0.02034
   D11       -1.40465   0.00001  -0.00013   0.00759   0.00746  -1.39719
   D12        2.77324   0.00005  -0.00026   0.00773   0.00747   2.78072
   D13        0.73624   0.00005  -0.00032   0.00954   0.00922   0.74546
   D14       -3.07671   0.00001   0.00011  -0.00608  -0.00597  -3.08268
   D15       -0.99183  -0.00000   0.00020  -0.00671  -0.00652  -0.99835
   D16        1.12227   0.00000   0.00014  -0.00581  -0.00567   1.11660
   D17       -1.05187   0.00009  -0.00070  -0.00454  -0.00524  -1.05710
   D18        1.03301   0.00008  -0.00062  -0.00517  -0.00578   1.02723
   D19       -3.13608   0.00008  -0.00067  -0.00427  -0.00493  -3.14101
   D20        1.09967  -0.00012   0.00079  -0.00913  -0.00834   1.09132
   D21       -3.09864  -0.00013   0.00087  -0.00976  -0.00889  -3.10753
   D22       -0.98454  -0.00013   0.00082  -0.00886  -0.00804  -0.99258
         Item               Value     Threshold  Converged?
 Maximum Force            0.005135     0.000015     NO 
 RMS     Force            0.000786     0.000010     NO 
 Maximum Displacement     0.012537     0.000060     NO 
 RMS     Displacement     0.004269     0.000040     NO 
 Predicted change in Energy=-2.616891D-05
 GradGradGradGradGradGradGradGradGradGradGradGradGradGradGradGradGradGrad

                          Input orientation:                          
 ---------------------------------------------------------------------
 Center     Atomic      Atomic             Coordinates (Angstroms)
 Number     Number       Type             X           Y           Z
 ---------------------------------------------------------------------
      1          6           0        2.634029    0.740505    0.260548
      2          1           0        2.688067    1.814746    0.264209
      3          6           0        1.658426   -0.127397    0.089652
      4          6           0        0.266863    0.385025   -0.164522
      5          8           0       -0.047824    1.539959   -0.227408
      6          8           0       -0.584978   -0.643880   -0.319330
      7          6           0       -1.969477   -0.309843   -0.551716
      8          6           0       -2.667420    0.040133    0.746875
      9          1           0       -2.389343   -1.203876   -1.009520
     10          1           0       -2.007664    0.515914   -1.262569
     11          1           0       -3.724761    0.229985    0.552785
     12          1           0       -2.589513   -0.783862    1.457748
     13          1           0       -2.231760    0.937364    1.186579
     14          8           0        1.836811   -1.471581    0.130612
     15          1           0        0.984436   -1.893111   -0.026718
 ---------------------------------------------------------------------
                    Distance matrix (angstroms):
                    1          2          3          4          5
     1  C    0.000000
     2  H    1.075605   0.000000
     3  C    1.316914   2.205119   0.000000
     4  C    2.431157   2.844317   1.504536   0.000000
     5  O    2.840698   2.793259   2.406635   1.198688   0.000000
     6  O    3.551730   4.134995   2.338136   1.344710   2.250808
     7  C    4.791166   5.183852   3.688674   2.373599   2.686948
     8  C    5.369581   5.662461   4.378693   3.091862   3.171906
     9  H    5.534253   6.042728   4.330290   3.208435   3.690940
    10  H    4.890362   5.105674   3.960122   2.529093   2.441556
    11  H    6.385941   6.612042   5.414878   4.058525   3.980526
    12  H    5.571569   6.002512   4.510833   3.486681   3.834068
    13  H    4.957035   5.081857   4.179774   2.893729   2.670591
    14  O    2.354945   3.397415   1.356587   2.449251   3.570630
    15  H    3.120835   4.090868   1.893555   2.392448   3.590516
                    6          7          8          9         10
     6  O    0.000000
     7  C    1.443060   0.000000
     8  C    2.437465   1.515237   0.000000
     9  H    2.011390   1.088655   2.170209   0.000000
    10  H    2.063700   1.090250   2.167835   1.779716   0.000000
    11  H    3.373791   2.142979   1.091643   2.506012   2.515092
    12  H    2.682492   2.155710   1.091045   2.510755   3.070520
    13  H    2.734957   2.155454   1.090029   3.071253   2.495228
    14  O    2.598576   4.037701   4.790945   4.385424   4.546546
    15  H    2.027131   3.392339   4.203800   3.580968   4.035269
                   11         12         13         14         15
    11  H    0.000000
    12  H    1.770772   0.000000
    13  H    1.769500   1.778803   0.000000
    14  O    5.831349   4.671894   4.844724   0.000000
    15  H    5.198067   4.025815   4.452819   0.963838   0.000000
 Stoichiometry    C5H7O3(2)
 Framework group  C1[X(C5H7O3)]
 Deg. of freedom    39
 Full point group                 C1      NOp   1
 Largest Abelian subgroup         C1      NOp   1
 Largest concise Abelian subgroup C1      NOp   1
                         Standard orientation:                         
 ---------------------------------------------------------------------
 Center     Atomic      Atomic             Coordinates (Angstroms)
 Number     Number       Type             X           Y           Z
 ---------------------------------------------------------------------
      1          6           0        2.629325    0.775130    0.251406
      2          1           0        2.674402    1.849766    0.244264
      3          6           0        1.661030   -0.102555    0.089117
      4          6           0        0.265300    0.395660   -0.170396
      5          8           0       -0.058993    1.547238   -0.244944
      6          8           0       -0.577897   -0.641820   -0.314961
      7          6           0       -1.965081   -0.321696   -0.550889
      8          6           0       -2.666209    0.035494    0.744016
      9          1           0       -2.377375   -1.223762   -0.999732
     10          1           0       -2.009994    0.496519   -1.270022
     11          1           0       -3.725052    0.214559    0.547878
     12          1           0       -2.581593   -0.780628    1.463156
     13          1           0       -2.238144    0.940707    1.174730
     14          8           0        1.850609   -1.444724    0.143627
     15          1           0        1.001814   -1.874910   -0.009573
 ---------------------------------------------------------------------
 Rotational constants (GHZ):           4.2171134           1.3560542           1.1210340
 Standard basis: 6-311++G(d,p) (5D, 7F)
 There are   233 symmetry adapted cartesian basis functions of A   symmetry.
 There are   225 symmetry adapted basis functions of A   symmetry.
   225 basis functions,   351 primitive gaussians,   233 cartesian basis functions
    31 alpha electrons       30 beta electrons
       nuclear repulsion energy       371.3591410286 Hartrees.
 NAtoms=   15 NActive=   15 NUniq=   15 SFac= 1.00D+00 NAtFMM=   60 NAOKFM=F Big=F
 Integral buffers will be    131072 words long.
 Raffenetti 2 integral format.
 Two-electron integral symmetry is turned on.
 One-electron integrals computed using PRISM.
 NBasis=   225 RedAO= T EigKep=  2.28D-05  NBF=   225
 NBsUse=   225 1.00D-06 EigRej= -1.00D+00 NBFU=   225
 Initial guess from the checkpoint file:  "ethyl_propiolate_non_planar.chk"
 B after Tr=     0.000000    0.000000   -0.000000
         Rot=    1.000000    0.000887   -0.000054   -0.000250 Ang=   0.11 deg.
 Initial guess <Sx>= 0.0000 <Sy>= 0.0000 <Sz>= 0.5000 <S**2>= 0.7752 S= 0.5125
 Requested convergence on RMS density matrix=1.00D-08 within 128 cycles.
 Requested convergence on MAX density matrix=1.00D-06.
 Requested convergence on             energy=1.00D-06.
 No special actions if energy rises.
 SCF Done:  E(UM062X) =  -420.270677802     A.U. after   13 cycles
            NFock= 13  Conv=0.33D-08     -V/T= 2.0033
 <Sx>= 0.0000 <Sy>= 0.0000 <Sz>= 0.5000 <S**2>= 0.7753 S= 0.5125
 <L.S>=  0.00000000000    
 Annihilation of the first spin contaminant:
 S**2 before annihilation     0.7753,   after     0.7501
 Calling FoFJK, ICntrl=      2127 FMM=F ISym2X=0 I1Cent= 0 IOpClX= 1 NMat=1 NMatS=1 NMatT=0.
 ***** Axes restored to original set *****
 -------------------------------------------------------------------
 Center     Atomic                   Forces (Hartrees/Bohr)
 Number     Number              X              Y              Z
 -------------------------------------------------------------------
      1        6           0.000041646    0.000001163    0.000005218
      2        1           0.000018499   -0.000000084    0.000004935
      3        6          -0.000020524    0.000047983    0.000007643
      4        6          -0.000017745    0.000537846   -0.000030433
      5        8           0.000104800   -0.000552535    0.000013643
      6        8          -0.000036354   -0.000053870    0.000023685
      7        6          -0.000187121    0.000018545   -0.000066240
      8        6           0.000030185   -0.000012574    0.000012697
      9        1           0.000049065   -0.000028062    0.000010307
     10        1           0.000064862    0.000036005    0.000011814
     11        1          -0.000012895    0.000001898    0.000003719
     12        1           0.000005914   -0.000001307    0.000010528
     13        1          -0.000006349    0.000010364    0.000004872
     14        8          -0.000002408    0.000085276   -0.000014710
     15        1          -0.000031576   -0.000090648    0.000002323
 -------------------------------------------------------------------
 Cartesian Forces:  Max     0.000552535 RMS     0.000123272

 GradGradGradGradGradGradGradGradGradGradGradGradGradGradGradGradGradGrad
 Berny optimization.
 Using GEDIIS/GDIIS optimizer.
 FormGI is forming the generalized inverse of G from B-inverse, IUseBI=4.
 Internal  Forces:  Max     0.000560370 RMS     0.000081409
 Search for a local minimum.
 Step number   3 out of a maximum of   67
 All quantities printed in internal units (Hartrees-Bohrs-Radians)
 Mixed Optimization -- En-DIIS/RFO-DIIS
 Swapping is turned off.
 Update second derivatives using D2CorX and points    1    2    3
 DE= -2.35D-05 DEPred=-2.62D-05 R= 8.97D-01
 TightC=F SS=  1.41D+00  RLast= 2.82D-02 DXNew= 7.2098D-01 8.4635D-02
 Trust test= 8.97D-01 RLast= 2.82D-02 DXMaxT set to 4.29D-01
 ITU=  1  1  0
     Eigenvalues ---    0.00249   0.00327   0.00620   0.00861   0.01468
     Eigenvalues ---    0.01956   0.03308   0.04353   0.04459   0.04497
     Eigenvalues ---    0.06001   0.06604   0.07133   0.09493   0.12302
     Eigenvalues ---    0.12387   0.13167   0.15065   0.16626   0.16778
     Eigenvalues ---    0.19448   0.22394   0.23564   0.24216   0.26240
     Eigenvalues ---    0.29560   0.32207   0.34122   0.34262   0.34383
     Eigenvalues ---    0.34892   0.35531   0.38358   0.39283   0.40633
     Eigenvalues ---    0.45649   0.49803   0.63027   0.89150
[...]
 ! D18   D(9,7,8,12)            58.9034         -DE/DX =    0.0                 !
 ! D19   D(9,7,8,13)          -179.9285         -DE/DX =    0.0                 !
 ! D20   D(10,7,8,11)           62.6371         -DE/DX =    0.0                 !
 ! D21   D(10,7,8,12)         -177.9325         -DE/DX =    0.0                 !
 ! D22   D(10,7,8,13)          -56.7644         -DE/DX =    0.0                 !
 --------------------------------------------------------------------------------
 GradGradGradGradGradGradGradGradGradGradGradGradGradGradGradGradGradGrad


 ----------------------------------------------------------------------

 Electric dipole moment (input orientation):
 (Debye = 10**-18 statcoulomb cm , SI units = C m)
                  (au)            (Debye)         (10**-30 SI)
   Tot        0.122556D+01      0.311505D+01      0.103907D+02
   x         -0.116778D+01     -0.296820D+01     -0.990085D+01
   y         -0.354379D+00     -0.900742D+00     -0.300455D+01
   z         -0.112673D+00     -0.286386D+00     -0.955280D+00

 Dipole polarizability, Alpha (input orientation).
 (esu units = cm**3 , SI units = C**2 m**2 J**-1)
 Alpha(0;0):
               (au)            (10**-24 esu)      (10**-40 SI)
   iso        0.685579D+02      0.101592D+02      0.113037D+02
   aniso      0.347749D+02      0.515310D+01      0.573360D+01
   xx         0.860302D+02      0.127484D+02      0.141845D+02
   yx         0.893867D+01      0.132457D+01      0.147379D+01
   yy         0.689134D+02      0.102119D+02      0.113623D+02
   zx         0.313190D+01      0.464100D+00      0.516381D+00
   zy         0.133092D+01      0.197222D+00      0.219439D+00
   zz         0.507302D+02      0.751744D+01      0.836428D+01

 ----------------------------------------------------------------------

 Dipole orientation:
     6          0.04507584         -0.09813137         -5.19357775
     1         -0.56448216          1.71507137         -5.88070029
     6          0.23444526         -1.12009351         -2.93235779
     6         -0.51819679          0.41781382         -0.66263050
     8         -1.29596192          2.54393885         -0.71601751
     8         -0.20447156         -0.94280581          1.46093039
     6         -0.81649221          0.29721332          3.81171639
     6          1.32166917          2.00596318          4.65280675
     1         -1.13010949         -1.24662646          5.13475421
     1         -2.56891888          1.34861962          3.55033782
     1          0.86396350          2.83070244          6.48748561
     1          3.07383450          0.93513825          4.83784905
     1          1.59943439          3.53686412          3.30284704
     8          1.07935462         -3.50603628         -2.52585608
     1          1.04023532         -3.82647212         -0.73319987

 Electric dipole moment (dipole orientation):
 (Debye = 10**-18 statcoulomb cm , SI units = C m)
                  (au)            (Debye)         (10**-30 SI)
   Tot        0.122556D+01      0.311505D+01      0.103907D+02
   x          0.000000D+00      0.000000D+00      0.000000D+00
   y          0.000000D+00      0.000000D+00      0.000000D+00
   z          0.122556D+01      0.311505D+01      0.103907D+02

 Dipole polarizability, Alpha (dipole orientation).
 (esu units = cm**3 , SI units = C**2 m**2 J**-1)
 Alpha(0;0):
               (au)            (10**-24 esu)      (10**-40 SI)
   iso        0.685579D+02      0.101592D+02      0.113037D+02
   aniso      0.347749D+02      0.515310D+01      0.573360D+01
   xx         0.516347D+02      0.765148D+01      0.851342D+01
   yx        -0.405730D+01     -0.601230D+00     -0.668958D+00
   yy         0.641932D+02      0.951246D+01      0.105840D+02
   zx         0.100134D+01      0.148384D+00      0.165099D+00
   zy        -0.251455D+01     -0.372619D+00     -0.414594D+00
   zz         0.898458D+02      0.133138D+02      0.148136D+02

 ----------------------------------------------------------------------
 1\1\GINC-AJ\Freq\UM062X\6-311++G(d,p)\C5H7O3(2)\AAYUSH\09-Jun-2025\0\\
 #N Geom=AllCheck Guess=TCheck SCRF=Check GenChk UM062X/6-311++G(d,p) F
 req\\Title Card Required\\0,2\C,2.6345173426,0.7403134105,0.2603828801
 \H,2.6898054209,1.8144834971,0.2639025688\C,1.6584463833,-0.1270980537
 ,0.0894831065\C,0.2669937888,0.3853357573,-0.1651210591\O,-0.047523065
 5,1.5398864908,-0.2293659895\O,-0.5852800224,-0.6436873902,-0.31843960
 51\C,-1.969764368,-0.3093564628,-0.5516633253\C,-2.6680703247,0.039605
 2463,0.7470077042\H,-2.3890188704,-1.2031872938,-1.0103965092\H,-2.006
 917921,0.5171645114,-1.2616916675\H,-3.7256276573,0.2286092131,0.55315
 87813\H,-2.5893078271,-0.7845228514,1.4576467108\H,-2.2331661704,0.937
 0955835,1.1869931236\O,1.8366344709,-1.4712917015,0.1306488105\H,0.984
 1708203,-1.8932689566,-0.0253215302\\Version=ES64L-G16RevA.03\State=2-
 A\HF=-420.2706783\S2=0.775253\S2-1=0.\S2A=0.750138\RMSD=4.413e-09\RMSF
 =6.982e-07\ZeroPoint=0.1164178\Thermal=0.1251203\Dipole=-1.1677799,-0.
 354379,-0.1126728\DipoleDeriv=-0.2085363,-0.2164366,0.0122835,0.086736
 6,-0.2604867,0.0115619,0.0046345,-0.0401885,-0.2294046,0.1583857,0.076
 6354,-0.0145581,0.0017658,0.1152043,-0.0003274,-0.0115676,0.0134323,0.
 2190563,-0.3444807,-0.0284237,-0.053635,0.2041583,1.2415578,0.0364845,
 -0.067225,-0.0098866,0.0201477,2.0117611,0.3354066,0.2142918,0.3284034
 ,1.4795729,-0.0378065,0.2677085,0.048512,0.3563801,-0.8177112,0.188915
 3,-0.0603147,0.149187,-1.0519242,0.0726891,-0.0653758,0.0499868,-0.348
 6382,-1.7574686,-0.42579,-0.0874999,-0.4129661,-0.8875545,-0.0503035,-
 0.198944,-0.1002747,-0.3565665,1.0394016,0.0702352,-0.0061124,-0.10959
 29,0.2518327,0.0174789,0.0405928,0.0728005,0.3459002,-0.0853212,-0.026
 7392,0.0166731,0.0206443,0.0273921,-0.037025,0.0486325,-0.0766141,-0.0
 643476,-0.0312939,-0.025393,-0.0059011,-0.0523529,-0.0416881,-0.092003
 4,-0.0197981,-0.0602856,0.0240383,-0.0217795,-0.0354403,0.0416099,0.05
 79774,0.0190341,0.0820305,0.0014679,0.035894,-0.0183806,-0.1132697,0.0
 226477,-0.0168552,0.0339544,0.0942092,0.0017895,-0.0241878,0.0160183,0
 .0554051,0.0805225,0.0388901,-0.0111358,0.0105896,-0.0340272,0.0908022
 ,0.0254922,0.0546873,-0.0196555,0.0759599,-0.0614298,-0.0317804,-0.041
 6246,-0.0095041,-0.0579719,-0.0068353,-0.0280363,0.026907,-0.3734795,0
 .0845468,0.0052051,-0.2554518,-1.3310443,-0.0425858,-0.0015126,0.01910
 97,-0.3430541,0.3873097,0.0023753,-0.0022706,-0.0214286,0.387426,0.005
 1869,0.0069177,0.0048448,0.3322125\Polar=86.0302142,8.9386709,68.91335
 71,3.131902,1.3309191,50.7302207\Quadrupole=1.161683,-1.2051988,0.0435
 158,4.1292635,0.2458202,0.9639614\PG=C01 [X(C5H7O3)]\NImag=0\\0.397659
 11,0.28724797,0.71898268,0.06308552,0.04787383,0.04974128,-0.02521822,
 -0.00226896,-0.00105494,0.02074797,-0.03611458,-0.38070729,-0.00431111
 ,0.02660186,0.38363831,-0.00086792,0.00173183,-0.01962550,0.00083584,0
 .00256799,0.01576251,-0.33927880,-0.25308795,-0.05324710,0.00501668,0.
 01194336,0.00105603,0.63891097,-0.21826068,-0.28623512,-0.03805416,-0.
 02614952,-0.00316411,-0.00463970,0.18991681,0.75827115,-0.05345436,-0.
 04433322,-0.04540652,0.00128223,0.00215006,-0.00115103,0.09287546,0.03
 050182,0.13701160,-0.03413627,-0.00866303,-0.00890531,0.00128067,-0.00
 120960,0.00058669,-0.15887006,0.05884700,-0.01452817,0.59750244,-0.014
 30405,0.01058751,-0.00257181,0.00084676,-0.00114502,0.00012712,0.00270
 097,-0.08310064,0.00023828,-0.13742473,0.99534033,-0.00891748,-0.00142
 102,0.01425289,0.00049374,-0.00025281,-0.00197763,-0.01391803,0.010640
 68,-0.08338770,0.07434925,-0.03000942,0.20813505,-0.00169526,0.0036807
 4,-0.00023229,-0.00072096,0.00141682,-0.00003634,-0.00824897,0.0342860
 0,-0.00496167,-0.16505377,0.18288700,-0.01776692,0.15907207,-0.0050910
 1,-0.00381106,-0.00085669,0.00094120,0.00007124,0.00016277,0.03347352,
 -0.02339045,0.00633436,0.18415456,-0.70837318,0.03727117,-0.18904401,0
 .84425574,-0.00018361,0.00069552,-0.00063874,-0.00002669,0.00025727,-0
 .00049920,-0.00513491,0.00640536,0.01688898,-0.01734801,0.03892253,-0.
 07956326,0.02414905,-0.03939538,0.03987512,-0.00746478,0.00523670,-0.0
 0135665,0.00188889,-0.00005964,0.00039028,-0.04684381,-0.03461949,-0.0
 1091811,-0.19220196,-0.06482718,-0.02112889,0.02563082,-0.03791879,-0.
 00212482,0.49600152,0.00296365,0.00353245,0.00049649,0.00054975,0.0002
 8749,0.00010878,-0.00644594,-0.00598351,-0.00101140,-0.05749703,-0.190
 18817,-0.00870537,-0.03615970,-0.10673088,-0.00672087,0.05894664,0.389
 71080,-0.00114998,0.00098316,-0.00041856,0.00035464,-0.00000543,-0.000
 07739,-0.01039117,-0.00607360,0.01004675,-0.02300641,-0.01186088,-0.06
 598214,-0.00085248,-0.00635130,0.02752386,0.07124410,0.00929772,0.0935
 7179,0.00010380,-0.00053972,0.00010693,-0.00026722,-0.00011071,-0.0001
 1954,0.00496603,-0.00152081,0.00084535,-0.05225687,-0.03227962,-0.0115
 3790,0.00002386,0.01941267,0.00052744,-0.16935132,0.02442904,-0.022666
 46,0.44626633,-0.00128614,0.00076120,-0.00025599,0.00028473,-0.0000428
 5,0.00003889,-0.00343778,-0.00611562,-0.00053590,-0.03059054,0.0206923
 6,-0.00653858,-0.00022345,-0.00562975,-0.00046763,0.04506084,-0.104825
 00,0.01103407,0.06190393,0.64193393,-0.00011402,-0.00011154,-0.0007417
 3,-0.00000883,-0.00003226,0.00012856,-0.00076674,-0.00037686,0.0057377
 5,-0.01138486,-0.00912017,-0.00136913,-0.00129303,0.00379392,-0.005685
 69,-0.02268706,0.00785422,-0.06966129,0.01818691,-0.00976061,0.5567637
 7,-0.00023135,0.00014667,0.00012300,0.00007395,0.00001972,0.00001320,-
 0.00049800,-0.00026405,-0.00168972,0.00173434,0.00734054,0.00265850,0.
 00017324,-0.00256985,0.00110053,-0.04146712,0.01071605,0.03067415,-0.0
 9210056,0.00676740,0.04073699,0.56484304,0.00001584,-0.00007207,-0.000
 05179,-0.00003570,-0.00000107,0.00002532,0.00015692,0.00023076,0.00035
 656,-0.00141741,0.00061963,0.00082256,0.00104711,0.00048145,-0.0013368
 9,0.00990750,-0.00048558,-0.00557011,0.00801096,-0.09159131,-0.0256598
 3,0.01212817,0.58435620,-0.00016592,0.00008747,0.00001285,0.00002912,0
 .00000764,0.00000232,0.00017578,-0.00034249,-0.00050632,0.00067421,0.0
 0490440,0.00104686,0.00139705,-0.00190790,-0.00070813,-0.00483297,-0.0
 0046949,0.01034854,0.05320575,-0.02776417,-0.19375755,0.04055412,-0.01
 757819,0.52184590,-0.00054978,0.00033149,-0.00013498,0.00012598,-0.000
 00236,0.00002994,-0.00091576,-0.00193756,0.00028631,-0.00325199,0.0067
 3789,-0.00245301,0.00129721,-0.00143893,0.00027160,-0.03278067,-0.0299
 9801,-0.01545242,-0.08044494,-0.07868497,-0.03932393,0.00831772,0.0142
 8899,0.00678645,0.10650593,0.00003303,-0.00001761,0.00006194,-0.000007
 19,0.00001364,-0.00000828,0.00033430,0.00037830,-0.00032855,0.00228606
 ,-0.00258682,0.00067048,-0.00180344,0.00147688,-0.00056592,0.00813381,
 0.01041530,0.00580083,-0.09117361,-0.24619556,-0.09454004,-0.00144763,
 -0.00409872,-0.00159749,0.09063399,0.25578364,-0.00005593,0.00005995,-
 0.00003500,0.00001168,-0.00000309,-0.00000147,-0.00019851,-0.00038680,
 0.00019612,0.00020658,0.00334907,-0.00020883,0.00138263,-0.00056054,0.
 00066298,-0.00668554,-0.00482978,-0.00158141,-0.04230267,-0.09150420,-
 0.09888360,-0.00993237,-0.02507582,-0.01220220,0.04629369,0.10254089,0
 .10353893,-0.00004067,-0.00005915,-0.00008394,0.00001915,-0.00000558,0
 .00000083,-0.00048349,0.00059542,0.00072722,0.00274556,0.00815938,-0.0
 0080945,-0.00003576,-0.00349447,0.00006261,-0.02160943,0.02892607,-0.0
 2731833,-0.04853352,-0.00505858,0.00257102,0.00208737,-0.01276084,0.01
 066678,0.00207101,-0.00831913,0.00873220,0.06406119,0.00006279,0.00001
 036,-0.00000125,-0.00001479,0.00000098,-0.00002071,0.00005740,-0.00017
 952,0.00044413,-0.00255303,-0.00123853,-0.00080555,-0.00187339,0.00000
 051,-0.00110102,0.00881737,-0.00434048,0.00359641,0.00492191,-0.210005
 01,0.13564636,-0.00106400,0.00858833,-0.00709759,0.00017302,-0.0170757
 6,0.01635162,-0.00867698,0.22303415,0.00003231,-0.00006426,0.00000029,
 -0.00001102,-0.00001000,0.00000215,0.00001242,0.00006144,-0.00002705,0
 .00026281,0.00450549,0.00068783,0.00175843,-0.00174335,0.00023591,-0.0
 0650377,0.00272526,-0.00234501,-0.00392733,0.13125688,-0.16488423,0.00
 074508,0.02161699,-0.01840146,0.00154315,-0.01087304,0.01099112,0.0037
 7082,-0.14545022,0.17591826,-0.00007585,0.00007013,0.00001410,0.000030
 51,0.00001608,0.00000015,-0.00007997,-0.00009695,-0.00024992,0.0014959
 3,0.00161602,0.00009099,-0.00014132,-0.00060123,0.00033289,-0.00208646
 ,0.00002147,0.00344177,-0.01366416,0.00141254,-0.00608708,-0.30217298,
 0.04577228,-0.04692389,0.00039291,0.00032247,0.00014771,0.00024180,-0.
 00040677,0.00025424,0.32750894,0.00002763,0.00001268,0.00000880,-0.000
 00474,0.00000442,-0.00000162,0.00003659,-0.00000185,-0.00003454,-0.000
 13565,-0.00191179,-0.00047730,-0.00056768,0.00066084,0.00052169,0.0025
 5730,0.00116923,-0.00174083,0.00621833,-0.00310318,0.00299869,0.045152
 71,-0.05364762,0.00775974,-0.00030135,-0.00010285,0.00025502,-0.000055
 82,0.00016924,0.00001120,-0.05064243,0.05410702,0.00012206,-0.00005261
 ,0.00000539,-0.00002445,0.00000124,-0.00000907,0.00014070,0.00018571,0
 .00033921,-0.00065243,-0.00297134,-0.00074725,-0.00034109,0.00116342,0
 .00006236,0.00784969,-0.00126124,-0.00495946,0.02533379,-0.00354525,0.
 00904167,-0.04901794,0.00842153,-0.05730880,-0.00084109,-0.00037368,0.
 00096883,-0.00065851,0.00096402,0.00072168,0.05078059,-0.00828137,0.05
 854620,0.00000406,0.00001995,-0.00003116,-0.00000369,-0.00000469,0.000
 01006,0.00002127,-0.00011888,0.00005460,-0.00053502,-0.00158839,-0.000
 05268,-0.00043418,0.00070706,0.00009450,0.00254827,-0.00028526,-0.0009
 1876,-0.00092753,-0.01248989,0.01193254,-0.04834828,0.01550062,-0.0151
 0094,0.00028494,0.00022916,-0.00091152,-0.00095125,0.00092194,0.002931
 31,-0.00045050,0.02421001,-0.02067400,0.04821221,-0.00002357,0.0000289
 1,-0.00001673,0.00000670,-0.00000086,0.00001329,-0.00007263,-0.0000477
 1,-0.00006518,0.00021530,-0.00071871,0.00030231,-0.00055174,0.00044569
 ,0.00029280,-0.00150280,0.00039068,0.00007336,-0.00039272,0.00776736,-
 0.00730627,0.01537695,-0.20770422,0.13423433,-0.00053089,0.00081822,0.
 00050134,0.00153031,0.00036270,-0.00191207,-0.00016883,-0.00395186,0.0
 0176695,-0.01771729,0.22040098,0.00002211,-0.00005324,0.00003286,-0.00
 000853,-0.00000323,-0.00000802,0.00004437,0.00018390,-0.00008017,0.000
 11838,0.00031942,-0.00001756,-0.00006870,-0.00020581,0.00022072,-0.001
 36730,-0.00072227,0.00284170,-0.00316306,0.02417132,-0.02184862,-0.013
 07527,0.13186267,-0.15970967,-0.00049806,-0.00012793,0.00092388,0.0030
 1051,-0.00267676,-0.00388462,-0.00018335,0.00273089,-0.00353304,0.0127
 5428,-0.14520015,0.17538033,0.00003916,-0.00010139,-0.00001507,-0.0000
 2744,-0.00002154,0.00000322,0.00011012,0.00017190,0.00008867,-0.001065
 05,0.00142232,0.00052269,-0.00050135,-0.00116329,0.00027122,0.00155070
 ,-0.00083116,-0.00156877,0.00620103,0.01541536,0.00788182,-0.09250251,
 -0.09260744,-0.04639133,-0.00099303,0.00085134,0.00342416,0.00021212,-
 0.00037844,-0.00094094,-0.01101459,-0.02645721,-0.01201391,0.00063151,
 0.00385399,0.00232840,0.09729761,-0.00000591,0.00003481,0.00002973,0.0
 0001150,0.00001355,-0.00000699,0.00005109,-0.00007966,-0.00014904,0.00
 047086,-0.00043200,-0.00056267,-0.00100846,-0.00022520,0.00103933,0.00
 022195,0.00025852,0.00065596,-0.00214995,-0.00584365,-0.00362257,-0.09
 160075,-0.23661656,-0.09006688,0.00050358,0.00124044,-0.00071475,0.000
 41659,0.00051349,0.00020831,0.00278816,0.00649016,0.00377586,-0.009575
 32,-0.01788137,-0.01023430,0.09993062,0.25250176,-0.00001672,0.0000668
 0,-0.00000906,0.00000723,0.00001202,0.00002348,0.00002326,0.00003460,-
 0.00022522,0.00072374,-0.00314018,0.00004360,-0.00105615,0.00176382,0.
 00030739,0.00037091,0.00243459,0.00231272,-0.01451537,-0.02624611,-0.0
 1416762,-0.04311671,-0.08774368,-0.09074606,0.00364123,-0.00068272,-0.
 00434334,-0.00058571,0.00014937,0.00099982,-0.00164484,-0.00376790,-0.
 00305257,0.00988219,0.01729706,0.00970898,0.04639991,0.09964725,0.0991
 6573,0.01044539,-0.03647566,0.00164817,-0.00378899,-0.00266278,-0.0016
 1939,-0.09920495,-0.00054404,-0.01255636,-0.00644969,0.03022455,-0.002
 43828,-0.00658053,0.00472716,-0.00156925,-0.00823635,0.00536865,-0.001
 48403,0.00329054,0.00189687,0.00036345,-0.00037014,0.00004433,-0.00018
 379,0.00008434,-0.00015330,0.00004921,-0.00060831,0.00027466,-0.000016
 38,-0.00010850,0.00003197,0.00013899,0.00006864,-0.00002488,0.00000849
 ,0.00006458,-0.00002078,-0.00006843,0.53565846,-0.01742914,-0.05737078
 ,-0.00275540,0.00004514,0.00152523,0.00001605,0.06507976,-0.32092186,0
 .01382135,-0.00622051,-0.03209571,-0.00088227,0.00943154,-0.00168565,0
 .00172367,0.00294404,0.00728173,0.00057854,0.00035986,0.00088595,-0.00
 016490,-0.00017873,-0.00017313,0.00010869,0.00050159,0.00002152,0.0001
 3116,-0.00057472,-0.00005190,-0.00024708,0.00004071,0.00006948,0.00002
 705,0.00014908,0.00009693,-0.00013801,-0.00017794,0.00008306,0.0002138
 3,0.14786364,0.52839128,0.00157196,-0.00627979,0.00298670,-0.00163003,
 -0.00044699,0.00515900,-0.01306149,0.00165170,-0.03363959,-0.00205581,
 0.00577294,0.00520751,-0.00166765,0.00091104,0.00185947,-0.00168587,0.
 00101098,0.00013747,0.00057217,0.00015054,0.00007841,0.00002748,0.0001
 0568,-0.00010112,0.00000759,0.00004337,-0.00008272,-0.00002069,-0.0000
 4633,0.00003410,-0.00000623,-0.00000164,0.00009453,-0.00008734,-0.0000
 7222,0.00004221,-0.00000459,0.00006242,0.00000786,0.09517505,0.0246525
 2,0.03418887,0.00043945,0.00446222,0.00008372,0.00084272,0.00019365,-0
 .00028305,0.00539875,-0.00030515,0.00219846,0.00906175,0.00848856,0.00
 090748,-0.00278509,-0.00209458,-0.00042255,-0.00557830,-0.00070422,-0.
 00090586,-0.00330546,-0.00097032,-0.00000718,0.00046130,-0.00005133,0.
 00010958,-0.00014385,0.00008014,-0.00016132,0.00082423,-0.00026169,0.0
 0008888,0.00012423,-0.00006967,-0.00014240,-0.00012044,0.00000210,0.00
 007774,-0.00000286,-0.00003319,-0.00004453,-0.42426448,-0.20183432,-0.
 07713458,0.41904806,0.00216417,-0.00573665,0.00040415,-0.00080675,-0.0
 0049365,-0.00011476,-0.04070642,-0.02966015,-0.00738874,-0.00026224,-0
 .00544926,-0.00005222,-0.00151734,0.00245381,-0.00027047,-0.00289825,-
 0.00049259,-0.00041792,0.00291045,0.00131113,0.00040187,-0.00052319,0.
 00011391,-0.00027806,-0.00027649,-0.00007061,-0.00011406,-0.00062249,0
 .00021144,-0.00008555,-0.00014366,0.00003609,0.00017970,0.00004192,-0.
 00000673,0.00009353,0.00009288,-0.00005736,-0.00003875,-0.15055041,-0.
 12605617,-0.02751423,0.19309782,0.16389679,0.00009199,0.00081713,-0.00
 015715,-0.00024998,0.00006868,0.00227128,0.00238993,0.00020838,-0.0057
 9683,0.00095932,0.00153455,0.00387975,-0.00041084,-0.00037954,-0.00054
 179,-0.00056401,-0.00020762,-0.00175757,-0.00054601,-0.00003325,-0.000
 75071,0.00019898,-0.00019498,0.00018484,-0.00015648,-0.00001986,0.0000
 5671,-0.00006535,0.00004751,-0.00004877,0.00003288,0.00001917,-0.00016
 968,0.00011692,0.00009119,-0.00006897,0.00001450,-0.00006166,-0.000025
 73,-0.07744746,-0.03708519,-0.01597270,0.07563561,0.03519550,0.0188973
 3\\-0.00000020,0.00000027,0.00000052,-0.00000031,0.00000037,0.00000114
 ,0.00000017,0.00000096,0.00000017,0.00000059,-0.00000191,0.00000046,-0
 .00000095,0.00000250,0.00000078,0.00000040,-0.00000013,-0.00000037,-0.
 00000037,0.00000036,-0.00000023,0.00000002,-0.00000071,-0.00000001,0.0
 0000035,0.00000022,-0.00000074,0.00000008,0.00000036,0.00000018,-0.000
 00002,-0.00000081,-0.00000002,0.00000007,-0.00000105,-0.00000057,-0.00
 000019,-0.00000091,0.00000046,0.00000010,0.00000051,-0.00000081,0.0000
 0025,-0.00000003,-0.00000095\\\@


 IT PROBABLY IS NOT POSSIBLE FOR A SCIENTIST TO INTERROGATE NATURE 
 FROM A WHOLLY DISINTERESTED VIEWPOINT.
 EVEN IF HE HAS NO PARTICULAR AXE TO GRIND, HE IS LIKELY TO HAVE 
 A DISTINCTIVE WAY OF VIEWING NATURE.

                                                   -- JOHN LOSEE
 Job cpu time:       0 days  0 hours 47 minutes 44.3 seconds.
 Elapsed time:       0 days  0 hours  1 minutes 59.4 seconds.
 File lengths (MBytes):  RWF=    153 Int=      0 D2E=      0 Chk=      7 Scr=      1
 Normal termination of Gaussian 16 at Mon Jun  9 00:10:40 2025.
