 Entering Gaussian System, Link 0=g16
 Initial command:
 /opt/g16/l1.exe "/home/aayush/scratches/g16/Gau-13464.inp" -scrdir="/home/aayush/scratches/g16/"
 Entering Link 1 = /opt/g16/l1.exe PID=     13467.
  
 Copyright (c) 1988,1990,1992,1993,1995,1998,2003,2009,2016,
            Gaussian, Inc.  All Rights Reserved.
  
 This is part of the Gaussian(R) 16 program.  It is based on
 the Gaussian(R) 09 system (copyright 2009, Gaussian, Inc.),
 the Gaussian(R) 03 system (copyright 2003, Gaussian, Inc.),
 the Gaussian(R) 98 system (copyright 1998, Gaussian, Inc.),
 the Gaussian(R) 94 system (copyright 1995, Gaussian, Inc.),
 the Gaussian 92(TM) system (copyright 1992, Gaussian, Inc.),
 the Gaussian 90(TM) system (copyright 1990, Gaussian, Inc.),
 the Gaussian 88(TM) system (copyright 1988, Gaussian, Inc.),
 the Gaussian 86(TM) system (copyright 1986, Carnegie Mellon
 University), and the Gaussian 82(TM) system (copyright 1983,
 Carnegie Mellon University). Gaussian is a federally registered
 trademark of Gaussian, Inc.
  
 This software contains proprietary and confidential information,
 including trade secrets, belonging to Gaussian, Inc.
  
 This software is provided under written license and may be
 used, copied, transmitted, or stored only in accord with that
 written license.
  
 The following legend is applicable only to US Government
 contracts under FAR:
  
                    RESTRICTED RIGHTS LEGEND
  
 Use, reproduction and disclosure by the US Government is
 subject to restrictions as set forth in subparagraphs (a)
 and (c) of the Commercial Computer Software - Restricted
 Rights clause in FAR 52.227-19.
  
 Gaussian, Inc.
 340 Quinnipiac St., Bldg. 40, Wallingford CT 06492
  
  
 ---------------------------------------------------------------
 Warning -- This program may not be used in any manner that
 competes with the business of Gaussian, Inc. or will provide
 assistance to any competitor of Gaussian, Inc.  The licensee
 of this program is prohibited from giving any competitor of
 Gaussian, Inc. access to this program.  By using this program,
 the user acknowledges that Gaussian, Inc. is engaged in the
 business of creating and licensing software in the field of
 computational chemistry and represents and warrants to the
 licensee that it is not a competitor of Gaussian, Inc. and that
 it will not use this program in any manner prohibited above.
 ---------------------------------------------------------------
  

 Cite this work as:
 Gaussian 16, Revision A.03,
 M. J. Frisch, G. W. Trucks, H. B. Schlegel, G. E. Scuseria, 
 M. A. Robb, J. R. Cheeseman, G. Scalmani, V. Barone, 
 G. A. Petersson, H. Nakatsuji, X. Li, M. Caricato, A. V. Marenich, 
 J. Bloino, B. G. Janesko, R. Gomperts, B. Mennucci, H. P. Hratchian, 
 J. V. Ortiz, A. F. Izmaylov, J. L. Sonnenberg, D. Williams-Young, 
 F. Ding, F. Lipparini, F. Egidi, J. Goings, B. Peng, A. Petrone, 
 T. Henderson, D. Ranasinghe, V. G. Zakrzewski, J. Gao, N. Rega, 
 G. Zheng, W. Liang, M. Hada, M. Ehara, K. Toyota, R. Fukuda, 
 J. Hasegawa, M. Ishida, T. Nakajima, Y. Honda, O. Kitao, H. Nakai, 
 T. Vreven, K. Throssell, J. A. Montgomery, Jr., J. E. Peralta, 
 F. Ogliaro, M. J. Bearpark, J. J. Heyd, E. N. Brothers, K. N. Kudin, 
 V. N. Staroverov, T. A. Keith, R. Kobayashi, J. Normand, 
 K. Raghavachari, A. P. Rendell, J. C. Burant, S. S. Iyengar, 
 J. Tomasi, M. Cossi, J. M. Millam, M. Klene, C. Adamo, R. Cammi, 
 J. W. Ochterski, R. L. Martin, K. Morokuma, O. Farkas, 
 J. B. Foresman, and D. J. Fox, Gaussian, Inc., Wallingford CT, 2016.
 
 ******************************************
 Gaussian 16:  ES64L-G16RevA.03 25-Dec-2016
                 8-Jun-2025 
 ******************************************
 %chk=ethyl_propiolate_non_planar.chk
 %mem=12GB
 %nprocshared=24
 Will use up to   24 processors via shared memory.
 ---------------------------------------------------------
 # opt=(calcfc,tight,noeigentest) freq 6-311++g(d,p) m062x
 ---------------------------------------------------------
 1/7=10,10=4,11=1,18=20,19=15,26=3,38=1/1,3;
 2/9=110,12=2,17=6,18=5,40=1/2;
 3/5=4,6=6,7=1111,11=2,25=1,30=1,71=2,74=-55,140=1/1,2,3;
 4//1;
 5/5=2,38=5/2;
 8/6=4,10=90,11=11/1;
 11/6=1,8=1,9=11,15=111,16=1/1,2,10;
 10/6=1,13=1/2;
 6/7=2,8=2,9=2,10=2,28=1/1;
 7/10=1,18=20,25=1/1,2,3,16;
 1/7=10,10=4,11=1,18=20,19=15,26=3/3(2);
 2/9=110/2;
 99//99;
 2/9=110/2;
 3/5=4,6=6,7=1111,11=2,25=1,30=1,71=1,74=-55/1,2,3;
 4/5=5,16=3,69=1/1;
 5/5=2,38=5/2;
 7//1,2,3,16;
 1/7=10,11=1,18=20,19=15,26=3/3(-5);
 2/9=110/2;
 6/7=2,8=2,9=2,10=2,19=2,28=1/1;
 99/9=1/99;
 -------------------
 Title Card Required
 -------------------
 Symbolic Z-matrix:
 Charge =  0 Multiplicity = 2
 C                     2.67788   0.73833   0.26174 
 H                     2.79272   1.80898   0.27097 
 C                     1.66667  -0.09796   0.08754 
 C                     0.2903    0.40882  -0.16748 
 O                    -0.0396    1.58914  -0.24308 
 O                    -0.58367  -0.63065  -0.31563 
 C                    -2.00049  -0.31322  -0.5572 
 C                    -2.69512   0.02848   0.74801 
 H                    -2.39285  -1.22063  -1.01416 
 H                    -2.04128   0.51442  -1.26898 
 H                    -3.76088   0.19606   0.56658 
 H                    -2.59158  -0.79066   1.46378 
 H                    -2.27519   0.93882   1.18197 
 O                     1.8301   -1.47169   0.13152 
 H                     0.97885  -1.92818  -0.01835 
 

 GradGradGradGradGradGradGradGradGradGradGradGradGradGradGradGradGradGrad
 Berny optimization.
 Initialization pass.
                           ----------------------------
                           !    Initial Parameters    !
                           ! (Angstroms and Degrees)  !
 --------------------------                            --------------------------
 ! Name  Definition              Value          Derivative Info.                !
 --------------------------------------------------------------------------------
 ! R1    R(1,2)                  1.0768         calculate D2E/DX2 analytically  !
 ! R2    R(1,3)                  1.3237         calculate D2E/DX2 analytically  !
 ! R3    R(3,4)                  1.4887         calculate D2E/DX2 analytically  !
 ! R4    R(3,14)                 1.3841         calculate D2E/DX2 analytically  !
 ! R5    R(4,5)                  1.2279         calculate D2E/DX2 analytically  !
 ! R6    R(4,6)                  1.3661         calculate D2E/DX2 analytically  !
 ! R7    R(6,7)                  1.4719         calculate D2E/DX2 analytically  !
 ! R8    R(7,8)                  1.5175         calculate D2E/DX2 analytically  !
 ! R9    R(7,9)                  1.0891         calculate D2E/DX2 analytically  !
 ! R10   R(7,10)                 1.0924         calculate D2E/DX2 analytically  !
 ! R11   R(8,11)                 1.094          calculate D2E/DX2 analytically  !
 ! R12   R(8,12)                 1.0927         calculate D2E/DX2 analytically  !
 ! R13   R(8,13)                 1.0924         calculate D2E/DX2 analytically  !
 ! R14   R(14,15)                0.9775         calculate D2E/DX2 analytically  !
 ! A1    A(2,1,3)              135.2946         calculate D2E/DX2 analytically  !
 ! A2    A(1,3,4)              120.9133         calculate D2E/DX2 analytically  !
 ! A3    A(1,3,14)             122.1843         calculate D2E/DX2 analytically  !
 ! A4    A(4,3,14)             116.9023         calculate D2E/DX2 analytically  !
 ! A5    A(3,4,5)              125.8861         calculate D2E/DX2 analytically  !
 ! A6    A(3,4,6)              110.5502         calculate D2E/DX2 analytically  !
 ! A7    A(5,4,6)              123.5633         calculate D2E/DX2 analytically  !
 ! A8    A(4,6,7)              118.0027         calculate D2E/DX2 analytically  !
 ! A9    A(6,7,8)              110.3657         calculate D2E/DX2 analytically  !
 ! A10   A(6,7,9)              103.6479         calculate D2E/DX2 analytically  !
 ! A11   A(6,7,10)             107.8353         calculate D2E/DX2 analytically  !
 ! A12   A(8,7,9)              112.5557         calculate D2E/DX2 analytically  !
 ! A13   A(8,7,10)             111.8846         calculate D2E/DX2 analytically  !
 ! A14   A(9,7,10)             110.1452         calculate D2E/DX2 analytically  !
 ! A15   A(7,8,11)             109.7412         calculate D2E/DX2 analytically  !
 ! A16   A(7,8,12)             110.5622         calculate D2E/DX2 analytically  !
 ! A17   A(7,8,13)             110.6928         calculate D2E/DX2 analytically  !
 ! A18   A(11,8,12)            108.4072         calculate D2E/DX2 analytically  !
 ! A19   A(11,8,13)            108.2229         calculate D2E/DX2 analytically  !
 ! A20   A(12,8,13)            109.1506         calculate D2E/DX2 analytically  !
 ! A21   A(3,14,15)            110.8427         calculate D2E/DX2 analytically  !
 ! D1    D(2,1,3,4)              0.0058         calculate D2E/DX2 analytically  !
 ! D2    D(2,1,3,14)           179.9763         calculate D2E/DX2 analytically  !
 ! D3    D(1,3,4,5)              0.1666         calculate D2E/DX2 analytically  !
 ! D4    D(1,3,4,6)            179.9541         calculate D2E/DX2 analytically  !
 ! D5    D(14,3,4,5)          -179.8054         calculate D2E/DX2 analytically  !
 ! D6    D(14,3,4,6)            -0.0179         calculate D2E/DX2 analytically  !
 ! D7    D(1,3,14,15)         -179.9609         calculate D2E/DX2 analytically  !
 ! D8    D(4,3,14,15)            0.0107         calculate D2E/DX2 analytically  !
 ! D9    D(3,4,6,7)            179.1812         calculate D2E/DX2 analytically  !
 ! D10   D(5,4,6,7)             -1.0254         calculate D2E/DX2 analytically  !
 ! D11   D(4,6,7,8)            -80.6021         calculate D2E/DX2 analytically  !
 ! D12   D(4,6,7,9)            158.6553         calculate D2E/DX2 analytically  !
 ! D13   D(4,6,7,10)            41.8844         calculate D2E/DX2 analytically  !
 ! D14   D(6,7,8,11)          -176.179          calculate D2E/DX2 analytically  !
 ! D15   D(6,7,8,12)           -56.6456         calculate D2E/DX2 analytically  !
 ! D16   D(6,7,8,13)            64.4341         calculate D2E/DX2 analytically  !
 ! D17   D(9,7,8,11)           -60.9194         calculate D2E/DX2 analytically  !
 ! D18   D(9,7,8,12)            58.614          calculate D2E/DX2 analytically  !
 ! D19   D(9,7,8,13)           179.6937         calculate D2E/DX2 analytically  !
 ! D20   D(10,7,8,11)           63.7424         calculate D2E/DX2 analytically  !
 ! D21   D(10,7,8,12)         -176.7242         calculate D2E/DX2 analytically  !
 ! D22   D(10,7,8,13)          -55.6445         calculate D2E/DX2 analytically  !
 --------------------------------------------------------------------------------
 Trust Radius=3.00D-01 FncErr=1.00D-07 GrdErr=1.00D-06 EigMax=2.50D+02 EigMin=1.00D-04
 Number of steps in this run=     67 maximum allowed number of steps=    100.
 GradGradGradGradGradGradGradGradGradGradGradGradGradGradGradGradGradGrad

                          Input orientation:                          
 ---------------------------------------------------------------------
 Center     Atomic      Atomic             Coordinates (Angstroms)
 Number     Number       Type             X           Y           Z
 ---------------------------------------------------------------------
      1          6           0        2.677884    0.738329    0.261740
      2          1           0        2.792721    1.808981    0.270973
      3          6           0        1.666672   -0.097960    0.087542
      4          6           0        0.290303    0.408824   -0.167479
      5          8           0       -0.039595    1.589138   -0.243078
      6          8           0       -0.583671   -0.630646   -0.315627
      7          6           0       -2.000489   -0.313217   -0.557199
      8          6           0       -2.695117    0.028484    0.748010
      9          1           0       -2.392845   -1.220626   -1.014165
     10          1           0       -2.041283    0.514415   -1.268979
     11          1           0       -3.760879    0.196060    0.566575
     12          1           0       -2.591577   -0.790660    1.463781
     13          1           0       -2.275187    0.938823    1.181973
     14          8           0        1.830101   -1.471687    0.131518
     15          1           0        0.978853   -1.928176   -0.018352
 ---------------------------------------------------------------------
                    Distance matrix (angstroms):
                    1          2          3          4          5
     1  C    0.000000
     2  H    1.076833   0.000000
     3  C    1.323735   2.222174   0.000000
     4  C    2.448131   2.900823   1.488710   0.000000
     5  O    2.891956   2.886970   2.422180   1.227880   0.000000
     6  O    3.584018   4.206650   2.347412   1.366117   2.286640
     7  C    4.864523   5.307019   3.729624   2.433301   2.750042
     8  C    5.441459   5.789136   4.413322   3.145713   3.235691
     9  H    5.583702   6.141677   4.353598   3.251349   3.745282
    10  H    4.966264   5.235929   3.995508   2.580842   2.492841
    11  H    6.468744   6.755632   5.456577   4.122642   4.055140
    12  H    5.616932   6.096851   4.528416   3.522074   3.884510
    13  H    5.041819   5.222144   4.220302   2.946805   2.729753
    14  O    2.370625   3.421822   1.384113   2.448816   3.606208
    15  H    3.174178   4.164153   1.958060   2.440883   3.668683
                    6          7          8          9         10
     6  O    0.000000
     7  C    1.471901   0.000000
     8  C    2.454380   1.517511   0.000000
     9  H    2.027102   1.089106   2.181033   0.000000
    10  H    2.084389   1.092369   2.175287   1.788545   0.000000
    11  H    3.399467   2.149699   1.094006   2.525323   2.535275
    12  H    2.687673   2.159096   1.092724   2.522812   3.077990
    13  H    2.750866   2.160505   1.092420   3.082221   2.498399
    14  O    2.594915   4.060764   4.807096   4.382795   4.570953
    15  H    2.052666   3.431461   4.232480   3.586170   4.080630
                   11         12         13         14         15
    11  H    0.000000
    12  H    1.773658   0.000000
    13  H    1.771353   1.780626   0.000000
    14  O    5.850616   4.667972   4.875182   0.000000
    15  H    5.226813   4.029719   4.499916   0.977480   0.000000
 Stoichiometry    C5H7O3(2)
 Framework group  C1[X(C5H7O3)]
 Deg. of freedom    39
 Full point group                 C1      NOp   1
 Largest Abelian subgroup         C1      NOp   1
 Largest concise Abelian subgroup C1      NOp   1
                         Standard orientation:                         
 ---------------------------------------------------------------------
 Center     Atomic      Atomic             Coordinates (Angstroms)
 Number     Number       Type             X           Y           Z
 ---------------------------------------------------------------------
      1          6           0        2.677884    0.738329    0.261740
      2          1           0        2.792721    1.808981    0.270973
      3          6           0        1.666672   -0.097960    0.087542
      4          6           0        0.290303    0.408824   -0.167479
      5          8           0       -0.039595    1.589138   -0.243078
      6          8           0       -0.583671   -0.630646   -0.315627
      7          6           0       -2.000489   -0.313217   -0.557199
      8          6           0       -2.695117    0.028484    0.748010
      9          1           0       -2.392845   -1.220626   -1.014165
     10          1           0       -2.041283    0.514415   -1.268979
     11          1           0       -3.760879    0.196060    0.566575
     12          1           0       -2.591577   -0.790660    1.463781
     13          1           0       -2.275187    0.938823    1.181973
     14          8           0        1.830101   -1.471687    0.131518
     15          1           0        0.978853   -1.928176   -0.018352
 ---------------------------------------------------------------------
 Rotational constants (GHZ):           4.1208680           1.3295903           1.0972543
 Standard basis: 6-311++G(d,p) (5D, 7F)
 There are   233 symmetry adapted cartesian basis functions of A   symmetry.
 There are   225 symmetry adapted basis functions of A   symmetry.
   225 basis functions,   351 primitive gaussians,   233 cartesian basis functions
    31 alpha electrons       30 beta electrons
       nuclear repulsion energy       367.3474191765 Hartrees.
 NAtoms=   15 NActive=   15 NUniq=   15 SFac= 1.00D+00 NAtFMM=   60 NAOKFM=F Big=F
 Integral buffers will be    131072 words long.
 Raffenetti 2 integral format.
 Two-electron integral symmetry is turned on.
 One-electron integrals computed using PRISM.
 NBasis=   225 RedAO= T EigKep=  2.20D-05  NBF=   225
 NBsUse=   225 1.00D-06 EigRej= -1.00D+00 NBFU=   225
 ExpMin= 3.60D-02 ExpMax= 8.59D+03 ExpMxC= 1.30D+03 IAcc=3 IRadAn=         5 AccDes= 0.00D+00
 Harris functional with IExCor= 1009 and IRadAn=       5 diagonalized for initial guess.
 HarFok:  IExCor= 1009 AccDes= 0.00D+00 IRadAn=         5 IDoV= 1 UseB2=F ITyADJ=14
 ICtDFT=  3500011 ScaDFX=  1.000000  1.000000  1.000000  1.000000
 FoFCou: FMM=F IPFlag=           0 FMFlag=      100000 FMFlg1=           0
         NFxFlg=           0 DoJE=T BraDBF=F KetDBF=T FulRan=T
         wScrn=  0.000000 ICntrl=       500 IOpCl=  0 I1Cent=   200000004 NGrid=           0
         NMat0=    1 NMatS0=      1 NMatT0=    0 NMatD0=    1 NMtDS0=    0 NMtDT0=    0
 Petite list used in FoFCou.
 Initial guess <Sx>= 0.0000 <Sy>= 0.0000 <Sz>= 0.5000 <S**2>= 0.7500 S= 0.5000
 Requested convergence on RMS density matrix=1.00D-08 within 128 cycles.
 Requested convergence on MAX density matrix=1.00D-06.
 Requested convergence on             energy=1.00D-06.
 No special actions if energy rises.
 SCF Done:  E(UM062X) =  -420.266989670     A.U. after   18 cycles
            NFock= 18  Conv=0.45D-08     -V/T= 2.0041
 <Sx>= 0.0000 <Sy>= 0.0000 <Sz>= 0.5000 <S**2>= 0.7783 S= 0.5141
 <L.S>=  0.00000000000    
 Annihilation of the first spin contaminant:
 S**2 before annihilation     0.7783,   after     0.7502
 DoSCS=F DFT=T ScalE2(SS,OS)=  1.000000  1.000000
 Range of M.O.s used for correlation:     1   225
 NBasis=   225 NAE=    31 NBE=    30 NFC=     0 NFV=     0
 NROrb=    225 NOA=    31 NOB=    30 NVA=   194 NVB=   195

 **** Warning!!: The largest alpha MO coefficient is  0.52989661D+02


 **** Warning!!: The largest beta MO coefficient is  0.56464176D+02

 Symmetrizing basis deriv contribution to polar:
 IMax=3 JMax=2 DiffMx= 0.00D+00
 G2DrvN: will do    16 centers at a time, making    1 passes.
 Calling FoFCou, ICntrl=  3107 FMM=F I1Cent=   0 AccDes= 0.00D+00.
 End of G2Drv F.D. properties file   721 does not exist.
 End of G2Drv F.D. properties file   722 does not exist.
 End of G2Drv F.D. properties file   788 does not exist.
          IDoAtm=111111111111111
          Differentiating once with respect to nuclear coordinates.
 Keep R1 and R2 ints in memory in canonical form, NReq=671901991.
          There are    48 degrees of freedom in the 1st order CPHF.  IDoFFX=6 NUNeed=     0.
     42 vectors produced by pass  0 Test12= 2.47D-14 2.08D-09 XBig12= 3.54D-01 1.29D-01.
 AX will form    42 AO Fock derivatives at one time.
     42 vectors produced by pass  1 Test12= 2.47D-14 2.08D-09 XBig12= 8.11D-02 5.61D-02.
     42 vectors produced by pass  2 Test12= 2.47D-14 2.08D-09 XBig12= 2.69D-03 1.54D-02.
     42 vectors produced by pass  3 Test12= 2.47D-14 2.08D-09 XBig12= 5.74D-05 1.67D-03.
     42 vectors produced by pass  4 Test12= 2.47D-14 2.08D-09 XBig12= 6.64D-07 9.46D-05.
     42 vectors produced by pass  5 Test12= 2.47D-14 2.08D-09 XBig12= 6.68D-09 8.42D-06.
     39 vectors produced by pass  6 Test12= 2.47D-14 2.08D-09 XBig12= 5.71D-11 6.68D-07.
     22 vectors produced by pass  7 Test12= 2.47D-14 2.08D-09 XBig12= 4.43D-13 5.31D-08.
      3 vectors produced by pass  8 Test12= 2.47D-14 2.08D-09 XBig12= 3.39D-15 4.85D-09.
 InvSVY:  IOpt=1 It=  1 EMax= 1.67D-15
 Solved reduced A of dimension   316 with    42 vectors.
 End of Minotr F.D. properties file   721 does not exist.
 End of Minotr F.D. properties file   722 does not exist.
 End of Minotr F.D. properties file   788 does not exist.

 **********************************************************************

            Population analysis using the SCF density.

 **********************************************************************

 Orbital symmetries:
 Alpha Orbitals:
       Occupied  (A) (A) (A) (A) (A) (A) (A) (A) (A) (A) (A) (A)
                 (A) (A) (A) (A) (A) (A) (A) (A) (A) (A) (A) (A)
                 (A) (A) (A) (A) (A) (A) (A)
       Virtual   (A) (A) (A) (A) (A) (A) (A) (A) (A) (A) (A) (A)
                 (A) (A) (A) (A) (A) (A) (A) (A) (A) (A) (A) (A)
                 (A) (A) (A) (A) (A) (A) (A) (A) (A) (A) (A) (A)
                 (A) (A) (A) (A) (A) (A) (A) (A) (A) (A) (A) (A)
                 (A) (A) (A) (A) (A) (A) (A) (A) (A) (A) (A) (A)
                 (A) (A) (A) (A) (A) (A) (A) (A) (A) (A) (A) (A)
                 (A) (A) (A) (A) (A) (A) (A) (A) (A) (A) (A) (A)
                 (A) (A) (A) (A) (A) (A) (A) (A) (A) (A) (A) (A)
                 (A) (A) (A) (A) (A) (A) (A) (A) (A) (A) (A) (A)
                 (A) (A) (A) (A) (A) (A) (A) (A) (A) (A) (A) (A)
                 (A) (A) (A) (A) (A) (A) (A) (A) (A) (A) (A) (A)
                 (A) (A) (A) (A) (A) (A) (A) (A) (A) (A) (A) (A)
                 (A) (A) (A) (A) (A) (A) (A) (A) (A) (A) (A) (A)
                 (A) (A) (A) (A) (A) (A) (A) (A) (A) (A) (A) (A)
                 (A) (A) (A) (A) (A) (A) (A) (A) (A) (A) (A) (A)
                 (A) (A) (A) (A) (A) (A) (A) (A) (A) (A) (A) (A)
                 (A) (A)
 Beta  Orbitals:
       Occupied  (A) (A) (A) (A) (A) (A) (A) (A) (A) (A) (A) (A)
                 (A) (A) (A) (A) (A) (A) (A) (A) (A) (A) (A) (A)
                 (A) (A) (A) (A) (A) (A)
       Virtual   (A) (A) (A) (A) (A) (A) (A) (A) (A) (A) (A) (A)
                 (A) (A) (A) (A) (A) (A) (A) (A) (A) (A) (A) (A)
                 (A) (A) (A) (A) (A) (A) (A) (A) (A) (A) (A) (A)
                 (A) (A) (A) (A) (A) (A) (A) (A) (A) (A) (A) (A)
                 (A) (A) (A) (A) (A) (A) (A) (A) (A) (A) (A) (A)
                 (A) (A) (A) (A) (A) (A) (A) (A) (A) (A) (A) (A)
                 (A) (A) (A) (A) (A) (A) (A) (A) (A) (A) (A) (A)
                 (A) (A) (A) (A) (A) (A) (A) (A) (A) (A) (A) (A)
                 (A) (A) (A) (A) (A) (A) (A) (A) (A) (A) (A) (A)
                 (A) (A) (A) (A) (A) (A) (A) (A) (A) (A) (A) (A)
                 (A) (A) (A) (A) (A) (A) (A) (A) (A) (A) (A) (A)
                 (A) (A) (A) (A) (A) (A) (A) (A) (A) (A) (A) (A)
                 (A) (A) (A) (A) (A) (A) (A) (A) (A) (A) (A) (A)
                 (A) (A) (A) (A) (A) (A) (A) (A) (A) (A) (A) (A)
                 (A) (A) (A) (A) (A) (A) (A) (A) (A) (A) (A) (A)
                 (A) (A) (A) (A) (A) (A) (A) (A) (A) (A) (A) (A)
                 (A) (A) (A)
 The electronic state is 2-A.
 Alpha  occ. eigenvalues --  -19.69134 -19.65790 -19.63293 -10.70335 -10.63078
 Alpha  occ. eigenvalues --  -10.61801 -10.58399 -10.54650  -1.24574  -1.18080
 Alpha  occ. eigenvalues --   -1.15078  -0.90347  -0.87993  -0.78034  -0.70285
 Alpha  occ. eigenvalues --   -0.66954  -0.64141  -0.58544  -0.56471  -0.55248
 Alpha  occ. eigenvalues --   -0.54202  -0.50199  -0.48355  -0.47958  -0.46078
 Alpha  occ. eigenvalues --   -0.45569  -0.42919  -0.39238  -0.37523  -0.33605
 Alpha  occ. eigenvalues --   -0.32723
 Alpha virt. eigenvalues --   -0.02762  -0.00765   0.01059   0.01366   0.01605
 Alpha virt. eigenvalues --    0.03331   0.04320   0.05094   0.06220   0.06628
 Alpha virt. eigenvalues --    0.07362   0.08320   0.09073   0.09520   0.10698
 Alpha virt. eigenvalues --    0.11667   0.12187   0.12656   0.13114   0.13317
 Alpha virt. eigenvalues --    0.13976   0.14337   0.14607   0.14735   0.15713
 Alpha virt. eigenvalues --    0.16214   0.16964   0.17423   0.19944   0.20915
 Alpha virt. eigenvalues --    0.21912   0.22711   0.23687   0.24346   0.25006
 Alpha virt. eigenvalues --    0.25797   0.26716   0.28003   0.29090   0.29740
 Alpha virt. eigenvalues --    0.30836   0.31827   0.32204   0.33243   0.33881
 Alpha virt. eigenvalues --    0.34455   0.35008   0.36627   0.38790   0.38955
 Alpha virt. eigenvalues --    0.42368   0.43168   0.43824   0.45972   0.47055
 Alpha virt. eigenvalues --    0.49989   0.51447   0.55768   0.55998   0.57485
 Alpha virt. eigenvalues --    0.59610   0.60963   0.62232   0.63465   0.65118
 Alpha virt. eigenvalues --    0.66999   0.68079   0.68781   0.69831   0.72400
 Alpha virt. eigenvalues --    0.73400   0.74567   0.76521   0.78954   0.79594
 Alpha virt. eigenvalues --    0.82216   0.87917   0.91037   0.92963   0.96066
 Alpha virt. eigenvalues --    0.99628   1.00497   1.06268   1.08199   1.10650
 Alpha virt. eigenvalues --    1.11594   1.15934   1.17545   1.20931   1.22937
 Alpha virt. eigenvalues --    1.23329   1.26031   1.26285   1.27444   1.29027
 Alpha virt. eigenvalues --    1.34785   1.36649   1.39185   1.40444   1.46460
 Alpha virt. eigenvalues --    1.48965   1.50310   1.54616   1.57078   1.58257
 Alpha virt. eigenvalues --    1.60006   1.60120   1.61648   1.62773   1.67636
 Alpha virt. eigenvalues --    1.68911   1.71558   1.73374   1.75231   1.76009
 Alpha virt. eigenvalues --    1.80630   1.81477   1.83304   1.84466   1.86401
 Alpha virt. eigenvalues --    1.89839   1.92746   1.97654   2.06458   2.08326
 Alpha virt. eigenvalues --    2.09505   2.12137   2.14176   2.17397   2.21571
 Alpha virt. eigenvalues --    2.28167   2.30195   2.33801   2.39015   2.50014
 Alpha virt. eigenvalues --    2.52333   2.53459   2.60112   2.60993   2.62417
 Alpha virt. eigenvalues --    2.66201   2.66978   2.68136   2.69914   2.73205
 Alpha virt. eigenvalues --    2.75257   2.80068   2.81367   2.88814   2.89568
 Alpha virt. eigenvalues --    2.92328   2.93956   2.95265   2.98151   3.03431
 Alpha virt. eigenvalues --    3.10433   3.12807   3.13511   3.21104   3.23943
 Alpha virt. eigenvalues --    3.26209   3.30037   3.32098   3.40868   3.44922
 Alpha virt. eigenvalues --    3.58482   3.64241   3.71801   3.83398   3.85030
 Alpha virt. eigenvalues --    3.88344   3.94864   4.03297   4.08012   4.18535
 Alpha virt. eigenvalues --    4.24868   4.28485   5.10148   5.13602   5.17594
 Alpha virt. eigenvalues --    5.31381   5.44720   5.45655   5.70551   5.83927
 Alpha virt. eigenvalues --    5.92504  23.65910  23.87061  23.91831  24.04537
 Alpha virt. eigenvalues --   24.29412  49.97379  50.02995  50.11402
  Beta  occ. eigenvalues --  -19.69118 -19.65792 -19.63349 -10.70243 -10.63191
  Beta  occ. eigenvalues --  -10.61797 -10.57386 -10.54651  -1.24527  -1.18023
  Beta  occ. eigenvalues --   -1.15150  -0.89779  -0.86693  -0.77327  -0.68905
  Beta  occ. eigenvalues --   -0.66171  -0.63623  -0.58413  -0.56418  -0.54682
  Beta  occ. eigenvalues --   -0.53464  -0.50263  -0.48398  -0.47678  -0.46152
  Beta  occ. eigenvalues --   -0.45652  -0.42906  -0.39434  -0.37302  -0.30818
  Beta virt. eigenvalues --   -0.07084  -0.01786  -0.00678   0.01195   0.01433
  Beta virt. eigenvalues --    0.01740   0.03428   0.04504   0.05131   0.06232
  Beta virt. eigenvalues --    0.06668   0.07628   0.07975   0.09003   0.09880
  Beta virt. eigenvalues --    0.10560   0.11614   0.12308   0.12778   0.13073
  Beta virt. eigenvalues --    0.13249   0.14098   0.14555   0.14748   0.15001
  Beta virt. eigenvalues --    0.15485   0.16075   0.17104   0.17371   0.19889
  Beta virt. eigenvalues --    0.20876   0.21626   0.22680   0.23748   0.24688
  Beta virt. eigenvalues --    0.25384   0.25858   0.26497   0.28020   0.29108
  Beta virt. eigenvalues --    0.29646   0.30617   0.31801   0.32216   0.33153
  Beta virt. eigenvalues --    0.33917   0.33952   0.35102   0.36537   0.38855
  Beta virt. eigenvalues --    0.39042   0.42289   0.43200   0.44113   0.45928
  Beta virt. eigenvalues --    0.46947   0.50034   0.51481   0.56019   0.56189
  Beta virt. eigenvalues --    0.57826   0.59607   0.61096   0.62414   0.63403
  Beta virt. eigenvalues --    0.63875   0.64983   0.68068   0.68886   0.69831
  Beta virt. eigenvalues --    0.72376   0.73563   0.74757   0.76613   0.79209
  Beta virt. eigenvalues --    0.80374   0.82198   0.88018   0.91342   0.92975
  Beta virt. eigenvalues --    0.96062   0.99541   1.00519   1.06445   1.08765
  Beta virt. eigenvalues --    1.10971   1.11853   1.15788   1.17546   1.21421
  Beta virt. eigenvalues --    1.23240   1.23463   1.26075   1.26455   1.28474
  Beta virt. eigenvalues --    1.30377   1.34940   1.36927   1.39330   1.43567
  Beta virt. eigenvalues --    1.46531   1.49152   1.50436   1.56096   1.57588
  Beta virt. eigenvalues --    1.58275   1.60110   1.60291   1.61982   1.62786
  Beta virt. eigenvalues --    1.67778   1.68956   1.71928   1.73591   1.75525
  Beta virt. eigenvalues --    1.76632   1.81059   1.82338   1.83801   1.84419
  Beta virt. eigenvalues --    1.86463   1.89971   1.93325   1.97702   2.06500
  Beta virt. eigenvalues --    2.08543   2.09803   2.12273   2.15396   2.18696
  Beta virt. eigenvalues --    2.21684   2.29353   2.30546   2.33969   2.39942
  Beta virt. eigenvalues --    2.50017   2.52357   2.53470   2.60146   2.60997
  Beta virt. eigenvalues --    2.62450   2.66395   2.67261   2.68777   2.70469
  Beta virt. eigenvalues --    2.73304   2.75750   2.80228   2.84673   2.89227
  Beta virt. eigenvalues --    2.89777   2.92545   2.95099   2.95835   2.98037
  Beta virt. eigenvalues --    3.05392   3.10497   3.12768   3.13420   3.21074
  Beta virt. eigenvalues --    3.23840   3.26431   3.30192   3.32379   3.40755
  Beta virt. eigenvalues --    3.44949   3.59314   3.64626   3.72551   3.83402
  Beta virt. eigenvalues --    3.85030   3.88356   3.94953   4.03327   4.08416
  Beta virt. eigenvalues --    4.18568   4.24996   4.28625   5.09999   5.13488
  Beta virt. eigenvalues --    5.17424   5.31274   5.44746   5.45664   5.70605
  Beta virt. eigenvalues --    5.83930   5.92506  23.66236  23.87097  23.91849
  Beta virt. eigenvalues --   24.04538  24.30319  49.97376  50.02995  50.11467
          Condensed to atoms (all electrons):
               1          2          3          4          5          6
     1  C    6.458373   0.415158   0.090722  -0.675766   0.107666   0.046654
     2  H    0.415158   0.470242  -0.026659  -0.068426   0.004054  -0.000364
     3  C    0.090722  -0.026659   7.102705  -1.216107   0.006831  -0.408153
     4  C   -0.675766  -0.068426  -1.216107   7.950624   0.268675   0.121754
     5  O    0.107666   0.004054   0.006831   0.268675   8.071274  -0.169201
     6  O    0.046654  -0.000364  -0.408153   0.121754  -0.169201   8.506635
     7  C   -0.028771  -0.003018  -0.089037  -0.027145   0.075955   0.136900
     8  C    0.015335   0.001155   0.045687  -0.130543  -0.069754  -0.057845
     9  H   -0.000647   0.000016  -0.003497   0.017206   0.006809  -0.086433
    10  H   -0.006579  -0.000228  -0.017729   0.022908  -0.022377  -0.021632
    11  H    0.000449   0.000035   0.005039  -0.004581  -0.000152   0.017609
    12  H   -0.001489  -0.000054  -0.000903   0.003466   0.000406  -0.005005
    13  H   -0.003061  -0.000309  -0.025433   0.012895   0.007467  -0.020477
    14  O   -0.266452   0.005015   0.253044  -0.009686   0.001501   0.028660
    15  H    0.069128   0.001369   0.056498  -0.136421   0.000309   0.014005
               7          8          9         10         11         12
     1  C   -0.028771   0.015335  -0.000647  -0.006579   0.000449  -0.001489
     2  H   -0.003018   0.001155   0.000016  -0.000228   0.000035  -0.000054
     3  C   -0.089037   0.045687  -0.003497  -0.017729   0.005039  -0.000903
     4  C   -0.027145  -0.130543   0.017206   0.022908  -0.004581   0.003466
     5  O    0.075955  -0.069754   0.006809  -0.022377  -0.000152   0.000406
     6  O    0.136900  -0.057845  -0.086433  -0.021632   0.017609  -0.005005
     7  C    5.411501   0.026373   0.443037   0.406312  -0.047872  -0.025023
     8  C    0.026373   5.463420  -0.066126  -0.018722   0.404742   0.406764
     9  H    0.443037  -0.066126   0.541336  -0.038738   0.000082  -0.011792
    10  H    0.406312  -0.018722  -0.038738   0.504831  -0.005435   0.004690
    11  H   -0.047872   0.404742   0.000082  -0.005435   0.530068  -0.034385
    12  H   -0.025023   0.406764  -0.011792   0.004690  -0.034385   0.545930
    13  H    0.000983   0.378533   0.011967  -0.012993  -0.030502  -0.046167
    14  O   -0.004923   0.000850   0.000169   0.001040  -0.000017   0.000138
    15  H   -0.008780   0.003377  -0.002484   0.000048   0.000202  -0.000742
              13         14         15
     1  C   -0.003061  -0.266452   0.069128
     2  H   -0.000309   0.005015   0.001369
     3  C   -0.025433   0.253044   0.056498
     4  C    0.012895  -0.009686  -0.136421
     5  O    0.007467   0.001501   0.000309
     6  O   -0.020477   0.028660   0.014005
     7  C    0.000983  -0.004923  -0.008780
     8  C    0.378533   0.000850   0.003377
     9  H    0.011967   0.000169  -0.002484
    10  H   -0.012993   0.001040   0.000048
    11  H   -0.030502  -0.000017   0.000202
    12  H   -0.046167   0.000138  -0.000742
    13  H    0.538112   0.001013  -0.000298
    14  O    0.001013   7.960340   0.276546
    15  H   -0.000298   0.276546   0.407987
          Atomic-Atomic Spin Densities.
               1          2          3          4          5          6
     1  C    1.283271   0.015120  -0.054075  -0.127360  -0.010797   0.017589
     2  H    0.015120   0.019325  -0.016365  -0.028855  -0.000115   0.001148
     3  C   -0.054075  -0.016365  -0.112983   0.050913   0.013854  -0.012198
     4  C   -0.127360  -0.028855   0.050913   0.217829   0.011139  -0.033209
     5  O   -0.010797  -0.000115   0.013854   0.011139  -0.037780  -0.007812
     6  O    0.017589   0.001148  -0.012198  -0.033209  -0.007812   0.034747
     7  C   -0.020711  -0.001405   0.009208   0.015834   0.005649  -0.015762
     8  C    0.005012   0.000378   0.001147  -0.008471  -0.001090   0.004741
     9  H    0.000224   0.000036  -0.001322   0.002295  -0.000189   0.000531
    10  H   -0.000425  -0.000083   0.000469  -0.000992   0.000030  -0.000100
    11  H   -0.000190  -0.000008   0.000228  -0.000356   0.000103  -0.000273
    12  H    0.000069  -0.000009  -0.000274   0.000177  -0.000057   0.000118
    13  H   -0.000893  -0.000091   0.001049   0.001218  -0.000079  -0.001051
    14  O   -0.001781   0.005103   0.004684  -0.045520  -0.002446   0.011939
    15  H    0.008215   0.000407   0.009728  -0.012984   0.000315  -0.003344
               7          8          9         10         11         12
     1  C   -0.020711   0.005012   0.000224  -0.000425  -0.000190   0.000069
     2  H   -0.001405   0.000378   0.000036  -0.000083  -0.000008  -0.000009
     3  C    0.009208   0.001147  -0.001322   0.000469   0.000228  -0.000274
     4  C    0.015834  -0.008471   0.002295  -0.000992  -0.000356   0.000177
     5  O    0.005649  -0.001090  -0.000189   0.000030   0.000103  -0.000057
     6  O   -0.015762   0.004741   0.000531  -0.000100  -0.000273   0.000118
     7  C    0.025928  -0.005491  -0.003001   0.001812   0.000395  -0.000258
     8  C   -0.005491   0.000807   0.000749  -0.000935   0.000137   0.000350
     9  H   -0.003001   0.000749   0.001235   0.000084  -0.000246  -0.000045
    10  H    0.001812  -0.000935   0.000084  -0.000251   0.000211   0.000013
    11  H    0.000395   0.000137  -0.000246   0.000211   0.000381  -0.000063
    12  H   -0.000258   0.000350  -0.000045   0.000013  -0.000063   0.000027
    13  H    0.000016   0.000628  -0.000149   0.000269  -0.000194  -0.000033
    14  O   -0.006441   0.001036   0.000368  -0.000149  -0.000049   0.000060
    15  H   -0.000498   0.000563  -0.000117  -0.000093   0.000010  -0.000059
              13         14         15
     1  C   -0.000893  -0.001781   0.008215
     2  H   -0.000091   0.005103   0.000407
     3  C    0.001049   0.004684   0.009728
     4  C    0.001218  -0.045520  -0.012984
     5  O   -0.000079  -0.002446   0.000315
     6  O   -0.001051   0.011939  -0.003344
     7  C    0.000016  -0.006441  -0.000498
     8  C    0.000628   0.001036   0.000563
     9  H   -0.000149   0.000368  -0.000117
    10  H    0.000269  -0.000149  -0.000093
    11  H   -0.000194  -0.000049   0.000010
    12  H   -0.000033   0.000060  -0.000059
    13  H   -0.000339  -0.000316  -0.000032
    14  O   -0.000316   0.026530  -0.011236
    15  H   -0.000032  -0.011236   0.010720
 Mulliken charges and spin densities:
               1          2
     1  C   -0.220720   1.113267
     2  H    0.202014  -0.005412
     3  C    0.226992  -0.105938
     4  C   -0.128852   0.041658
     5  O   -0.289463  -0.029275
     6  O   -0.103108  -0.002936
     7  C   -0.266494   0.005276
     8  C   -0.403245  -0.000439
     9  H    0.189095   0.000453
    10  H    0.204605  -0.000139
    11  H    0.164718   0.000088
    12  H    0.164166   0.000014
    13  H    0.188272   0.000002
    14  O   -0.247237  -0.018216
    15  H    0.319256   0.001595
 Sum of Mulliken charges =  -0.00000   1.00000
 Mulliken charges and spin densities with hydrogens summed into heavy atoms:
               1          2
     1  C   -0.018706   1.107856
     3  C    0.226992  -0.105938
     4  C   -0.128852   0.041658
     5  O   -0.289463  -0.029275
     6  O   -0.103108  -0.002936
     7  C    0.127206   0.005591
     8  C    0.113912  -0.000335
    14  O    0.072019  -0.016621
 APT charges:
               1
     1  C    0.245932
     2  H    0.555953
     3  C   -0.444958
     4  C   -0.298418
     5  O   -0.223092
     6  O    0.017831
     7  C   -0.826185
     8  C   -1.274866
     9  H    0.532872
    10  H    0.388789
    11  H    0.681266
    12  H    0.350276
    13  H    0.248176
    14  O   -0.328418
    15  H    0.374841
 Sum of APT charges =  -0.00000
 APT charges with hydrogens summed into heavy atoms:
               1
     1  C    0.801885
     3  C   -0.444958
     4  C   -0.298418
     5  O   -0.223092
     6  O    0.017831
     7  C    0.095476
     8  C    0.004853
    14  O    0.046423
 Electronic spatial extent (au):  <R**2>=           1076.4102
 Charge=             -0.0000 electrons
 Dipole moment (field-independent basis, Debye):
    X=             -2.8248    Y=             -0.9150    Z=             -0.2289  Tot=              2.9781
 Quadrupole moment (field-independent basis, Debye-Ang):
   XX=            -45.0950   YY=            -49.5752   ZZ=            -47.7999
   XY=              6.1544   XZ=              0.4439   YZ=              1.4321
 Traceless Quadrupole moment (field-independent basis, Debye-Ang):
   XX=              2.3951   YY=             -2.0852   ZZ=             -0.3099
   XY=              6.1544   XZ=              0.4439   YZ=              1.4321
 Octapole moment (field-independent basis, Debye-Ang**2):
  XXX=            -29.3608  YYY=            -13.7418  ZZZ=             -3.8045  XYY=              0.1799
  XXY=             14.4161  XXZ=             -3.2219  XZZ=             -5.6739  YZZ=             -1.3344
  YYZ=              0.2895  XYZ=              1.2377
 Hexadecapole moment (field-independent basis, Debye-Ang**3):
 XXXX=          -1028.7384 YYYY=           -273.0467 ZZZZ=           -115.0477 XXXY=             34.8784
 XXXZ=              6.6492 YYYX=             12.1643 YYYZ=              5.7017 ZZZX=              0.4400
 ZZZY=             -2.2205 XXYY=           -215.1979 XXZZ=           -197.9195 YYZZ=            -66.2630
 XXYZ=              5.3600 YYXZ=              1.3354 ZZXY=             -2.4792
 N-N= 3.673474191765D+02 E-N=-1.718786423069D+03  KE= 4.185442708407D+02
  Exact polarizability:   0.000   0.000   0.000   0.000   0.000   0.000
 Approx polarizability:  88.979  10.603  90.400   4.976   1.383  59.682
                          Isotropic Fermi Contact Couplings
        Atom                 a.u.       MegaHertz       Gauss      10(-4) cm-1
     1  C(13)              0.41309     464.39182     165.70655     154.90444
     2  H(1)               0.00205       9.15369       3.26626       3.05334
     3  C(13)             -0.03294     -37.03461     -13.21487     -12.35342
     4  C(13)              0.06783      76.25726      27.21049      25.43668
     5  O(17)             -0.00485       2.94204       1.04979       0.98136
     6  O(17)              0.02499     -15.14937      -5.40567      -5.05329
     7  C(13)              0.00264       2.96272       1.05717       0.98826
     8  C(13)             -0.00057      -0.64011      -0.22841      -0.21352
     9  H(1)               0.00011       0.50916       0.18168       0.16984
    10  H(1)              -0.00014      -0.64289      -0.22940      -0.21445
    11  H(1)               0.00010       0.43327       0.15460       0.14452
    12  H(1)               0.00002       0.07604       0.02713       0.02537
    13  H(1)               0.00002       0.10974       0.03916       0.03661
    14  O(17)              0.03782     -22.92526      -8.18030      -7.64704
    15  H(1)               0.00088       3.92708       1.40128       1.30993
 --------------------------------------------------------
       Center         ----  Spin Dipole Couplings  ----
                      3XX-RR        3YY-RR        3ZZ-RR
 --------------------------------------------------------
     1   Atom        0.581040     -0.282366     -0.298674
     2   Atom       -0.024908      0.086061     -0.061153
     3   Atom        0.081447      0.100902     -0.182349
     4   Atom        0.039777     -0.022928     -0.016849
     5   Atom        0.064446      0.062314     -0.126760
     6   Atom        0.024372     -0.004004     -0.020368
     7   Atom        0.008152     -0.004157     -0.003995
     8   Atom        0.001576     -0.000692     -0.000884
     9   Atom        0.001114     -0.000275     -0.000839
    10   Atom        0.001684     -0.000962     -0.000722
    11   Atom        0.000966     -0.000504     -0.000461
    12   Atom        0.001202     -0.000666     -0.000535
    13   Atom        0.001824     -0.000965     -0.000859
    14   Atom        0.012416      0.161843     -0.174260
    15   Atom        0.000682      0.004258     -0.004940
 --------------------------------------------------------
                        XY            XZ            YZ
 --------------------------------------------------------
     1   Atom       -0.635951      0.171056     -0.115228
     2   Atom        0.011686      0.006614      0.000525
     3   Atom        0.072201      0.048666      0.010095
     4   Atom       -0.020120      0.011264     -0.003470
     5   Atom        0.000882      0.034821     -0.002133
     6   Atom        0.012737      0.008320      0.002337
     7   Atom        0.000004      0.002299     -0.000031
     8   Atom        0.000101     -0.000011      0.000125
     9   Atom        0.000808      0.000612      0.000476
    10   Atom       -0.000252      0.001030     -0.000475
    11   Atom        0.000052     -0.000094      0.000036
    12   Atom        0.000537     -0.000478     -0.000110
    13   Atom       -0.000291     -0.000450      0.000155
    14   Atom        0.004292      0.034943     -0.003162
    15   Atom        0.003195      0.001025      0.000477
 --------------------------------------------------------


 ---------------------------------------------------------------------------------
              Anisotropic Spin Dipole Couplings in Principal Axis System
 ---------------------------------------------------------------------------------

       Atom             a.u.   MegaHertz   Gauss  10(-4) cm-1        Axes

              Baa    -0.6209   -83.319   -29.730   -27.792  0.4582  0.8858  0.0735
     1 C(13)  Bbb    -0.3307   -44.380   -15.836   -14.804 -0.1775  0.0102  0.9841
              Bcc     0.9516   127.699    45.566    42.596  0.8709 -0.4640  0.1619
 
              Baa    -0.0623   -33.261   -11.868   -11.095 -0.1772  0.0105  0.9841
     2 H(1)   Bbb    -0.0249   -13.312    -4.750    -4.440  0.9787 -0.1039  0.1773
              Bcc     0.0873    46.573    16.618    15.535  0.1041  0.9945  0.0082
 
              Baa    -0.1911   -25.640    -9.149    -8.552 -0.1784  0.0101  0.9839
     3 C(13)  Bbb     0.0225     3.017     1.077     1.007  0.7198 -0.6804  0.1375
              Bcc     0.1686    22.622     8.072     7.546  0.6709  0.7327  0.1141
 
              Baa    -0.0288    -3.869    -1.381    -1.291  0.2790  0.9602  0.0158
     4 C(13)  Bbb    -0.0190    -2.549    -0.909    -0.850 -0.1765  0.0351  0.9837
              Bcc     0.0478     6.418     2.290     2.141  0.9439 -0.2772  0.1793
 
              Baa    -0.1329     9.619     3.432     3.208 -0.1738  0.0115  0.9847
     5 O(17)  Bbb     0.0623    -4.509    -1.609    -1.504 -0.0571  0.9981 -0.0218
              Bcc     0.0706    -5.110    -1.823    -1.705  0.9831  0.0601  0.1728
 
              Baa    -0.0219     1.582     0.565     0.528 -0.1763 -0.0031  0.9843
     6 O(17)  Bbb    -0.0088     0.639     0.228     0.213 -0.3446  0.9369 -0.0588
              Bcc     0.0307    -2.222    -0.793    -0.741  0.9220  0.3496  0.1662
 
              Baa    -0.0044    -0.593    -0.212    -0.198 -0.1787  0.1169  0.9769
     7 C(13)  Bbb    -0.0042    -0.557    -0.199    -0.186  0.0211  0.9931 -0.1150
              Bcc     0.0086     1.150     0.410     0.384  0.9837 -0.0001  0.1799
 
              Baa    -0.0009    -0.127    -0.045    -0.042  0.0216 -0.4473  0.8941
     8 C(13)  Bbb    -0.0006    -0.085    -0.030    -0.028 -0.0386  0.8933  0.4478
              Bcc     0.0016     0.212     0.076     0.071  0.9990  0.0442 -0.0020
 
              Baa    -0.0011    -0.600    -0.214    -0.200 -0.0982 -0.4140  0.9050
     9 H(1)   Bbb    -0.0006    -0.313    -0.112    -0.104 -0.4976  0.8080  0.3156
              Bcc     0.0017     0.912     0.326     0.304  0.8618  0.4193  0.2854
 
              Baa    -0.0014    -0.756    -0.270    -0.252 -0.1890  0.6572  0.7296
    10 H(1)   Bbb    -0.0007    -0.374    -0.133    -0.125  0.3303  0.7422 -0.5831
              Bcc     0.0021     1.130     0.403     0.377  0.9248 -0.1308  0.3574
 
              Baa    -0.0005    -0.283    -0.101    -0.094 -0.0627  0.8473 -0.5273
    11 H(1)   Bbb    -0.0004    -0.237    -0.084    -0.079  0.0371  0.5300  0.8472
              Bcc     0.0010     0.519     0.185     0.173  0.9973  0.0335 -0.0647
 
              Baa    -0.0008    -0.433    -0.154    -0.144 -0.2796  0.9544 -0.1051
    12 H(1)   Bbb    -0.0007    -0.349    -0.124    -0.116  0.2011  0.1652  0.9655
              Bcc     0.0015     0.782     0.279     0.261  0.9388  0.2488 -0.2381
 
              Baa    -0.0011    -0.574    -0.205    -0.192 -0.0125  0.8010 -0.5985
    13 H(1)   Bbb    -0.0009    -0.456    -0.163    -0.152  0.1958  0.5889  0.7841
              Bcc     0.0019     1.031     0.368     0.344  0.9806 -0.1074 -0.1642
 
              Baa    -0.1806    13.070     4.664     4.360 -0.1783  0.0113  0.9839
    14 O(17)  Bbb     0.0186    -1.349    -0.482    -0.450  0.9836 -0.0255  0.1786
              Bcc     0.1620   -11.721    -4.182    -3.910  0.0271  0.9996 -0.0066
 
              Baa    -0.0051    -2.733    -0.975    -0.912 -0.1799  0.0112  0.9836
    15 H(1)   Bbb    -0.0011    -0.580    -0.207    -0.193  0.8410 -0.5169  0.1597
              Bcc     0.0062     3.313     1.182     1.105  0.5103  0.8560  0.0835
 

 ---------------------------------------------------------------------------------

 Calling FoFJK, ICntrl=    100147 FMM=F ISym2X=0 I1Cent= 0 IOpClX= 1 NMat=1 NMatS=1 NMatT=0.
 ***** Axes restored to original set *****
 -------------------------------------------------------------------
 Center     Atomic                   Forces (Hartrees/Bohr)
 Number     Number              X              Y              Z
 -------------------------------------------------------------------
      1        6          -0.007710364   -0.004784849   -0.001332126
      2        1          -0.000803099   -0.000861657   -0.000132436
      3        6           0.007424689   -0.019468550    0.001462928
      4        6          -0.032636481    0.032291536   -0.006251676
      5        8           0.013033221   -0.043950781    0.002996498
      6        8           0.000692454    0.013649946   -0.000052139
      7        6           0.014660935    0.002250169    0.003894233
      8        6           0.000278953   -0.000021759   -0.000208981
      9        1           0.000354408    0.000656918    0.000451471
     10        1           0.000243104   -0.001341052    0.001022012
     11        1           0.001412108   -0.000425781   -0.000249510
     12        1          -0.000132913    0.000763922   -0.000925708
     13        1          -0.000101568   -0.001272985   -0.001068284
     14        8          -0.006217695    0.009993519   -0.001194722
     15        1           0.009502248    0.012521404    0.001588440
 -------------------------------------------------------------------
 Cartesian Forces:  Max     0.043950781 RMS     0.011156545
 FormGI is forming the generalized inverse of G from B-inverse, IUseBI=4.

 GradGradGradGradGradGradGradGradGradGradGradGradGradGradGradGradGradGrad
 Berny optimization.
 Internal  Forces:  Max     0.045934209 RMS     0.008409668
 Search for a local minimum.
 Step number   1 out of a maximum of   67
 All quantities printed in internal units (Hartrees-Bohrs-Radians)
 Mixed Optimization -- RFO/linear search
 Second derivative matrix not updated -- analytic derivatives used.
 ITU=  0
     Eigenvalues ---    0.00249   0.00327   0.00615   0.00860   0.01468
     Eigenvalues ---    0.01955   0.03309   0.04355   0.04459   0.04501
     Eigenvalues ---    0.06002   0.06605   0.07145   0.09484   0.12299
     Eigenvalues ---    0.12387   0.13167   0.15013   0.16626   0.16746
     Eigenvalues ---    0.19419   0.22430   0.23544   0.24213   0.26212
     Eigenvalues ---    0.29342   0.32115   0.34122   0.34262   0.34381
     Eigenvalues ---    0.34897   0.35509   0.38358   0.38799   0.40601
     Eigenvalues ---    0.45868   0.49793   0.63019   0.75966
 RFO step:  Lambda=-7.63310208D-03 EMin= 2.49468793D-03
 Linear search not attempted -- first point.
 Iteration  1 RMS(Cart)=  0.04093711 RMS(Int)=  0.00051246
 Iteration  2 RMS(Cart)=  0.00057592 RMS(Int)=  0.00003304
 Iteration  3 RMS(Cart)=  0.00000012 RMS(Int)=  0.00003304
 Variable       Old X    -DE/DX   Delta X   Delta X   Delta X     New X
                                 (Linear)    (Quad)   (Total)
    R1        2.03492  -0.00094   0.00000  -0.00233  -0.00233   2.03259
    R2        2.50150  -0.01026   0.00000  -0.01286  -0.01286   2.48864
    R3        2.81325   0.00298   0.00000   0.02866   0.02866   2.84192
    R4        2.61559  -0.02195   0.00000  -0.05608  -0.05608   2.55952
    R5        2.32036  -0.04593   0.00000  -0.06138  -0.06138   2.25897
    R6        2.58159  -0.02229   0.00000  -0.04118  -0.04118   2.54041
    R7        2.78149  -0.01644   0.00000  -0.05771  -0.05771   2.72378
    R8        2.86768  -0.00299   0.00000  -0.00403  -0.00403   2.86365
    R9        2.05811  -0.00086   0.00000  -0.00091  -0.00091   2.05720
   R10        2.06428  -0.00169   0.00000  -0.00395  -0.00395   2.06033
   R11        2.06737  -0.00140   0.00000  -0.00440  -0.00440   2.06297
   R12        2.06495  -0.00119   0.00000  -0.00308  -0.00308   2.06187
   R13        2.06438  -0.00152   0.00000  -0.00433  -0.00433   2.06004
   R14        1.84717  -0.01437   0.00000  -0.02669  -0.02669   1.82048
    A1        2.36134  -0.00146   0.00000  -0.01800  -0.01800   2.34333
    A2        2.11034  -0.00398   0.00000  -0.03482  -0.03482   2.07552
    A3        2.13252   0.00019   0.00000   0.02185   0.02185   2.15437
    A4        2.04033   0.00379   0.00000   0.01297   0.01297   2.05330
    A5        2.19713  -0.00159   0.00000  -0.00665  -0.00665   2.19047
    A6        1.92947   0.00146   0.00000  -0.00722  -0.00722   1.92225
    A7        2.15659   0.00013   0.00000   0.01387   0.01387   2.17045
    A8        2.05954  -0.01210   0.00000  -0.02425  -0.02425   2.03529
    A9        1.92624  -0.00001   0.00000   0.00864   0.00865   1.93490
   A10        1.80900   0.00001   0.00000   0.01173   0.01177   1.82077
   A11        1.88208  -0.00016   0.00000   0.00698   0.00699   1.88907
   A12        1.96447  -0.00002   0.00000  -0.01120  -0.01130   1.95317
   A13        1.95276   0.00016   0.00000  -0.00547  -0.00557   1.94719
   A14        1.92240  -0.00000   0.00000  -0.00852  -0.00868   1.91372
   A15        1.91535  -0.00058   0.00000  -0.00304  -0.00304   1.91230
   A16        1.92967   0.00005   0.00000  -0.00048  -0.00048   1.92920
   A17        1.93195  -0.00080   0.00000  -0.00192  -0.00192   1.93003
   A18        1.89206   0.00027   0.00000   0.00069   0.00069   1.89275
   A19        1.88885   0.00067   0.00000   0.00294   0.00294   1.89179
   A20        1.90504   0.00043   0.00000   0.00195   0.00195   1.90699
   A21        1.93457  -0.01214   0.00000  -0.04626  -0.04626   1.88831
    D1        0.00010  -0.00001   0.00000  -0.00062  -0.00062  -0.00052
    D2        3.14118   0.00002   0.00000   0.00036   0.00036   3.14154
    D3        0.00291  -0.00000   0.00000  -0.00061  -0.00062   0.00229
    D4        3.14079   0.00002   0.00000  -0.00108  -0.00108   3.13971
    D5       -3.13820  -0.00003   0.00000  -0.00154  -0.00154  -3.13974
    D6       -0.00031  -0.00001   0.00000  -0.00201  -0.00201  -0.00232
    D7       -3.14091  -0.00001   0.00000   0.00101   0.00100  -3.13991
    D8        0.00019   0.00002   0.00000   0.00194   0.00195   0.00214
    D9        3.12730   0.00004   0.00000  -0.00036  -0.00036   3.12694
   D10       -0.01790   0.00006   0.00000  -0.00087  -0.00087  -0.01877
   D11       -1.40677   0.00006   0.00000   0.00211   0.00212  -1.40465
   D12        2.76906   0.00008   0.00000   0.00421   0.00418   2.77324
   D13        0.73102   0.00014   0.00000   0.00520   0.00522   0.73624
   D14       -3.07490  -0.00006   0.00000  -0.00181  -0.00180  -3.07670
   D15       -0.98865  -0.00007   0.00000  -0.00319  -0.00317  -0.99183
   D16        1.12459  -0.00003   0.00000  -0.00232  -0.00231   1.12227
   D17       -1.06324  -0.00007   0.00000   0.01144   0.01138  -1.05186
   D18        1.02301  -0.00007   0.00000   0.01006   0.01001   1.03301
   D19        3.13625  -0.00003   0.00000   0.01092   0.01087  -3.13607
   D20        1.11251   0.00004   0.00000  -0.01289  -0.01284   1.09967
   D21       -3.08442   0.00003   0.00000  -0.01426  -0.01422  -3.09864
   D22       -0.97118   0.00008   0.00000  -0.01340  -0.01336  -0.98454
         Item               Value     Threshold  Converged?
 Maximum Force            0.045934     0.000015     NO 
 RMS     Force            0.008410     0.000010     NO 
 Maximum Displacement     0.190845     0.000060     NO 
 RMS     Displacement     0.041026     0.000040     NO 
 Predicted change in Energy=-3.894484D-03
 GradGradGradGradGradGradGradGradGradGradGradGradGradGradGradGradGradGrad

                          Input orientation:                          
 ---------------------------------------------------------------------
 Center     Atomic      Atomic             Coordinates (Angstroms)
 Number     Number       Type             X           Y           Z
 ---------------------------------------------------------------------
      1          6           0        2.633009    0.739373    0.260850
      2          1           0        2.691730    1.813367    0.263835
      3          6           0        1.656399   -0.127285    0.089257
      4          6           0        0.265950    0.385242   -0.166891
      5          8           0       -0.048143    1.536681   -0.234040
      6          8           0       -0.586159   -0.643613   -0.317178
      7          6           0       -1.968233   -0.308371   -0.551726
      8          6           0       -2.667310    0.038576    0.747232
      9          1           0       -2.387384   -1.201054   -1.012742
     10          1           0       -2.002943    0.520400   -1.259289
     11          1           0       -3.725699    0.224188    0.554574
     12          1           0       -2.585049   -0.785140    1.458012
     13          1           0       -2.234935    0.937523    1.186918
     14          8           0        1.833704   -1.469416    0.131106
     15          1           0        0.980954   -1.890391   -0.022684
 ---------------------------------------------------------------------
                    Distance matrix (angstroms):
                    1          2          3          4          5
     1  C    0.000000
     2  H    1.075602   0.000000
     3  C    1.316931   2.206472   0.000000
     4  C    2.431325   2.847714   1.503877   0.000000
     5  O    2.840632   2.798453   2.403906   1.195397   0.000000
     6  O    3.551029   4.137498   2.336847   1.344328   2.247232
     7  C    4.788473   5.184802   3.685324   2.370816   2.681769
     8  C    5.368526   5.665940   4.376632   3.091895   3.172893
     9  H    5.530971   6.042664   4.326612   3.204993   3.684239
    10  H    4.883730   5.102120   3.953335   2.521800   2.430062
    11  H    6.386302   6.617660   5.413598   4.059521   3.983588
    12  H    5.566459   6.001891   4.505125   3.484006   3.832725
    13  H    4.959207   5.088341   4.181047   2.896935   2.675849
    14  O    2.352546   3.395658   1.354439   2.446715   3.565290
    15  H    3.118547   4.089825   1.891375   2.389672   3.584484
                    6          7          8          9         10
     6  O    0.000000
     7  C    1.441363   0.000000
     8  C    2.435065   1.515379   0.000000
     9  H    2.009717   1.088626   2.170841   0.000000
    10  H    2.061499   1.090280   2.167870   1.781007   0.000000
    11  H    3.371905   2.143877   1.091676   2.505770   2.519073
    12  H    2.677105   2.155648   1.091093   2.513301   3.070343
    13  H    2.735097   2.155520   1.090128   3.071686   2.492336
    14  O    2.595890   4.033486   4.786730   4.381552   4.540091
    15  H    2.024111   3.388270   4.198037   3.577863   4.030477
                   11         12         13         14         15
    11  H    0.000000
    12  H    1.770883   0.000000
    13  H    1.769487   1.778663   0.000000
    14  O    5.827056   4.664150   4.843750   0.000000
    15  H    5.192037   4.016269   4.449963   0.963355   0.000000
 Stoichiometry    C5H7O3(2)
 Framework group  C1[X(C5H7O3)]
 Deg. of freedom    39
 Full point group                 C1      NOp   1
 Largest Abelian subgroup         C1      NOp   1
 Largest concise Abelian subgroup C1      NOp   1
                         Standard orientation:                         
 ---------------------------------------------------------------------
 Center     Atomic      Atomic             Coordinates (Angstroms)
 Number     Number       Type             X           Y           Z
 ---------------------------------------------------------------------
      1          6           0        2.629389    0.772165    0.255001
      2          1           0        2.679661    1.846582    0.250437
      3          6           0        1.659685   -0.103335    0.089239
      4          6           0        0.265334    0.396420   -0.170909
      5          8           0       -0.057781    1.544851   -0.246257
      6          8           0       -0.578605   -0.640139   -0.314187
      7          6           0       -1.963193   -0.317440   -0.551485
      8          6           0       -2.665420    0.033135    0.744798
      9          1           0       -2.375154   -1.216617   -1.006320
     10          1           0       -2.004179    0.506029   -1.264878
     11          1           0       -3.725170    0.209054    0.550536
     12          1           0       -2.576924   -0.784882    1.461386
     13          1           0       -2.240277    0.938530    1.178263
     14          8           0        1.847525   -1.443702    0.140592
     15          1           0        0.998164   -1.872445   -0.010471
 ---------------------------------------------------------------------
 Rotational constants (GHZ):           4.2264659           1.3572968           1.1227636
 Standard basis: 6-311++G(d,p) (5D, 7F)
 There are   233 symmetry adapted cartesian basis functions of A   symmetry.
 There are   225 symmetry adapted basis functions of A   symmetry.
   225 basis functions,   351 primitive gaussians,   233 cartesian basis functions
    31 alpha electrons       30 beta electrons
       nuclear repulsion energy       371.6601768807 Hartrees.
 NAtoms=   15 NActive=   15 NUniq=   15 SFac= 1.00D+00 NAtFMM=   60 NAOKFM=F Big=F
 Integral buffers will be    131072 words long.
 Raffenetti 2 integral format.
 Two-electron integral symmetry is turned on.
 One-electron integrals computed using PRISM.
 NBasis=   225 RedAO= T EigKep=  2.28D-05  NBF=   225
 NBsUse=   225 1.00D-06 EigRej= -1.00D+00 NBFU=   225
 Initial guess from the checkpoint file:  "ethyl_propiolate_non_planar.chk"
 B after Tr=    -0.000000   -0.000000   -0.000000
         Rot=    0.999984    0.003904    0.000070   -0.003983 Ang=   0.64 deg.
 Initial guess <Sx>= 0.0000 <Sy>= 0.0000 <Sz>= 0.5000 <S**2>= 0.7781 S= 0.5140
 ExpMin= 3.60D-02 ExpMax= 8.59D+03 ExpMxC= 1.30D+03 IAcc=3 IRadAn=         5 AccDes= 0.00D+00
 Harris functional with IExCor= 1009 and IRadAn=       5 diagonalized for initial guess.
 HarFok:  IExCor= 1009 AccDes= 0.00D+00 IRadAn=         5 IDoV= 1 UseB2=F ITyADJ=14
 ICtDFT=  3500011 ScaDFX=  1.000000  1.000000  1.000000  1.000000
 FoFCou: FMM=F IPFlag=           0 FMFlag=      100000 FMFlg1=           0
         NFxFlg=           0 DoJE=T BraDBF=F KetDBF=T FulRan=T
         wScrn=  0.000000 ICntrl=       500 IOpCl=  0 I1Cent=   200000004 NGrid=           0
         NMat0=    1 NMatS0=      1 NMatT0=    0 NMatD0=    1 NMtDS0=    0 NMtDT0=    0
 Petite list used in FoFCou.
 Requested convergence on RMS density matrix=1.00D-08 within 128 cycles.
 Requested convergence on MAX density matrix=1.00D-06.
 Requested convergence on             energy=1.00D-06.
 No special actions if energy rises.
 SCF Done:  E(UM062X) =  -420.270654334     A.U. after   14 cycles
            NFock= 14  Conv=0.98D-08     -V/T= 2.0033
 <Sx>= 0.0000 <Sy>= 0.0000 <Sz>= 0.5000 <S**2>= 0.7752 S= 0.5125
 <L.S>=  0.00000000000    
 Annihilation of the first spin contaminant:
 S**2 before annihilation     0.7752,   after     0.7501
 Calling FoFJK, ICntrl=      2127 FMM=F ISym2X=0 I1Cent= 0 IOpClX= 1 NMat=1 NMatS=1 NMatT=0.
 ***** Axes restored to original set *****
 -------------------------------------------------------------------
 Center     Atomic                   Forces (Hartrees/Bohr)
 Number     Number              X              Y              Z
 -------------------------------------------------------------------
      1        6           0.000160557    0.000198635    0.000008077
      2        1          -0.000082735   -0.000036239   -0.000011127
      3        6           0.000423107    0.001373828    0.000056301
      4        6           0.001455282   -0.003732069    0.000371663
      5        8          -0.001135193    0.005005861   -0.000250192
      6        8           0.000328044   -0.000968334   -0.000024612
      7        6          -0.000746661    0.000056445   -0.000022936
      8        6          -0.000119480    0.000048338    0.000003443
      9        1          -0.000167962    0.000075347   -0.000045210
     10        1          -0.000238810   -0.000108682   -0.000086468
     11        1           0.000021372    0.000002880   -0.000012905
     12        1          -0.000025328   -0.000003031   -0.000030215
     13        1           0.000006916   -0.000035484   -0.000005165
     14        8           0.000538118   -0.001448622    0.000134247
     15        1          -0.000417228   -0.000428875   -0.000084902
 -------------------------------------------------------------------
 Cartesian Forces:  Max     0.005005861 RMS     0.001046138

 GradGradGradGradGradGradGradGradGradGradGradGradGradGradGradGradGradGrad
 Berny optimization.
 Using GEDIIS/GDIIS optimizer.
 FormGI is forming the generalized inverse of G from B-inverse, IUseBI=4.
 Internal  Forces:  Max     0.005134439 RMS     0.000785876
 Search for a local minimum.
 Step number   2 out of a maximum of   67
 All quantities printed in internal units (Hartrees-Bohrs-Radians)
 Mixed Optimization -- En-DIIS/RFO-DIIS
 Update second derivatives using D2CorX and points    1    2
 DE= -3.66D-03 DEPred=-3.89D-03 R= 9.41D-01
 TightC=F SS=  1.41D+00  RLast= 1.43D-01 DXNew= 5.0454D-01 4.2869D-01
 Trust test= 9.41D-01 RLast= 1.43D-01 DXMaxT set to 4.29D-01
 ITU=  1  0
 Use linear search instead of GDIIS.
     Eigenvalues ---    0.00249   0.00327   0.00615   0.00860   0.01468
     Eigenvalues ---    0.01955   0.03308   0.04355   0.04459   0.04507
     Eigenvalues ---    0.06002   0.06604   0.07144   0.09493   0.12301
     Eigenvalues ---    0.12386   0.13170   0.15063   0.16625   0.16737
     Eigenvalues ---    0.19362   0.22442   0.23536   0.24197   0.26228
     Eigenvalues ---    0.29463   0.32170   0.34122   0.34262   0.34385
     Eigenvalues ---    0.34891   0.35524   0.38362   0.39200   0.40760
     Eigenvalues ---    0.46042   0.49788   0.63068   0.80819
 RFO step:  Lambda=-2.00536294D-05 EMin= 2.49467952D-03
 Quartic linear search produced a step of -0.06149.
 Iteration  1 RMS(Cart)=  0.00426979 RMS(Int)=  0.00000844
 Iteration  2 RMS(Cart)=  0.00001211 RMS(Int)=  0.00000183
 Iteration  3 RMS(Cart)=  0.00000000 RMS(Int)=  0.00000183
 Variable       Old X    -DE/DX   Delta X   Delta X   Delta X     New X
                                 (Linear)    (Quad)   (Total)
    R1        2.03259  -0.00004   0.00014  -0.00014   0.00001   2.03260
    R2        2.48864   0.00016   0.00079  -0.00082  -0.00003   2.48861
    R3        2.84192   0.00071  -0.00176   0.00301   0.00125   2.84316
    R4        2.55952   0.00188   0.00345   0.00061   0.00406   2.56358
    R5        2.25897   0.00513   0.00377   0.00245   0.00622   2.26519
    R6        2.54041   0.00134   0.00253  -0.00181   0.00072   2.54113
    R7        2.72378   0.00126   0.00355  -0.00034   0.00321   2.72699
    R8        2.86365   0.00002   0.00025  -0.00052  -0.00027   2.86338
    R9        2.05720   0.00002   0.00006  -0.00000   0.00005   2.05726
   R10        2.06033  -0.00002   0.00024  -0.00030  -0.00006   2.06027
   R11        2.06297  -0.00002   0.00027  -0.00033  -0.00006   2.06291
   R12        2.06187  -0.00002   0.00019  -0.00028  -0.00009   2.06178
   R13        2.06004  -0.00003   0.00027  -0.00045  -0.00019   2.05986
   R14        1.82048   0.00057   0.00164  -0.00073   0.00091   1.82139
    A1        2.34333  -0.00017   0.00111  -0.00402  -0.00291   2.34042
    A2        2.07552  -0.00025   0.00214  -0.00317  -0.00103   2.07449
    A3        2.15437   0.00010  -0.00134   0.00216   0.00081   2.15518
    A4        2.05330   0.00014  -0.00080   0.00101   0.00022   2.05352
    A5        2.19047  -0.00020   0.00041  -0.00157  -0.00116   2.18932
    A6        1.92225  -0.00010   0.00044   0.00009   0.00053   1.92278
    A7        2.17045   0.00031  -0.00085   0.00148   0.00063   2.17108
    A8        2.03529   0.00076   0.00149  -0.00012   0.00137   2.03666
    A9        1.93490   0.00008  -0.00053   0.00189   0.00136   1.93626
   A10        1.82077   0.00007  -0.00072   0.00100   0.00028   1.82105
   A11        1.88907   0.00008  -0.00043   0.00148   0.00105   1.89012
   A12        1.95317  -0.00010   0.00069  -0.00145  -0.00075   1.95242
   A13        1.94719  -0.00005   0.00034  -0.00019   0.00016   1.94735
   A14        1.91372  -0.00007   0.00053  -0.00260  -0.00205   1.91166
   A15        1.91230  -0.00002   0.00019  -0.00122  -0.00103   1.91127
   A16        1.92920  -0.00001   0.00003   0.00028   0.00031   1.92951
   A17        1.93003   0.00000   0.00012   0.00007   0.00019   1.93022
   A18        1.89275   0.00001  -0.00004  -0.00003  -0.00007   1.89268
   A19        1.89179   0.00001  -0.00018   0.00037   0.00019   1.89198
   A20        1.90699   0.00001  -0.00012   0.00053   0.00041   1.90740
   A21        1.88831   0.00036   0.00284  -0.00293  -0.00008   1.88823
    D1       -0.00052   0.00000   0.00004   0.00086   0.00090   0.00039
    D2        3.14154   0.00000  -0.00002   0.00113   0.00111  -3.14054
    D3        0.00229  -0.00000   0.00004  -0.00311  -0.00307  -0.00078
    D4        3.13971  -0.00001   0.00007  -0.00380  -0.00373   3.13597
    D5       -3.13974  -0.00000   0.00009  -0.00336  -0.00327   3.14018
    D6       -0.00232  -0.00002   0.00012  -0.00405  -0.00393  -0.00625
    D7       -3.13991   0.00001  -0.00006   0.00466   0.00460  -3.13531
    D8        0.00214   0.00001  -0.00012   0.00493   0.00481   0.00694
    D9        3.12694   0.00001   0.00002  -0.00094  -0.00092   3.12603
   D10       -0.01877  -0.00000   0.00005  -0.00163  -0.00157  -0.02034
   D11       -1.40465   0.00001  -0.00013   0.00759   0.00746  -1.39719
   D12        2.77324   0.00005  -0.00026   0.00773   0.00748   2.78072
   D13        0.73624   0.00005  -0.00032   0.00954   0.00922   0.74546
   D14       -3.07670   0.00001   0.00011  -0.00609  -0.00598  -3.08268
   D15       -0.99183  -0.00000   0.00020  -0.00672  -0.00652  -0.99835
   D16        1.12227   0.00000   0.00014  -0.00582  -0.00567   1.11660
   D17       -1.05186   0.00009  -0.00070  -0.00454  -0.00524  -1.05710
   D18        1.03301   0.00008  -0.00062  -0.00517  -0.00579   1.02723
   D19       -3.13607   0.00008  -0.00067  -0.00427  -0.00494  -3.14101
   D20        1.09967  -0.00012   0.00079  -0.00914  -0.00835   1.09132
   D21       -3.09864  -0.00013   0.00087  -0.00977  -0.00890  -3.10753
   D22       -0.98454  -0.00013   0.00082  -0.00887  -0.00805  -0.99259
         Item               Value     Threshold  Converged?
 Maximum Force            0.005134     0.000015     NO 
 RMS     Force            0.000786     0.000010     NO 
 Maximum Displacement     0.012538     0.000060     NO 
 RMS     Displacement     0.004271     0.000040     NO 
 Predicted change in Energy=-2.616656D-05
 GradGradGradGradGradGradGradGradGradGradGradGradGradGradGradGradGradGrad

                          Input orientation:                          
 ---------------------------------------------------------------------
 Center     Atomic      Atomic             Coordinates (Angstroms)
 Number     Number       Type             X           Y           Z
 ---------------------------------------------------------------------
      1          6           0        2.634029    0.740506    0.260550
      2          1           0        2.688066    1.814747    0.264212
      3          6           0        1.658425   -0.127397    0.089654
      4          6           0        0.266863    0.385026   -0.164521
      5          8           0       -0.047825    1.539959   -0.227406
      6          8           0       -0.584977   -0.643880   -0.319330
      7          6           0       -1.969476   -0.309843   -0.551716
      8          6           0       -2.667420    0.040132    0.746874
      9          1           0       -2.389342   -1.203877   -1.009520
     10          1           0       -2.007664    0.515913   -1.262570
     11          1           0       -3.724761    0.229986    0.552784
     12          1           0       -2.589514   -0.783863    1.457747
     13          1           0       -2.231760    0.937363    1.186579
     14          8           0        1.836811   -1.471580    0.130614
     15          1           0        0.984437   -1.893111   -0.026719
 ---------------------------------------------------------------------
                    Distance matrix (angstroms):
                    1          2          3          4          5
     1  C    0.000000
     2  H    1.075605   0.000000
     3  C    1.316914   2.205119   0.000000
     4  C    2.431158   2.844317   1.504536   0.000000
     5  O    2.840698   2.793259   2.406635   1.198688   0.000000
     6  O    3.551730   4.134995   2.338136   1.344710   2.250808
     7  C    4.791166   5.183852   3.688674   2.373600   2.686948
     8  C    5.369581   5.662460   4.378692   3.091862   3.171905
     9  H    5.534253   6.042728   4.330291   3.208436   3.690940
    10  H    4.890363   5.105675   3.960122   2.529094   2.441557
    11  H    6.385940   6.612041   5.414878   4.058524   3.980525
    12  H    5.571569   6.002512   4.510833   3.486681   3.834067
    13  H    4.957034   5.081855   4.179773   2.893728   2.670589
    14  O    2.354945   3.397415   1.356587   2.449250   3.570630
    15  H    3.120835   4.090868   1.893555   2.392448   3.590516
                    6          7          8          9         10
     6  O    0.000000
     7  C    1.443060   0.000000
     8  C    2.437465   1.515237   0.000000
     9  H    2.011390   1.088655   2.170209   0.000000
    10  H    2.063700   1.090250   2.167835   1.779716   0.000000
    11  H    3.373791   2.142979   1.091643   2.506013   2.515091
    12  H    2.682493   2.155710   1.091045   2.510755   3.070520
    13  H    2.734957   2.155454   1.090029   3.071253   2.495229
    14  O    2.598576   4.037701   4.790945   4.385424   4.546546
    15  H    2.027131   3.392339   4.203800   3.580967   4.035268
                   11         12         13         14         15
    11  H    0.000000
    12  H    1.770772   0.000000
    13  H    1.769500   1.778803   0.000000
    14  O    5.831349   4.671894   4.844723   0.000000
    15  H    5.198067   4.025817   4.452819   0.963838   0.000000
 Stoichiometry    C5H7O3(2)
 Framework group  C1[X(C5H7O3)]
 Deg. of freedom    39
 Full point group                 C1      NOp   1
 Largest Abelian subgroup         C1      NOp   1
 Largest concise Abelian subgroup C1      NOp   1
                         Standard orientation:                         
 ---------------------------------------------------------------------
 Center     Atomic      Atomic             Coordinates (Angstroms)
 Number     Number       Type             X           Y           Z
 ---------------------------------------------------------------------
      1          6           0        2.629325    0.775130    0.251406
      2          1           0        2.674402    1.849767    0.244263
      3          6           0        1.661030   -0.102555    0.089117
      4          6           0        0.265300    0.395660   -0.170396
      5          8           0       -0.058993    1.547237   -0.244944
      6          8           0       -0.577897   -0.641820   -0.314961
      7          6           0       -1.965081   -0.321697   -0.550889
      8          6           0       -2.666209    0.035495    0.744016
      9          1           0       -2.377375   -1.223763   -0.999731
     10          1           0       -2.009994    0.496518   -1.270022
     11          1           0       -3.725052    0.214560    0.547878
     12          1           0       -2.581593   -0.780627    1.463157
     13          1           0       -2.238143    0.940707    1.174729
     14          8           0        1.850609   -1.444724    0.143627
     15          1           0        1.001814   -1.874910   -0.009574
 ---------------------------------------------------------------------
 Rotational constants (GHZ):           4.2171133           1.3560543           1.1210341
 Standard basis: 6-311++G(d,p) (5D, 7F)
 There are   233 symmetry adapted cartesian basis functions of A   symmetry.
 There are   225 symmetry adapted basis functions of A   symmetry.
   225 basis functions,   351 primitive gaussians,   233 cartesian basis functions
    31 alpha electrons       30 beta electrons
       nuclear repulsion energy       371.3591454833 Hartrees.
 NAtoms=   15 NActive=   15 NUniq=   15 SFac= 1.00D+00 NAtFMM=   60 NAOKFM=F Big=F
 Integral buffers will be    131072 words long.
 Raffenetti 2 integral format.
 Two-electron integral symmetry is turned on.
 One-electron integrals computed using PRISM.
 NBasis=   225 RedAO= T EigKep=  2.28D-05  NBF=   225
 NBsUse=   225 1.00D-06 EigRej= -1.00D+00 NBFU=   225
 Initial guess from the checkpoint file:  "ethyl_propiolate_non_planar.chk"
 B after Tr=     0.000000   -0.000000    0.000000
         Rot=    1.000000    0.000888   -0.000054   -0.000250 Ang=   0.11 deg.
 Initial guess <Sx>= 0.0000 <Sy>= 0.0000 <Sz>= 0.5000 <S**2>= 0.7752 S= 0.5125
 Requested convergence on RMS density matrix=1.00D-08 within 128 cycles.
 Requested convergence on MAX density matrix=1.00D-06.
 Requested convergence on             energy=1.00D-06.
 No special actions if energy rises.
 SCF Done:  E(UM062X) =  -420.270677802     A.U. after   13 cycles
            NFock= 13  Conv=0.33D-08     -V/T= 2.0033
 <Sx>= 0.0000 <Sy>= 0.0000 <Sz>= 0.5000 <S**2>= 0.7753 S= 0.5125
 <L.S>=  0.00000000000    
 Annihilation of the first spin contaminant:
 S**2 before annihilation     0.7753,   after     0.7501
 Calling FoFJK, ICntrl=      2127 FMM=F ISym2X=0 I1Cent= 0 IOpClX= 1 NMat=1 NMatS=1 NMatT=0.
 ***** Axes restored to original set *****
 -------------------------------------------------------------------
 Center     Atomic                   Forces (Hartrees/Bohr)
 Number     Number              X              Y              Z
 -------------------------------------------------------------------
      1        6           0.000041640    0.000001167    0.000005204
      2        1           0.000018498   -0.000000083    0.000004950
      3        6          -0.000020527    0.000048001    0.000007648
      4        6          -0.000017746    0.000537801   -0.000030493
      5        8           0.000104785   -0.000552493    0.000013659
      6        8          -0.000036370   -0.000053861    0.000023714
      7        6          -0.000187088    0.000018554   -0.000066232
      8        6           0.000030191   -0.000012586    0.000012706
      9        1           0.000049063   -0.000028060    0.000010296
     10        1           0.000064870    0.000036005    0.000011816
     11        1          -0.000012894    0.000001897    0.000003719
     12        1           0.000005916   -0.000001305    0.000010527
     13        1          -0.000006359    0.000010366    0.000004865
     14        8          -0.000002401    0.000085236   -0.000014722
     15        1          -0.000031577   -0.000090641    0.000002344
 -------------------------------------------------------------------
 Cartesian Forces:  Max     0.000552493 RMS     0.000123262

 GradGradGradGradGradGradGradGradGradGradGradGradGradGradGradGradGradGrad
 Berny optimization.
 Using GEDIIS/GDIIS optimizer.
 FormGI is forming the generalized inverse of G from B-inverse, IUseBI=4.
 Internal  Forces:  Max     0.000560326 RMS     0.000081402
 Search for a local minimum.
 Step number   3 out of a maximum of   67
 All quantities printed in internal units (Hartrees-Bohrs-Radians)
 Mixed Optimization -- En-DIIS/RFO-DIIS
 Swapping is turned off.
 Update second derivatives using D2CorX and points    1    2    3
 DE= -2.35D-05 DEPred=-2.62D-05 R= 8.97D-01
 TightC=F SS=  1.41D+00  RLast= 2.82D-02 DXNew= 7.2097D-01 8.4693D-02
 Trust test= 8.97D-01 RLast= 2.82D-02 DXMaxT set to 4.29D-01
 ITU=  1  1  0
     Eigenvalues ---    0.00249   0.00327   0.00620   0.00861   0.01468
     Eigenvalues ---    0.01956   0.03308   0.04353   0.04459   0.04497
     Eigenvalues ---    0.06001   0.06604   0.07133   0.09493   0.12302
     Eigenvalues ---    0.12387   0.13167   0.15065   0.16626   0.16778
     Eigenvalues ---    0.19448   0.22394   0.23564   0.24216   0.26240
     Eigenvalues ---    0.29560   0.32207   0.34122   0.34262   0.34383
     Eigenvalues ---    0.34892   0.35531   0.38358   0.39283   0.40633
     Eigenvalues ---    0.45648   0.49802   0.63027   0.89150
[...]
 ! D16   D(6,7,8,13)            64.0418         -DE/DX =    0.0                 !
 ! D17   D(9,7,8,11)           -60.527          -DE/DX =    0.0                 !
 ! D18   D(9,7,8,12)            58.9034         -DE/DX =    0.0                 !
 ! D19   D(9,7,8,13)          -179.9285         -DE/DX =    0.0                 !
 ! D20   D(10,7,8,11)           62.6371         -DE/DX =    0.0                 !
 ! D21   D(10,7,8,12)         -177.9325         -DE/DX =    0.0                 !
 ! D22   D(10,7,8,13)          -56.7644         -DE/DX =    0.0                 !
 --------------------------------------------------------------------------------
 GradGradGradGradGradGradGradGradGradGradGradGradGradGradGradGradGradGrad


 ----------------------------------------------------------------------

 Electric dipole moment (input orientation):
 (Debye = 10**-18 statcoulomb cm , SI units = C m)
                  (au)            (Debye)         (10**-30 SI)
   Tot        0.122556D+01      0.311505D+01      0.103907D+02
   x         -0.116778D+01     -0.296820D+01     -0.990085D+01
   y         -0.354379D+00     -0.900742D+00     -0.300455D+01
   z         -0.112673D+00     -0.286387D+00     -0.955285D+00

 Dipole polarizability, Alpha (input orientation).
 (esu units = cm**3 , SI units = C**2 m**2 J**-1)
 Alpha(0;0):
               (au)            (10**-24 esu)      (10**-40 SI)
   iso        0.685579D+02      0.101592D+02      0.113037D+02
   aniso      0.347749D+02      0.515310D+01      0.573360D+01
   xx         0.860302D+02      0.127484D+02      0.141845D+02
   yx         0.893867D+01      0.132457D+01      0.147379D+01
   yy         0.689134D+02      0.102119D+02      0.113623D+02
   zx         0.313192D+01      0.464103D+00      0.516384D+00
   zy         0.133093D+01      0.197223D+00      0.219441D+00
   zz         0.507302D+02      0.751744D+01      0.836428D+01

 ----------------------------------------------------------------------

 Dipole orientation:
     6          0.04507726         -0.09813049         -5.19357794
     1         -0.56448074          1.71507225         -5.88070047
     6          0.23444667         -1.12009265         -2.93235799
     6         -0.51819540          0.41781466         -0.66263069
     8         -1.29596055          2.54393968         -0.71601769
     8         -0.20447016         -0.94280498          1.46093019
     6         -0.81649083          0.29721413          3.81171620
     6          1.32167052          2.00596402          4.65280657
     1         -1.13010809         -1.24662567          5.13475401
     1         -2.56891752          1.34862040          3.55033763
     1          0.86396483          2.83070326          6.48748544
     1          3.07383586          0.93513910          4.83784888
     1          1.59943573          3.53686496          3.30284686
     8          1.07935604         -3.50603542         -2.52585629
     1          1.04023675         -3.82647127         -0.73320009

 Electric dipole moment (dipole orientation):
 (Debye = 10**-18 statcoulomb cm , SI units = C m)
                  (au)            (Debye)         (10**-30 SI)
   Tot        0.122556D+01      0.311505D+01      0.103907D+02
   x          0.000000D+00      0.000000D+00      0.000000D+00
   y          0.000000D+00      0.000000D+00      0.000000D+00
   z          0.122556D+01      0.311505D+01      0.103907D+02

 Dipole polarizability, Alpha (dipole orientation).
 (esu units = cm**3 , SI units = C**2 m**2 J**-1)
 Alpha(0;0):
               (au)            (10**-24 esu)      (10**-40 SI)
   iso        0.685579D+02      0.101592D+02      0.113037D+02
   aniso      0.347749D+02      0.515310D+01      0.573360D+01
   xx         0.516347D+02      0.765148D+01      0.851342D+01
   yx        -0.405730D+01     -0.601230D+00     -0.668958D+00
   yy         0.641932D+02      0.951246D+01      0.105840D+02
   zx         0.100134D+01      0.148384D+00      0.165099D+00
   zy        -0.251455D+01     -0.372619D+00     -0.414594D+00
   zz         0.898458D+02      0.133138D+02      0.148136D+02

 ----------------------------------------------------------------------
 1\1\GINC-AJ\Freq\UM062X\6-311++G(d,p)\C5H7O3(2)\AAYUSH\08-Jun-2025\0\\
 #N Geom=AllCheck Guess=TCheck SCRF=Check GenChk UM062X/6-311++G(d,p) F
 req\\Title Card Required\\0,2\C,2.6345170279,0.7403141191,0.2603851055
 \H,2.6898048648,1.814484217,0.2639051735\C,1.6584463362,-0.1270975053,
 0.0894846207\C,0.2669937384,0.3853360811,-0.165119979\O,-0.0475233431,
 1.5398867662,-0.2293646674\O,-0.5852797789,-0.6436872058,-0.3184392281
 \C,-1.9697640994,-0.309356509,-0.5516634375\C,-2.668070694,0.039604627
 1,0.7470074028\H,-2.3890182065,-1.2031872849,-1.0103970901\H,-2.006917
 5297,0.5171646847,-1.2616915304\H,-3.7256279833,0.2286084281,0.5531580
 824\H,-2.5893083266,-0.7845236846,1.4576461756\H,-2.2331669245,0.93709
 49151,1.1869933026\O,1.8366347053,-1.471291129,0.1306499547\H,0.984171
 2133,-1.8932685198,-0.0253208853\\Version=ES64L-G16RevA.03\State=2-A\H
 F=-420.2706783\S2=0.775253\S2-1=0.\S2A=0.750138\RMSD=4.415e-09\RMSF=6.
 983e-07\ZeroPoint=0.1164178\Thermal=0.1251203\Dipole=-1.1677798,-0.354
 3792,-0.1126734\DipoleDeriv=-0.2085362,-0.2164365,0.0122834,0.0867366,
 -0.2604867,0.0115619,0.0046345,-0.0401886,-0.2294046,0.1583857,0.07663
 54,-0.0145581,0.0017658,0.1152043,-0.0003274,-0.0115676,0.0134323,0.21
 90563,-0.3444807,-0.028424,-0.0536352,0.204158,1.2415579,0.036485,-0.0
 672251,-0.0098862,0.0201476,2.0117607,0.3354067,0.2142926,0.3284035,1.
 4795731,-0.0378059,0.2677093,0.0485126,0.3563803,-0.8177112,0.1889153,
 -0.0603149,0.149187,-1.0519242,0.0726889,-0.0653759,0.0499866,-0.34863
 82,-1.7574682,-0.4257901,-0.0875006,-0.4129662,-0.8875546,-0.0503039,-
 0.1989447,-0.1002751,-0.3565667,1.0394016,0.0702354,-0.0061121,-0.1095
 927,0.2518326,0.0174788,0.0405931,0.0728005,0.3459002,-0.0853212,-0.02
 67392,0.0166731,0.0206443,0.0273922,-0.0370249,0.0486325,-0.0766141,-0
 .0643476,-0.0312939,-0.025393,-0.0059011,-0.0523529,-0.041688,-0.09200
 35,-0.0197981,-0.0602856,0.0240382,-0.0217796,-0.0354403,0.0416099,0.0
 579773,0.0190341,0.0820305,0.0014679,0.035894,-0.0183805,-0.1132697,0.
 0226477,-0.0168552,0.0339543,0.0942092,0.0017895,-0.0241879,0.0160183,
 0.0554051,0.0805225,0.0388901,-0.0111358,0.0105896,-0.0340273,0.090802
 2,0.0254923,0.0546873,-0.0196554,0.07596,-0.0614297,-0.0317804,-0.0416
 245,-0.0095041,-0.057972,-0.0068353,-0.0280364,0.0269069,-0.3734794,0.
 084547,0.0052051,-0.2554515,-1.3310444,-0.0425863,-0.0015127,0.0191094
 ,-0.3430542,0.3873097,0.0023753,-0.0022706,-0.0214286,0.387426,0.00518
 69,0.0069177,0.0048448,0.3322125\Polar=86.0302075,8.938673,68.9133602,
 3.1319199,1.3309297,50.7302243\Quadrupole=1.161681,-1.2051977,0.043516
 7,4.1292635,0.2458219,0.9639628\PG=C01 [X(C5H7O3)]\NImag=0\\0.39765893
 ,0.28724786,0.71898277,0.06308575,0.04787419,0.04974136,-0.02521821,-0
 .00226888,-0.00105494,0.02074796,-0.03611450,-0.38070730,-0.00431125,0
 .02660178,0.38363832,-0.00086794,0.00173171,-0.01962550,0.00083585,0.0
 0256813,0.01576251,-0.33927865,-0.25308793,-0.05324731,0.00501668,0.01
 194336,0.00105604,0.63891080,-0.21826066,-0.28623520,-0.03805435,-0.02
 614951,-0.00316411,-0.00463971,0.18991674,0.75827121,-0.05345455,-0.04
 433342,-0.04540660,0.00128222,0.00215007,-0.00115103,0.09287573,0.0305
 0213,0.13701170,-0.03413625,-0.00866304,-0.00890533,0.00128067,-0.0012
 0960,0.00058669,-0.15887006,0.05884699,-0.01452818,0.59750243,-0.01430
 405,0.01058750,-0.00257182,0.00084676,-0.00114502,0.00012712,0.0027009
 6,-0.08310063,0.00023828,-0.13742483,0.99534029,-0.00891751,-0.0014210
 3,0.01425288,0.00049374,-0.00025281,-0.00197763,-0.01391807,0.01064071
 ,-0.08338771,0.07434938,-0.03000921,0.20813510,-0.00169526,0.00368074,
 -0.00023229,-0.00072096,0.00141682,-0.00003634,-0.00824898,0.03428600,
 -0.00496167,-0.16505384,0.18288710,-0.01776691,0.15907213,-0.00509101,
 -0.00381106,-0.00085669,0.00094120,0.00007124,0.00016277,0.03347353,-0
 .02339044,0.00633436,0.18415467,-0.70837313,0.03727104,-0.18904416,0.8
 4425569,-0.00018361,0.00069552,-0.00063874,-0.00002669,0.00025727,-0.0
 0049920,-0.00513492,0.00640536,0.01688898,-0.01734799,0.03892240,-0.07
 956325,0.02414905,-0.03939519,0.03987512,-0.00746478,0.00523669,-0.001
 35665,0.00188889,-0.00005964,0.00039028,-0.04684379,-0.03461949,-0.010
 91814,-0.19220191,-0.06482717,-0.02112897,0.02563084,-0.03791876,-0.00
 212483,0.49600143,0.00296365,0.00353245,0.00049649,0.00054975,0.000287
 49,0.00010878,-0.00644594,-0.00598352,-0.00101141,-0.05749702,-0.19018
 819,-0.00870544,-0.03615967,-0.10673089,-0.00672093,0.05894663,0.38971
 082,-0.00114999,0.00098317,-0.00041856,0.00035464,-0.00000543,-0.00007
 739,-0.01039119,-0.00607362,0.01004674,-0.02300648,-0.01186095,-0.0659
 8216,-0.00085249,-0.00635136,0.02752386,0.07124429,0.00929786,0.093571
 85,0.00010380,-0.00053972,0.00010693,-0.00026722,-0.00011071,-0.000119
 54,0.00496603,-0.00152081,0.00084534,-0.05225684,-0.03227963,-0.011537
 93,0.00002386,0.01941267,0.00052745,-0.16935131,0.02442903,-0.02266649
 ,0.44626628,-0.00128614,0.00076120,-0.00025599,0.00028473,-0.00004285,
 0.00003889,-0.00343778,-0.00611562,-0.00053591,-0.03059055,0.02069235,
 -0.00653859,-0.00022345,-0.00562974,-0.00046763,0.04506083,-0.10482499
 ,0.01103407,0.06190388,0.64193396,-0.00011402,-0.00011154,-0.00074173,
 -0.00000883,-0.00003226,0.00012856,-0.00076674,-0.00037687,0.00573775,
 -0.01138489,-0.00912018,-0.00136915,-0.00129303,0.00379393,-0.00568569
 ,-0.02268709,0.00785421,-0.06966130,0.01818688,-0.00976055,0.55676378,
 -0.00023135,0.00014667,0.00012300,0.00007395,0.00001972,0.00001320,-0.
 00049800,-0.00026405,-0.00168972,0.00173433,0.00734053,0.00265850,0.00
 017324,-0.00256985,0.00110053,-0.04146714,0.01071604,0.03067413,-0.092
 10061,0.00676740,0.04073704,0.56484300,0.00001584,-0.00007207,-0.00005
 179,-0.00003570,-0.00000107,0.00002532,0.00015692,0.00023076,0.0003565
 6,-0.00141741,0.00061963,0.00082256,0.00104711,0.00048145,-0.00133689,
 0.00990749,-0.00048557,-0.00557010,0.00801096,-0.09159129,-0.02565979,
 0.01212816,0.58435622,-0.00016592,0.00008747,0.00001285,0.00002912,0.0
 0000764,0.00000232,0.00017578,-0.00034248,-0.00050632,0.00067421,0.004
 90440,0.00104686,0.00139705,-0.00190790,-0.00070813,-0.00483299,-0.000
 46949,0.01034855,0.05320581,-0.02776412,-0.19375753,0.04055414,-0.0175
 7816,0.52184593,-0.00054978,0.00033149,-0.00013498,0.00012598,-0.00000
 236,0.00002994,-0.00091576,-0.00193756,0.00028631,-0.00325199,0.006737
 89,-0.00245301,0.00129721,-0.00143893,0.00027160,-0.03278066,-0.029998
 01,-0.01545245,-0.08044487,-0.07868488,-0.03932392,0.00831772,0.014289
 00,0.00678646,0.10650585,0.00003303,-0.00001761,0.00006194,-0.00000719
 ,0.00001364,-0.00000828,0.00033430,0.00037830,-0.00032855,0.00228606,-
 0.00258682,0.00067048,-0.00180344,0.00147688,-0.00056592,0.00813380,0.
 01041530,0.00580083,-0.09117352,-0.24619554,-0.09454013,-0.00144763,-0
 .00409871,-0.00159748,0.09063390,0.25578361,-0.00005593,0.00005995,-0.
 00003500,0.00001168,-0.00000309,-0.00000147,-0.00019851,-0.00038680,0.
 00019612,0.00020658,0.00334907,-0.00020883,0.00138263,-0.00056054,0.00
 066298,-0.00668555,-0.00482979,-0.00158142,-0.04230267,-0.09150429,-0.
 09888369,-0.00993236,-0.02507581,-0.01220221,0.04629370,0.10254099,0.1
 0353904,-0.00004067,-0.00005915,-0.00008394,0.00001915,-0.00000558,0.0
 0000083,-0.00048349,0.00059542,0.00072722,0.00274556,0.00815938,-0.000
 80945,-0.00003576,-0.00349447,0.00006261,-0.02160943,0.02892607,-0.027
 31833,-0.04853352,-0.00505860,0.00257104,0.00208737,-0.01276085,0.0106
 6678,0.00207100,-0.00831912,0.00873219,0.06406119,0.00006279,0.0000103
 6,-0.00000125,-0.00001479,0.00000098,-0.00002071,0.00005740,-0.0001795
 2,0.00044413,-0.00255303,-0.00123853,-0.00080555,-0.00187339,0.0000005
 1,-0.00110102,0.00881737,-0.00434047,0.00359641,0.00492189,-0.21000510
 ,0.13564635,-0.00106400,0.00858832,-0.00709758,0.00017301,-0.01707576,
 0.01635161,-0.00867695,0.22303424,0.00003231,-0.00006426,0.00000029,-0
 .00001102,-0.00001000,0.00000215,0.00001242,0.00006145,-0.00002705,0.0
 0026281,0.00450549,0.00068783,0.00175843,-0.00174335,0.00023591,-0.006
 50378,0.00272527,-0.00234503,-0.00392730,0.13125686,-0.16488415,0.0007
 4508,0.02161699,-0.01840145,0.00154315,-0.01087305,0.01099112,0.003770
 80,-0.14545020,0.17591817,-0.00007585,0.00007013,0.00001410,0.00003051
 ,0.00001608,0.00000015,-0.00007997,-0.00009695,-0.00024992,0.00149593,
 0.00161603,0.00009099,-0.00014132,-0.00060123,0.00033289,-0.00208646,0
 .00002147,0.00344177,-0.01366417,0.00141254,-0.00608709,-0.30217296,0.
 04577223,-0.04692398,0.00039291,0.00032247,0.00014771,0.00024180,-0.00
 040677,0.00025424,0.32750892,0.00002763,0.00001268,0.00000880,-0.00000
 474,0.00000442,-0.00000162,0.00003659,-0.00000185,-0.00003454,-0.00013
 565,-0.00191179,-0.00047730,-0.00056768,0.00066083,0.00052169,0.002557
 30,0.00116923,-0.00174083,0.00621832,-0.00310318,0.00299868,0.04515267
 ,-0.05364760,0.00775975,-0.00030135,-0.00010285,0.00025502,-0.00005582
 ,0.00016924,0.00001120,-0.05064238,0.05410700,0.00012206,-0.00005261,0
 .00000539,-0.00002445,0.00000124,-0.00000907,0.00014070,0.00018571,0.0
 0033921,-0.00065243,-0.00297134,-0.00074725,-0.00034109,0.00116342,0.0
 0006236,0.00784969,-0.00126123,-0.00495946,0.02533378,-0.00354525,0.00
 904167,-0.04901803,0.00842154,-0.05730884,-0.00084109,-0.00037368,0.00
 096883,-0.00065851,0.00096402,0.00072168,0.05078069,-0.00828138,0.0585
 4624,0.00000406,0.00001995,-0.00003116,-0.00000369,-0.00000469,0.00001
 006,0.00002127,-0.00011888,0.00005460,-0.00053502,-0.00158839,-0.00005
 268,-0.00043418,0.00070706,0.00009450,0.00254827,-0.00028526,-0.000918
 76,-0.00092753,-0.01248991,0.01193254,-0.04834827,0.01550060,-0.015100
 92,0.00028494,0.00022916,-0.00091152,-0.00095125,0.00092194,0.00293131
 ,-0.00045050,0.02421002,-0.02067399,0.04821220,-0.00002357,0.00002891,
 -0.00001673,0.00000670,-0.00000086,0.00001329,-0.00007263,-0.00004771,
 -0.00006518,0.00021530,-0.00071871,0.00030231,-0.00055174,0.00044569,0
 .00029280,-0.00150279,0.00039068,0.00007336,-0.00039272,0.00776735,-0.
 00730626,0.01537693,-0.20770430,0.13423432,-0.00053089,0.00081822,0.00
 050134,0.00153031,0.00036271,-0.00191207,-0.00016883,-0.00395186,0.001
 76694,-0.01771727,0.22040107,0.00002211,-0.00005324,0.00003286,-0.0000
 0853,-0.00000323,-0.00000802,0.00004437,0.00018390,-0.00008017,0.00011
 838,0.00031942,-0.00001756,-0.00006870,-0.00020581,0.00022072,-0.00136
 730,-0.00072227,0.00284169,-0.00316306,0.02417133,-0.02184861,-0.01307
 525,0.13186266,-0.15970960,-0.00049806,-0.00012793,0.00092388,0.003010
 51,-0.00267676,-0.00388462,-0.00018335,0.00273090,-0.00353305,0.012754
 25,-0.14520014,0.17538024,0.00003916,-0.00010139,-0.00001507,-0.000027
 44,-0.00002154,0.00000322,0.00011012,0.00017190,0.00008867,-0.00106505
 ,0.00142232,0.00052269,-0.00050135,-0.00116329,0.00027122,0.00155071,-
 0.00083116,-0.00156877,0.00620103,0.01541538,0.00788184,-0.09250243,-0
 .09260736,-0.04639134,-0.00099304,0.00085134,0.00342416,0.00021212,-0.
 00037844,-0.00094094,-0.01101458,-0.02645720,-0.01201393,0.00063151,0.
 00385398,0.00232840,0.09729753,-0.00000591,0.00003481,0.00002973,0.000
 01150,0.00001355,-0.00000699,0.00005109,-0.00007966,-0.00014904,0.0004
 7086,-0.00043200,-0.00056267,-0.00100846,-0.00022520,0.00103933,0.0002
 2195,0.00025852,0.00065596,-0.00214994,-0.00584364,-0.00362257,-0.0916
 0066,-0.23661654,-0.09006698,0.00050358,0.00124045,-0.00071474,0.00041
 659,0.00051349,0.00020831,0.00278816,0.00649016,0.00377587,-0.00957531
 ,-0.01788138,-0.01023432,0.09993053,0.25250174,-0.00001672,0.00006680,
 -0.00000906,0.00000723,0.00001202,0.00002348,0.00002326,0.00003460,-0.
 00022522,0.00072374,-0.00314018,0.00004360,-0.00105615,0.00176382,0.00
 030739,0.00037091,0.00243459,0.00231272,-0.01451536,-0.02624611,-0.014
 16763,-0.04311673,-0.08774378,-0.09074615,0.00364123,-0.00068272,-0.00
 434334,-0.00058571,0.00014937,0.00099982,-0.00164484,-0.00376791,-0.00
 305258,0.00988218,0.01729706,0.00970898,0.04639992,0.09964735,0.099165
 83,0.01044540,-0.03647564,0.00164816,-0.00378899,-0.00266278,-0.001619
 39,-0.09920496,-0.00054398,-0.01255639,-0.00644969,0.03022456,-0.00243
 828,-0.00658054,0.00472716,-0.00156925,-0.00823635,0.00536864,-0.00148
 403,0.00329053,0.00189687,0.00036345,-0.00037014,0.00004433,-0.0001837
 9,0.00008434,-0.00015330,0.00004921,-0.00060831,0.00027466,-0.00001638
 ,-0.00010850,0.00003197,0.00013899,0.00006864,-0.00002488,0.00000849,0
 .00006458,-0.00002078,-0.00006843,0.53565832,-0.01742913,-0.05737078,-
 0.00275543,0.00004514,0.00152523,0.00001605,0.06507981,-0.32092184,0.0
 1382128,-0.00622050,-0.03209570,-0.00088229,0.00943154,-0.00168565,0.0
 0172368,0.00294404,0.00728173,0.00057854,0.00035986,0.00088595,-0.0001
 6490,-0.00017873,-0.00017313,0.00010869,0.00050159,0.00002152,0.000131
 16,-0.00057472,-0.00005190,-0.00024708,0.00004071,0.00006948,0.0000270
 5,0.00014908,0.00009693,-0.00013801,-0.00017794,0.00008306,0.00021383,
 0.14786360,0.52839133,0.00157196,-0.00627982,0.00298670,-0.00163003,-0
 .00044699,0.00515900,-0.01306149,0.00165160,-0.03363959,-0.00205582,0.
 00577294,0.00520751,-0.00166765,0.00091104,0.00185947,-0.00168587,0.00
 101098,0.00013747,0.00057217,0.00015054,0.00007841,0.00002747,0.000105
 68,-0.00010112,0.00000759,0.00004337,-0.00008272,-0.00002069,-0.000046
 33,0.00003410,-0.00000623,-0.00000164,0.00009453,-0.00008733,-0.000072
 22,0.00004221,-0.00000459,0.00006242,0.00000786,0.09517531,0.02465277,
 0.03418897,0.00043945,0.00446222,0.00008372,0.00084272,0.00019365,-0.0
 0028305,0.00539876,-0.00030514,0.00219847,0.00906175,0.00848856,0.0009
 0748,-0.00278509,-0.00209458,-0.00042255,-0.00557830,-0.00070422,-0.00
 090586,-0.00330546,-0.00097032,-0.00000718,0.00046130,-0.00005133,0.00
 010958,-0.00014385,0.00008014,-0.00016132,0.00082423,-0.00026169,0.000
 08888,0.00012423,-0.00006967,-0.00014240,-0.00012044,0.00000210,0.0000
 7774,-0.00000286,-0.00003319,-0.00004453,-0.42426434,-0.20183435,-0.07
 713481,0.41904791,0.00216417,-0.00573665,0.00040415,-0.00080675,-0.000
 49365,-0.00011476,-0.04070641,-0.02966016,-0.00738877,-0.00026224,-0.0
 0544926,-0.00005222,-0.00151734,0.00245381,-0.00027046,-0.00289825,-0.
 00049259,-0.00041792,0.00291045,0.00131113,0.00040187,-0.00052319,0.00
 011391,-0.00027806,-0.00027649,-0.00007061,-0.00011406,-0.00062249,0.0
 0021144,-0.00008555,-0.00014366,0.00003609,0.00017970,0.00004192,-0.00
 000673,0.00009353,0.00009288,-0.00005736,-0.00003875,-0.15055044,-0.12
 605623,-0.02751435,0.19309783,0.16389685,0.00009199,0.00081713,-0.0001
 5715,-0.00024998,0.00006867,0.00227128,0.00238992,0.00020837,-0.005796
 83,0.00095932,0.00153455,0.00387975,-0.00041085,-0.00037954,-0.0005417
 9,-0.00056401,-0.00020762,-0.00175757,-0.00054601,-0.00003325,-0.00075
 071,0.00019898,-0.00019498,0.00018484,-0.00015648,-0.00001986,0.000056
 70,-0.00006535,0.00004751,-0.00004877,0.00003288,0.00001917,-0.0001696
 8,0.00011692,0.00009119,-0.00006897,0.00001450,-0.00006166,-0.00002573
 ,-0.07744767,-0.03708533,-0.01597279,0.07563584,0.03519565,0.01889742\
 \-0.00000020,0.00000027,0.00000052,-0.00000031,0.00000037,0.00000114,0
 .00000017,0.00000096,0.00000017,0.00000059,-0.00000191,0.00000046,-0.0
 0000095,0.00000250,0.00000078,0.00000040,-0.00000013,-0.00000037,-0.00
 000037,0.00000036,-0.00000023,0.00000002,-0.00000071,-0.00000001,0.000
 00035,0.00000022,-0.00000074,0.00000008,0.00000036,0.00000018,-0.00000
 002,-0.00000081,-0.00000002,0.00000007,-0.00000105,-0.00000057,-0.0000
 0019,-0.00000091,0.00000046,0.00000010,0.00000051,-0.00000081,0.000000
 25,-0.00000003,-0.00000095\\\@


 A COMPUTER IS LIKE A HORSE, IT WILL SENSE WEAKNESS.
     -- GREG WETTSTEIN
 Job cpu time:       0 days  0 hours 47 minutes 20.1 seconds.
 Elapsed time:       0 days  0 hours  1 minutes 58.4 seconds.
 File lengths (MBytes):  RWF=    153 Int=      0 D2E=      0 Chk=      7 Scr=      1
 Normal termination of Gaussian 16 at Sun Jun  8 23:45:26 2025.
