 Entering Gaussian System, Link 0=g16
 Initial command:
 /opt/g16/l1.exe "/home/aayush/scratches/g16/Gau-8063.inp" -scrdir="/home/aayush/scratches/g16/"
 Entering Link 1 = /opt/g16/l1.exe PID=      8066.
  
 Copyright (c) 1988,1990,1992,1993,1995,1998,2003,2009,2016,
            Gaussian, Inc.  All Rights Reserved.
  
 This is part of the Gaussian(R) 16 program.  It is based on
 the Gaussian(R) 09 system (copyright 2009, Gaussian, Inc.),
 the Gaussian(R) 03 system (copyright 2003, Gaussian, Inc.),
 the Gaussian(R) 98 system (copyright 1998, Gaussian, Inc.),
 the Gaussian(R) 94 system (copyright 1995, Gaussian, Inc.),
 the Gaussian 92(TM) system (copyright 1992, Gaussian, Inc.),
 the Gaussian 90(TM) system (copyright 1990, Gaussian, Inc.),
 the Gaussian 88(TM) system (copyright 1988, Gaussian, Inc.),
 the Gaussian 86(TM) system (copyright 1986, Carnegie Mellon
 University), and the Gaussian 82(TM) system (copyright 1983,
 Carnegie Mellon University). Gaussian is a federally registered
 trademark of Gaussian, Inc.
  
 This software contains proprietary and confidential information,
 including trade secrets, belonging to Gaussian, Inc.
  
 This software is provided under written license and may be
 used, copied, transmitted, or stored only in accord with that
 written license.
  
 The following legend is applicable only to US Government
 contracts under FAR:
  
                    RESTRICTED RIGHTS LEGEND
  
 Use, reproduction and disclosure by the US Government is
 subject to restrictions as set forth in subparagraphs (a)
 and (c) of the Commercial Computer Software - Restricted
 Rights clause in FAR 52.227-19.
  
 Gaussian, Inc.
 340 Quinnipiac St., Bldg. 40, Wallingford CT 06492
  
  
 ---------------------------------------------------------------
 Warning -- This program may not be used in any manner that
 competes with the business of Gaussian, Inc. or will provide
 assistance to any competitor of Gaussian, Inc.  The licensee
 of this program is prohibited from giving any competitor of
 Gaussian, Inc. access to this program.  By using this program,
 the user acknowledges that Gaussian, Inc. is engaged in the
 business of creating and licensing software in the field of
 computational chemistry and represents and warrants to the
 licensee that it is not a competitor of Gaussian, Inc. and that
 it will not use this program in any manner prohibited above.
 ---------------------------------------------------------------
  

 Cite this work as:
 Gaussian 16, Revision A.03,
 M. J. Frisch, G. W. Trucks, H. B. Schlegel, G. E. Scuseria, 
 M. A. Robb, J. R. Cheeseman, G. Scalmani, V. Barone, 
 G. A. Petersson, H. Nakatsuji, X. Li, M. Caricato, A. V. Marenich, 
 J. Bloino, B. G. Janesko, R. Gomperts, B. Mennucci, H. P. Hratchian, 
 J. V. Ortiz, A. F. Izmaylov, J. L. Sonnenberg, D. Williams-Young, 
 F. Ding, F. Lipparini, F. Egidi, J. Goings, B. Peng, A. Petrone, 
 T. Henderson, D. Ranasinghe, V. G. Zakrzewski, J. Gao, N. Rega, 
 G. Zheng, W. Liang, M. Hada, M. Ehara, K. Toyota, R. Fukuda, 
 J. Hasegawa, M. Ishida, T. Nakajima, Y. Honda, O. Kitao, H. Nakai, 
 T. Vreven, K. Throssell, J. A. Montgomery, Jr., J. E. Peralta, 
 F. Ogliaro, M. J. Bearpark, J. J. Heyd, E. N. Brothers, K. N. Kudin, 
 V. N. Staroverov, T. A. Keith, R. Kobayashi, J. Normand, 
 K. Raghavachari, A. P. Rendell, J. C. Burant, S. S. Iyengar, 
 J. Tomasi, M. Cossi, J. M. Millam, M. Klene, C. Adamo, R. Cammi, 
 J. W. Ochterski, R. L. Martin, K. Morokuma, O. Farkas, 
 J. B. Foresman, and D. J. Fox, Gaussian, Inc., Wallingford CT, 2016.
 
 ******************************************
 Gaussian 16:  ES64L-G16RevA.03 25-Dec-2016
                 7-May-2025 
 ******************************************
 %chk=ethyl_propiolate.chk
 %nprocshared=24
 Will use up to   24 processors via shared memory.
 %mem=12GB
 --------------------------
 # ccsd(t)/6-311++g(d,p) sp
 --------------------------
 1/38=1,172=1/1;
 2/12=2,17=6,18=5,40=1/2;
 3/5=4,6=6,7=1111,11=9,25=1,30=1/1,2,3;
 4//1;
 5/5=2,38=5/2;
 8/6=4,9=120000,10=2/1,4;
 9/5=7,14=2/13;
 6/7=2,8=2,9=2,10=2/1;
 99/5=1,9=1/99;
 -------------------
 Title Card Required
 -------------------
 Symbolic Z-matrix:
 Charge =  0 Multiplicity = 2
 C                     2.4687    1.29471  -0.67241 
 H                     3.09747   2.0928   -0.99302 
 C                     1.76777   0.3915   -0.31147 
 C                     0.9865   -0.75496   0.14994 
 O                     1.49094  -1.78403   0.47474 
 O                    -0.35004  -0.59062   0.19424 
 C                    -0.95947   0.63386  -0.18576 
 C                    -1.10579   1.5887    0.96769 
 H                    -0.5015    1.04876  -1.08496 
 H                    -2.09865   0.25123  -0.53545 
 H                    -1.62323   1.10177   1.79509 
 H                    -0.1198    1.91829   1.3108 
 H                    -1.67727   2.46507   0.65953 
 O                    -3.15148  -0.46837  -0.67825 
 H                    -2.7663   -1.30935  -0.38567 
 
                          Input orientation:                          
 ---------------------------------------------------------------------
 Center     Atomic      Atomic             Coordinates (Angstroms)
 Number     Number       Type             X           Y           Z
 ---------------------------------------------------------------------
      1          6           0        2.468698    1.294712   -0.672411
      2          1           0        3.097467    2.092795   -0.993022
      3          6           0        1.767769    0.391503   -0.311471
      4          6           0        0.986496   -0.754959    0.149942
      5          8           0        1.490940   -1.784028    0.474743
      6          8           0       -0.350043   -0.590622    0.194236
      7          6           0       -0.959471    0.633862   -0.185759
      8          6           0       -1.105790    1.588702    0.967691
      9          1           0       -0.501498    1.048759   -1.084964
     10          1           0       -2.098647    0.251228   -0.535451
     11          1           0       -1.623229    1.101770    1.795087
     12          1           0       -0.119801    1.918285    1.310804
     13          1           0       -1.677267    2.465074    0.659529
     14          8           0       -3.151479   -0.468374   -0.678250
     15          1           0       -2.766295   -1.309354   -0.385666
 ---------------------------------------------------------------------
                    Distance matrix (angstroms):
                    1          2          3          4          5
     1  C    0.000000
     2  H    1.065401   0.000000
     3  C    1.198902   2.264289   0.000000
     4  C    2.659763   3.724549   1.462075   0.000000
     5  O    3.427917   4.445787   2.329743   1.191194   0.000000
     6  O    3.500123   4.527210   2.388606   1.347333   2.211814
     7  C    3.525038   4.386218   2.740872   2.414189   3.505277
     8  C    3.943771   4.665391   3.365543   3.246401   4.285010
     9  H    3.008780   3.748468   2.485930   2.644337   3.798312
    10  H    4.687031   5.531757   3.875438   3.316667   4.248281
    11  H    4.782221   5.571414   4.054742   3.600640   4.446255
    12  H    3.319987   3.960919   2.919890   3.117327   4.123179
    13  H    4.509195   5.066320   4.136522   4.209979   5.303447
    14  O    5.890237   6.760769   5.007286   4.229760   4.961088
    15  H    5.853933   6.806409   4.843156   3.831145   4.369173
                    6          7          8          9         10
     6  O    0.000000
     7  C    1.419563   0.000000
     8  C    2.432866   1.504518   0.000000
     9  H    2.084913   1.091077   2.206830   0.000000
    10  H    2.073348   1.251565   2.243666   1.867861   0.000000
    11  H    2.654791   2.140856   1.090610   3.091243   2.526035
    12  H    2.755785   2.143476   1.094772   2.577105   3.178611
    13  H    3.363822   2.140813   1.090678   2.536067   2.550814
    14  O    2.936702   2.502473   3.335495   3.080505   1.283228
    15  H    2.586723   2.660952   3.603829   3.343504   1.703997
                   11         12         13         14         15
    11  H    0.000000
    12  H    1.778067   0.000000
    13  H    1.775108   1.774496   0.000000
    14  O    3.304285   4.340916   3.545148   0.000000
    15  H    3.446129   4.505507   4.065061   0.970165   0.000000
 Stoichiometry    C5H7O3(2)
 Framework group  C1[X(C5H7O3)]
 Deg. of freedom    39
 Full point group                 C1      NOp   1
 Largest Abelian subgroup         C1      NOp   1
 Largest concise Abelian subgroup C1      NOp   1
                         Standard orientation:                         
 ---------------------------------------------------------------------
 Center     Atomic      Atomic             Coordinates (Angstroms)
 Number     Number       Type             X           Y           Z
 ---------------------------------------------------------------------
      1          6           0        2.514339    1.235041   -0.678090
      2          1           0        3.142640    2.033615   -0.998396
      3          6           0        1.813941    0.331283   -0.317495
      4          6           0        1.033340   -0.815811    0.143485
      5          8           0        1.538393   -1.844685    0.467961
      6          8           0       -0.303301   -0.652301    0.187766
      7          6           0       -0.913453    0.571942   -0.191842
      8          6           0       -1.060411    1.526298    0.961927
      9          1           0       -0.455685    0.987424   -1.090881
     10          1           0       -2.052378    0.188735   -0.541724
     11          1           0       -1.577597    1.038769    1.789129
     12          1           0       -0.074641    1.856363    1.305204
     13          1           0       -1.632405    2.402428    0.654035
     14          8           0       -3.104765   -0.531457   -0.684823
     15          1           0       -2.719086   -1.372303   -0.392507
 ---------------------------------------------------------------------
 Rotational constants (GHZ):           2.8033824           1.2324771           0.9824429
 Standard basis: 6-311++G(d,p) (5D, 7F)
 There are   233 symmetry adapted cartesian basis functions of A   symmetry.
 There are   225 symmetry adapted basis functions of A   symmetry.
   225 basis functions,   351 primitive gaussians,   233 cartesian basis functions
    31 alpha electrons       30 beta electrons
       nuclear repulsion energy       350.6980772303 Hartrees.
 NAtoms=   15 NActive=   15 NUniq=   15 SFac= 1.00D+00 NAtFMM=   60 NAOKFM=F Big=F
 Integral buffers will be    131072 words long.
 Raffenetti 2 integral format.
 Two-electron integral symmetry is turned on.
 One-electron integrals computed using PRISM.
 NBasis=   225 RedAO= T EigKep=  1.51D-06  NBF=   225
 NBsUse=   225 1.00D-06 EigRej= -1.00D+00 NBFU=   225
 ExpMin= 3.60D-02 ExpMax= 8.59D+03 ExpMxC= 1.30D+03 IAcc=3 IRadAn=         5 AccDes= 0.00D+00
 Harris functional with IExCor=  205 and IRadAn=       5 diagonalized for initial guess.
 HarFok:  IExCor=  205 AccDes= 0.00D+00 IRadAn=         5 IDoV= 1 UseB2=F ITyADJ=14
 ICtDFT=  3500011 ScaDFX=  1.000000  1.000000  1.000000  1.000000
 FoFCou: FMM=F IPFlag=           0 FMFlag=      100000 FMFlg1=           0
         NFxFlg=           0 DoJE=T BraDBF=F KetDBF=T FulRan=T
         wScrn=  0.000000 ICntrl=       500 IOpCl=  0 I1Cent=   200000004 NGrid=           0
         NMat0=    1 NMatS0=      1 NMatT0=    0 NMatD0=    1 NMtDS0=    0 NMtDT0=    0
 Petite list used in FoFCou.
 Initial guess <Sx>= 0.0000 <Sy>= 0.0000 <Sz>= 0.5000 <S**2>= 0.7500 S= 0.5000
 Requested convergence on RMS density matrix=1.00D-08 within 128 cycles.
 Requested convergence on MAX density matrix=1.00D-06.
 Requested convergence on             energy=1.00D-06.
 No special actions if energy rises.
 Initial convergence to 1.0D-05 achieved.  Increase integral accuracy.
 SCF Done:  E(UHF) =  -417.951764209     A.U. after   33 cycles
            NFock= 33  Conv=0.62D-08     -V/T= 2.0009
 <Sx>= 0.0000 <Sy>= 0.0000 <Sz>= 0.5000 <S**2>= 0.7916 S= 0.5206
 <L.S>=  0.00000000000    
 Annihilation of the first spin contaminant:
 S**2 before annihilation     0.7916,   after     0.7506
 ExpMin= 3.60D-02 ExpMax= 8.59D+03 ExpMxC= 1.30D+03 IAcc=3 IRadAn=         5 AccDes= 0.00D+00
 HarFok:  IExCor=  205 AccDes= 0.00D+00 IRadAn=         5 IDoV=-2 UseB2=F ITyADJ=14
 ICtDFT= 12500011 ScaDFX=  1.000000  1.000000  1.000000  1.000000
 Range of M.O.s used for correlation:     9   225
 NBasis=   225 NAE=    31 NBE=    30 NFC=     8 NFV=     0
 NROrb=    217 NOA=    23 NOB=    22 NVA=   194 NVB=   195

 **** Warning!!: The largest alpha MO coefficient is  0.22783770D+03


 **** Warning!!: The largest beta MO coefficient is  0.23419715D+03

 Semi-Direct transformation.
 ModeAB=           4 MOrb=            23 LenV=    1609173268
 LASXX=    109339976 LTotXX=   109339976 LenRXX=   221407890
 LTotAB=   112067914 MaxLAS=   129251927 LenRXY=           0
 NonZer=   330747866 LenScr=   498067456 LnRSAI=   129251927
 LnScr1=   194654208 LExtra=           0 Total=   1043381481
 MaxDsk=          -1 SrtSym=           T ITran=            4
 JobTyp=1 Pass  1:  I=   1 to  23.
 (rs|ai) integrals will be sorted in core.
 ModeAB=           4 MOrb=            22 LenV=    1609173268
 LASXX=    104936601 LTotXX=   104936601 LenRXX=   190867446
 LTotAB=    85930845 MaxLAS=   123632278 LenRXY=           0
 NonZer=   295804047 LenScr=   445446144 LnRSAI=   123632278
 LnScr1=   186198528 LExtra=           0 Total=    946144396
 MaxDsk=          -1 SrtSym=           T ITran=            4
 JobTyp=2 Pass  1:  I=   1 to  22.
 (rs|ai) integrals will be sorted in core.
 SymMOI:  orbitals are not symmetric.
 Spin components of T(2) and E(2):
     alpha-alpha T2 =       0.5379626416D-01 E2=     -0.1728756477D+00
     alpha-beta  T2 =       0.2957960192D+00 E2=     -0.9520508330D+00
     beta-beta   T2 =       0.5325382429D-01 E2=     -0.1625319729D+00
 ANorm=    0.1184418046D+01
 E2 =    -0.1287458454D+01 EUMP2 =    -0.41923922266226D+03
 (S**2,0)=  0.79160D+00           (S**2,1)=  0.76532D+00
 E(PUHF)=      -0.41796112452D+03        E(PMP2)=      -0.41924564968D+03
 Keep R2 and R3 ints in memory in canonical form, NReq=652884060.
 CIDS: In Core Option IDoMem=           1.
 Iterations=  50 Convergence= 0.100D-06
 Produce multiple copies of IABC intergrals
 Iteration Nr.   1
 **********************
 DD1Dir will call FoFMem   1 times, MxPair=      1496
 NAB=   506 NAA=   253 NBB=   231.
 E(PMP3)=      -0.41926372668D+03
 MP4(R+Q)=  0.26206227D-01
 E3=       -0.20756214D-01        EUMP3=      -0.41925997888D+03
 E4(DQ)=   -0.58581106D-02        UMP4(DQ)=   -0.41926583699D+03
 E4(SDQ)=  -0.26499864D-01        UMP4(SDQ)=  -0.41928647874D+03
 DE(Corr)=  -1.2813391     E(Corr)=     -419.23310336    
 NORM(A)=   0.11891001D+01
 Iteration Nr.   2
 **********************
 DD1Dir will call FoFMem   1 times, MxPair=      1496
 NAB=   506 NAA=   253 NBB=   231.
 DE(Corr)=  -1.3257732     E(CORR)=     -419.27753741     Delta=-4.44D-02
 NORM(A)=   0.12081131D+01
 Iteration Nr.   3
 **********************
 DD1Dir will call FoFMem   1 times, MxPair=      1496
 NAB=   506 NAA=   253 NBB=   231.
 DE(Corr)=  -1.3273261     E(CORR)=     -419.27909033     Delta=-1.55D-03
 NORM(A)=   0.12153368D+01
 Iteration Nr.   4
 **********************
 DD1Dir will call FoFMem   1 times, MxPair=      1496
 NAB=   506 NAA=   253 NBB=   231.
 DE(Corr)=  -1.3327994     E(CORR)=     -419.28456362     Delta=-5.47D-03
 NORM(A)=   0.12184839D+01
 Iteration Nr.   5
 **********************
 DD1Dir will call FoFMem   1 times, MxPair=      1496
 NAB=   506 NAA=   253 NBB=   231.
 DE(Corr)=  -1.3338243     E(CORR)=     -419.28558854     Delta=-1.02D-03
 NORM(A)=   0.12202965D+01
 Iteration Nr.   6
 **********************
 DD1Dir will call FoFMem   1 times, MxPair=      1496
 NAB=   506 NAA=   253 NBB=   231.
 DE(Corr)=  -1.3341271     E(CORR)=     -419.28589129     Delta=-3.03D-04
 NORM(A)=   0.12208218D+01
 Iteration Nr.   7
 **********************
 DD1Dir will call FoFMem   1 times, MxPair=      1496
 NAB=   506 NAA=   253 NBB=   231.
 DE(Corr)=  -1.3342043     E(CORR)=     -419.28596847     Delta=-7.72D-05
 NORM(A)=   0.12209924D+01
 Iteration Nr.   8
 **********************
 DD1Dir will call FoFMem   1 times, MxPair=      1496
 NAB=   506 NAA=   253 NBB=   231.
 DE(Corr)=  -1.3341947     E(CORR)=     -419.28595887     Delta= 9.60D-06
 NORM(A)=   0.12210731D+01
 Iteration Nr.   9
 **********************
 DD1Dir will call FoFMem   1 times, MxPair=      1496
 NAB=   506 NAA=   253 NBB=   231.
 DE(Corr)=  -1.3342070     E(CORR)=     -419.28597123     Delta=-1.24D-05
 NORM(A)=   0.12210946D+01
 Iteration Nr.  10
 **********************
 DD1Dir will call FoFMem   1 times, MxPair=      1496
 NAB=   506 NAA=   253 NBB=   231.
 DE(Corr)=  -1.3342125     E(CORR)=     -419.28597675     Delta=-5.52D-06
 NORM(A)=   0.12211080D+01
 Iteration Nr.  11
 **********************
 DD1Dir will call FoFMem   1 times, MxPair=      1496
 NAB=   506 NAA=   253 NBB=   231.
 DE(Corr)=  -1.3342202     E(CORR)=     -419.28598439     Delta=-7.65D-06
 NORM(A)=   0.12211219D+01
 Iteration Nr.  12
 **********************
 DD1Dir will call FoFMem   1 times, MxPair=      1496
 NAB=   506 NAA=   253 NBB=   231.
 DE(Corr)=  -1.3342248     E(CORR)=     -419.28598897     Delta=-4.58D-06
 NORM(A)=   0.12211310D+01
 Iteration Nr.  13
 **********************
 DD1Dir will call FoFMem   1 times, MxPair=      1496
 NAB=   506 NAA=   253 NBB=   231.
 DE(Corr)=  -1.3342272     E(CORR)=     -419.28599136     Delta=-2.39D-06
 NORM(A)=   0.12211376D+01
 Iteration Nr.  14
 **********************
 DD1Dir will call FoFMem   1 times, MxPair=      1496
 NAB=   506 NAA=   253 NBB=   231.
 DE(Corr)=  -1.3342288     E(CORR)=     -419.28599300     Delta=-1.64D-06
 NORM(A)=   0.12211425D+01
 Iteration Nr.  15
 **********************
 DD1Dir will call FoFMem   1 times, MxPair=      1496
 NAB=   506 NAA=   253 NBB=   231.
 DE(Corr)=  -1.3342295     E(CORR)=     -419.28599367     Delta=-6.67D-07
 NORM(A)=   0.12211466D+01
 Iteration Nr.  16
 **********************
 DD1Dir will call FoFMem   1 times, MxPair=      1496
 NAB=   506 NAA=   253 NBB=   231.
 DE(Corr)=  -1.3342302     E(CORR)=     -419.28599444     Delta=-7.72D-07
 NORM(A)=   0.12211496D+01
 Iteration Nr.  17
 **********************
 DD1Dir will call FoFMem   1 times, MxPair=      1496
 NAB=   506 NAA=   253 NBB=   231.
 DE(Corr)=  -1.3342307     E(CORR)=     -419.28599486     Delta=-4.25D-07
 NORM(A)=   0.12211505D+01
 Iteration Nr.  18
 **********************
 DD1Dir will call FoFMem   1 times, MxPair=      1496
 NAB=   506 NAA=   253 NBB=   231.
 DE(Corr)=  -1.3342308     E(CORR)=     -419.28599499     Delta=-1.30D-07
 NORM(A)=   0.12211504D+01
 Iteration Nr.  19
 **********************
 DD1Dir will call FoFMem   1 times, MxPair=      1496
 NAB=   506 NAA=   253 NBB=   231.
 DE(Corr)=  -1.3342307     E(CORR)=     -419.28599494     Delta= 5.61D-08
 NORM(A)=   0.12211497D+01
 Wavefunction amplitudes converged. E(Corr)=     -419.28599494    
 Largest amplitude= 5.27D-02
 Time for triples=    36024.90 seconds.
 T4(CCSD)= -0.59202858D-01
 T5(CCSD)=  0.38888081D-02
 CCSD(T)= -0.41934130899D+03

 S**2, projected HF & approx projected MPn energies after annihilation of
 unwanted spin states (see manual for definitions):

 spins       (S**2,0) (S**2,1)    PUHF        PMP2        PMP3        PMP4
 annihilated
 s+1         0.74967  0.75012 -417.961125 -419.245650 -419.263727
 s+1,s+2     0.75000  0.75000 -417.961053 -419.245587 -419.263673
 s+1 to s+3  0.75000  0.75000 -417.961053 -419.245587 -419.263673
 s+1 to s+4  0.75000  0.75000 -417.961053 -419.245588 -419.263674
 s+1 to s+5  0.75000  0.75000 -417.961053
 s+1 to s+6  0.75000  0.75000 -417.961053

 Discarding MO integrals.

 **********************************************************************

            Population analysis using the SCF density.

 **********************************************************************

 Orbital symmetries:
 Alpha Orbitals:
       Occupied  (A) (A) (A) (A) (A) (A) (A) (A) (A) (A) (A) (A)
                 (A) (A) (A) (A) (A) (A) (A) (A) (A) (A) (A) (A)
                 (A) (A) (A) (A) (A) (A) (A)
       Virtual   (A) (A) (A) (A) (A) (A) (A) (A) (A) (A) (A) (A)
                 (A) (A) (A) (A) (A) (A) (A) (A) (A) (A) (A) (A)
                 (A) (A) (A) (A) (A) (A) (A) (A) (A) (A) (A) (A)
                 (A) (A) (A) (A) (A) (A) (A) (A) (A) (A) (A) (A)
                 (A) (A) (A) (A) (A) (A) (A) (A) (A) (A) (A) (A)
                 (A) (A) (A) (A) (A) (A) (A) (A) (A) (A) (A) (A)
                 (A) (A) (A) (A) (A) (A) (A) (A) (A) (A) (A) (A)
                 (A) (A) (A) (A) (A) (A) (A) (A) (A) (A) (A) (A)
                 (A) (A) (A) (A) (A) (A) (A) (A) (A) (A) (A) (A)
                 (A) (A) (A) (A) (A) (A) (A) (A) (A) (A) (A) (A)
                 (A) (A) (A) (A) (A) (A) (A) (A) (A) (A) (A) (A)
                 (A) (A) (A) (A) (A) (A) (A) (A) (A) (A) (A) (A)
                 (A) (A) (A) (A) (A) (A) (A) (A) (A) (A) (A) (A)
                 (A) (A) (A) (A) (A) (A) (A) (A) (A) (A) (A) (A)
                 (A) (A) (A) (A) (A) (A) (A) (A) (A) (A) (A) (A)
                 (A) (A) (A) (A) (A) (A) (A) (A) (A) (A) (A) (A)
                 (A) (A)
 Beta  Orbitals:
       Occupied  (A) (A) (A) (A) (A) (A) (A) (A) (A) (A) (A) (A)
                 (A) (A) (A) (A) (A) (A) (A) (A) (A) (A) (A) (A)
                 (A) (A) (A) (A) (A) (A)
       Virtual   (A) (A) (A) (A) (A) (A) (A) (A) (A) (A) (A) (A)
                 (A) (A) (A) (A) (A) (A) (A) (A) (A) (A) (A) (A)
                 (A) (A) (A) (A) (A) (A) (A) (A) (A) (A) (A) (A)
                 (A) (A) (A) (A) (A) (A) (A) (A) (A) (A) (A) (A)
                 (A) (A) (A) (A) (A) (A) (A) (A) (A) (A) (A) (A)
                 (A) (A) (A) (A) (A) (A) (A) (A) (A) (A) (A) (A)
                 (A) (A) (A) (A) (A) (A) (A) (A) (A) (A) (A) (A)
                 (A) (A) (A) (A) (A) (A) (A) (A) (A) (A) (A) (A)
                 (A) (A) (A) (A) (A) (A) (A) (A) (A) (A) (A) (A)
                 (A) (A) (A) (A) (A) (A) (A) (A) (A) (A) (A) (A)
                 (A) (A) (A) (A) (A) (A) (A) (A) (A) (A) (A) (A)
                 (A) (A) (A) (A) (A) (A) (A) (A) (A) (A) (A) (A)
                 (A) (A) (A) (A) (A) (A) (A) (A) (A) (A) (A) (A)
                 (A) (A) (A) (A) (A) (A) (A) (A) (A) (A) (A) (A)
                 (A) (A) (A) (A) (A) (A) (A) (A) (A) (A) (A) (A)
                 (A) (A) (A) (A) (A) (A) (A) (A) (A) (A) (A) (A)
                 (A) (A) (A)
 The electronic state is 2-A.
 Alpha  occ. eigenvalues --  -20.62590 -20.62265 -20.56938 -11.42851 -11.32755
 Alpha  occ. eigenvalues --  -11.28475 -11.27627 -11.24084  -1.49108  -1.40037
 Alpha  occ. eigenvalues --   -1.38665  -1.08586  -1.06469  -0.93042  -0.88659
 Alpha  occ. eigenvalues --   -0.77414  -0.74762  -0.73770  -0.68826  -0.68165
 Alpha  occ. eigenvalues --   -0.65996  -0.61076  -0.59681  -0.57076  -0.55223
 Alpha  occ. eigenvalues --   -0.54783  -0.50123  -0.48804  -0.44776  -0.44074
 Alpha  occ. eigenvalues --   -0.43106
 Alpha virt. eigenvalues --    0.02997   0.04703   0.05667   0.06248   0.07069
 Alpha virt. eigenvalues --    0.08041   0.08952   0.09383   0.10379   0.11868
 Alpha virt. eigenvalues --    0.12715   0.13291   0.14817   0.15471   0.15638
 Alpha virt. eigenvalues --    0.15864   0.17149   0.17675   0.18840   0.19316
 Alpha virt. eigenvalues --    0.19703   0.19940   0.20580   0.21483   0.22985
 Alpha virt. eigenvalues --    0.23247   0.24104   0.25721   0.28592   0.29160
 Alpha virt. eigenvalues --    0.30379   0.30584   0.31209   0.32457   0.33254
 Alpha virt. eigenvalues --    0.34353   0.35099   0.36241   0.37170   0.38965
 Alpha virt. eigenvalues --    0.39628   0.40400   0.40454   0.41453   0.42251
 Alpha virt. eigenvalues --    0.43817   0.45016   0.45496   0.46683   0.48754
 Alpha virt. eigenvalues --    0.50410   0.54278   0.57179   0.58634   0.62201
 Alpha virt. eigenvalues --    0.62728   0.64435   0.66082   0.70769   0.71890
 Alpha virt. eigenvalues --    0.75076   0.77020   0.77944   0.79005   0.81510
 Alpha virt. eigenvalues --    0.84010   0.84844   0.85543   0.85710   0.87089
 Alpha virt. eigenvalues --    0.87967   0.89616   0.92429   0.96598   0.98587
 Alpha virt. eigenvalues --    1.01757   1.04543   1.07347   1.14941   1.17730
 Alpha virt. eigenvalues --    1.22450   1.25690   1.27062   1.27836   1.29742
 Alpha virt. eigenvalues --    1.30314   1.34880   1.36310   1.37004   1.39142
 Alpha virt. eigenvalues --    1.40507   1.43023   1.47240   1.48776   1.50154
 Alpha virt. eigenvalues --    1.52028   1.53177   1.56326   1.60353   1.62287
 Alpha virt. eigenvalues --    1.63460   1.67931   1.68975   1.70932   1.78425
 Alpha virt. eigenvalues --    1.80899   1.82467   1.83749   1.84670   1.85986
 Alpha virt. eigenvalues --    1.87406   1.89766   1.91347   1.93163   1.99011
 Alpha virt. eigenvalues --    2.00838   2.02196   2.06045   2.06864   2.11090
 Alpha virt. eigenvalues --    2.15236   2.18923   2.22607   2.27195   2.29698
 Alpha virt. eigenvalues --    2.35880   2.36949   2.41719   2.42778   2.51910
 Alpha virt. eigenvalues --    2.59574   2.69799   2.73194   2.79656   2.81377
 Alpha virt. eigenvalues --    2.83664   2.86865   2.88504   2.91132   2.91698
 Alpha virt. eigenvalues --    2.93822   2.95155   2.96825   3.02344   3.05540
 Alpha virt. eigenvalues --    3.12430   3.14057   3.15634   3.21442   3.24947
 Alpha virt. eigenvalues --    3.28459   3.29406   3.33588   3.35438   3.38960
 Alpha virt. eigenvalues --    3.40431   3.44968   3.47995   3.49580   3.55996
 Alpha virt. eigenvalues --    3.58473   3.67879   3.68438   3.72840   3.77696
 Alpha virt. eigenvalues --    3.83165   3.90180   3.99445   4.11835   4.15424
 Alpha virt. eigenvalues --    4.20828   4.21655   4.32075   4.44262   4.50974
 Alpha virt. eigenvalues --    4.52854   4.68950   5.49932   5.59301   5.61164
 Alpha virt. eigenvalues --    5.72586   5.76285   5.88686   6.05716   6.17211
 Alpha virt. eigenvalues --    6.46103  24.67910  24.93677  25.00328  25.12046
 Alpha virt. eigenvalues --   26.26800  51.52978  51.58127  51.72437
  Beta  occ. eigenvalues --  -20.62632 -20.58836 -20.56945 -11.42793 -11.31292
  Beta  occ. eigenvalues --  -11.28437 -11.27660 -11.24167  -1.48976  -1.39730
  Beta  occ. eigenvalues --   -1.26816  -1.08540  -1.04561  -0.92394  -0.87571
  Beta  occ. eigenvalues --   -0.76441  -0.74127  -0.69645  -0.67717  -0.65749
  Beta  occ. eigenvalues --   -0.61620  -0.59402  -0.56781  -0.55295  -0.50995
  Beta  occ. eigenvalues --   -0.50846  -0.49011  -0.46862  -0.44155  -0.43934
  Beta virt. eigenvalues --    0.03000   0.04177   0.05106   0.05796   0.06798
  Beta virt. eigenvalues --    0.07126   0.08060   0.09202   0.09442   0.10862
  Beta virt. eigenvalues --    0.11894   0.12754   0.13378   0.14925   0.15517
  Beta virt. eigenvalues --    0.15701   0.15884   0.17252   0.17742   0.18908
  Beta virt. eigenvalues --    0.19374   0.19782   0.20248   0.20665   0.21644
  Beta virt. eigenvalues --    0.23029   0.23348   0.24218   0.25953   0.28820
  Beta virt. eigenvalues --    0.29268   0.30538   0.30720   0.31340   0.33340
  Beta virt. eigenvalues --    0.33896   0.34538   0.35409   0.37083   0.37553
  Beta virt. eigenvalues --    0.39336   0.39858   0.40433   0.40708   0.41709
  Beta virt. eigenvalues --    0.42431   0.44263   0.45241   0.45915   0.47120
  Beta virt. eigenvalues --    0.50566   0.53045   0.54423   0.57638   0.58744
  Beta virt. eigenvalues --    0.62275   0.62819   0.64576   0.66314   0.71056
  Beta virt. eigenvalues --    0.72561   0.75720   0.77286   0.77928   0.79397
  Beta virt. eigenvalues --    0.82748   0.84792   0.85065   0.85653   0.86313
  Beta virt. eigenvalues --    0.87523   0.88142   0.89812   0.92595   0.97049
  Beta virt. eigenvalues --    0.99055   1.02048   1.04814   1.07566   1.15005
  Beta virt. eigenvalues --    1.18838   1.23202   1.26175   1.28135   1.29032
  Beta virt. eigenvalues --    1.30240   1.33558   1.36256   1.37038   1.38131
  Beta virt. eigenvalues --    1.40223   1.41276   1.43144   1.47527   1.49046
  Beta virt. eigenvalues --    1.50421   1.52482   1.53397   1.56615   1.60431
  Beta virt. eigenvalues --    1.62767   1.63640   1.69162   1.69856   1.71108
  Beta virt. eigenvalues --    1.80185   1.81783   1.82634   1.84770   1.85258
  Beta virt. eigenvalues --    1.86301   1.87673   1.89888   1.92256   1.93534
  Beta virt. eigenvalues --    1.99962   2.01076   2.02198   2.06414   2.07058
  Beta virt. eigenvalues --    2.11370   2.15741   2.19025   2.22975   2.27538
  Beta virt. eigenvalues --    2.29934   2.36708   2.37452   2.42155   2.43496
  Beta virt. eigenvalues --    2.54117   2.59892   2.70072   2.74923   2.79768
  Beta virt. eigenvalues --    2.81342   2.83565   2.86999   2.88575   2.91395
  Beta virt. eigenvalues --    2.92011   2.94232   2.95360   2.97111   3.02617
  Beta virt. eigenvalues --    3.05577   3.12475   3.13670   3.15447   3.22383
  Beta virt. eigenvalues --    3.25342   3.29317   3.34036   3.35358   3.35519
  Beta virt. eigenvalues --    3.39060   3.40559   3.45177   3.49596   3.55605
  Beta virt. eigenvalues --    3.57502   3.59325   3.68020   3.68697   3.73179
  Beta virt. eigenvalues --    3.77719   3.87262   3.90871   3.99523   4.12335
  Beta virt. eigenvalues --    4.16660   4.21047   4.21748   4.34927   4.45561
  Beta virt. eigenvalues --    4.51877   4.53358   4.69315   5.51934   5.59446
  Beta virt. eigenvalues --    5.61151   5.72587   5.83695   5.89860   6.08483
  Beta virt. eigenvalues --    6.17339   6.46142  24.67916  24.94736  25.00386
  Beta virt. eigenvalues --   25.11993  26.26805  51.54932  51.58122  51.72431
          Condensed to atoms (all electrons):
               1          2          3          4          5          6
     1  C   27.681785   0.890584 -12.071394  -8.486897  -0.137887  -0.014600
     2  H    0.890584   0.407167  -0.417926  -0.092505  -0.004864  -0.003766
     3  C  -12.071394  -0.417926  14.698817   1.928694   0.031094  -0.195907
     4  C   -8.486897  -0.092505   1.928694  12.258556   0.454802   0.102378
     5  O   -0.137887  -0.004864   0.031094   0.454802   8.028647  -0.049879
     6  O   -0.014600  -0.003766  -0.195907   0.102378  -0.049879   8.272291
     7  C   -0.267171  -0.007753   0.125187  -0.084940  -0.005337   0.222314
     8  C    0.140382   0.005140  -0.084789   0.034278   0.005259  -0.127409
     9  H    0.019306  -0.002673   0.031937  -0.067378   0.001074  -0.015510
    10  H   -0.039907  -0.000770   0.024211   0.006521   0.001943  -0.071781
    11  H    0.015010   0.000573  -0.005065  -0.007823   0.000490  -0.005235
    12  H   -0.059590  -0.003609   0.061916   0.009677  -0.000844  -0.012149
    13  H    0.007832   0.000199  -0.004857  -0.006583   0.000346   0.016399
    14  O    0.006100   0.000195  -0.003739   0.002028   0.000394   0.021626
    15  H   -0.003854  -0.000042  -0.009321   0.009449  -0.000722   0.001184
               7          8          9         10         11         12
     1  C   -0.267171   0.140382   0.019306  -0.039907   0.015010  -0.059590
     2  H   -0.007753   0.005140  -0.002673  -0.000770   0.000573  -0.003609
     3  C    0.125187  -0.084789   0.031937   0.024211  -0.005065   0.061916
     4  C   -0.084940   0.034278  -0.067378   0.006521  -0.007823   0.009677
     5  O   -0.005337   0.005259   0.001074   0.001943   0.000490  -0.000844
     6  O    0.222314  -0.127409  -0.015510  -0.071781  -0.005235  -0.012149
     7  C    6.185271  -0.429983   0.444133   0.321764  -0.066585  -0.002419
     8  C   -0.429983   5.814589  -0.094343  -0.109015   0.448141   0.353705
     9  H    0.444133  -0.094343   0.554308  -0.042758  -0.001053   0.000667
    10  H    0.321764  -0.109015  -0.042758   0.708965  -0.017683   0.019683
    11  H   -0.066585   0.448141  -0.001053  -0.017683   0.530532  -0.051148
    12  H   -0.002419   0.353705   0.000667   0.019683  -0.051148   0.594787
    13  H   -0.065085   0.435599  -0.003932  -0.009125  -0.029394  -0.034892
    14  O   -0.005387   0.002954  -0.006042  -0.029601   0.004420  -0.005383
    15  H    0.023712   0.003048   0.000507  -0.040300  -0.001282   0.000158
              13         14         15
     1  C    0.007832   0.006100  -0.003854
     2  H    0.000199   0.000195  -0.000042
     3  C   -0.004857  -0.003739  -0.009321
     4  C   -0.006583   0.002028   0.009449
     5  O    0.000346   0.000394  -0.000722
     6  O    0.016399   0.021626   0.001184
     7  C   -0.065085  -0.005387   0.023712
     8  C    0.435599   0.002954   0.003048
     9  H   -0.003932  -0.006042   0.000507
    10  H   -0.009125  -0.029601  -0.040300
    11  H   -0.029394   0.004420  -0.001282
    12  H   -0.034892  -0.005383   0.000158
    13  H    0.549858   0.000224   0.001537
    14  O    0.000224   8.029287   0.300229
    15  H    0.001537   0.300229   0.446913
          Atomic-Atomic Spin Densities.
               1          2          3          4          5          6
     1  C    0.385047   0.017863  -0.257335  -0.095019  -0.001520   0.000627
     2  H    0.017863   0.000094  -0.014811  -0.004145   0.000053  -0.000285
     3  C   -0.257335  -0.014811   0.187518   0.061303  -0.000997   0.010492
     4  C   -0.095019  -0.004145   0.061303   0.018307   0.004551   0.002699
     5  O   -0.001520   0.000053  -0.000997   0.004551  -0.003158   0.001989
     6  O    0.000627  -0.000285   0.010492   0.002699   0.001989   0.025105
     7  C   -0.063007  -0.000512  -0.003116   0.047679  -0.001205  -0.112139
     8  C    0.042175   0.000525  -0.012059  -0.027993   0.000607   0.015930
     9  H   -0.006901   0.000002  -0.001407   0.011420  -0.000076   0.005246
    10  H   -0.004936   0.000110  -0.005637   0.001506  -0.001423  -0.011587
    11  H    0.004224   0.000033   0.000203  -0.002728   0.000218   0.002083
    12  H   -0.019495  -0.000414   0.009606   0.007958  -0.000310  -0.000748
    13  H    0.001253   0.000009  -0.000402  -0.000357  -0.000031   0.000266
    14  O    0.006651   0.000050   0.004118  -0.004662   0.000212   0.031280
    15  H   -0.001281  -0.000019  -0.000743   0.000734  -0.000038  -0.003527
               7          8          9         10         11         12
     1  C   -0.063007   0.042175  -0.006901  -0.004936   0.004224  -0.019495
     2  H   -0.000512   0.000525   0.000002   0.000110   0.000033  -0.000414
     3  C   -0.003116  -0.012059  -0.001407  -0.005637   0.000203   0.009606
     4  C    0.047679  -0.027993   0.011420   0.001506  -0.002728   0.007958
     5  O   -0.001205   0.000607  -0.000076  -0.001423   0.000218  -0.000310
     6  O   -0.112139   0.015930   0.005246  -0.011587   0.002083  -0.000748
     7  C    0.773233  -0.066332  -0.039642   0.100645  -0.011948   0.003565
     8  C   -0.066332  -0.031844   0.010481  -0.006467   0.005020   0.001494
     9  H   -0.039642   0.010481  -0.023333   0.017200   0.000449  -0.001160
    10  H    0.100645  -0.006467   0.017200  -0.274652   0.003520  -0.004594
    11  H   -0.011948   0.005020   0.000449   0.003520   0.007353  -0.003669
    12  H    0.003565   0.001494  -0.001160  -0.004594  -0.003669   0.033850
    13  H   -0.001574   0.003047   0.000112  -0.001744   0.000101  -0.001001
    14  O   -0.115293   0.021610   0.002892  -0.001146   0.002068  -0.001299
    15  H    0.007300  -0.000567  -0.000116   0.002815  -0.000197   0.000243
              13         14         15
     1  C    0.001253   0.006651  -0.001281
     2  H    0.000009   0.000050  -0.000019
     3  C   -0.000402   0.004118  -0.000743
     4  C   -0.000357  -0.004662   0.000734
     5  O   -0.000031   0.000212  -0.000038
     6  O    0.000266   0.031280  -0.003527
     7  C   -0.001574  -0.115293   0.007300
     8  C    0.003047   0.021610  -0.000567
     9  H    0.000112   0.002892  -0.000116
    10  H   -0.001744  -0.001146   0.002815
    11  H    0.000101   0.002068  -0.000197
    12  H   -0.001001  -0.001299   0.000243
    13  H    0.001972   0.000650   0.000004
    14  O    0.000650   0.810402   0.001711
    15  H    0.000004   0.001711  -0.031859
 Mulliken charges and spin densities:
               1          2
     1  C   -1.679700   0.008346
     2  H    0.230052  -0.001449
     3  C    1.891142  -0.023268
     4  C   -0.060257   0.021254
     5  O   -0.324514  -0.001129
     6  O   -0.139956  -0.032570
     7  C   -0.387723   0.517654
     8  C   -0.397555  -0.044373
     9  H    0.181759  -0.024835
    10  H    0.277854  -0.186391
    11  H    0.186103   0.006730
    12  H    0.129441   0.024025
    13  H    0.141873   0.002302
    14  O   -0.317303   0.759244
    15  H    0.268784  -0.025539
 Sum of Mulliken charges =  -0.00000   1.00000
 Mulliken charges and spin densities with hydrogens summed into heavy atoms:
               1          2
     1  C   -1.449648   0.006897
     3  C    1.891142  -0.023268
     4  C   -0.060257   0.021254
     5  O   -0.324514  -0.001129
     6  O   -0.139956  -0.032570
     7  C    0.071890   0.306428
     8  C    0.059862  -0.011316
    14  O   -0.048519   0.733704
 Electronic spatial extent (au):  <R**2>=           1189.3507
 Charge=             -0.0000 electrons
 Dipole moment (field-independent basis, Debye):
    X=              0.7265    Y=              3.9938    Z=             -0.7488  Tot=              4.1278
 Quadrupole moment (field-independent basis, Debye-Ang):
   XX=            -52.0218   YY=            -46.9424   ZZ=            -48.0870
   XY=             10.4996   XZ=             -5.7624   YZ=              0.3990
 Traceless Quadrupole moment (field-independent basis, Debye-Ang):
   XX=             -3.0047   YY=              2.0747   ZZ=              0.9300
   XY=             10.4996   XZ=             -5.7624   YZ=              0.3990
 Octapole moment (field-independent basis, Debye-Ang**2):
  XXX=             24.0530  YYY=              6.7367  ZZZ=              3.0375  XYY=            -11.9682
  XXY=             15.7452  XXZ=             -0.6697  XZZ=             -0.3918  YZZ=             -0.4378
  YYZ=             -9.1332  XYZ=             -3.9110
 Hexadecapole moment (field-independent basis, Debye-Ang**3):
 XXXX=          -1022.3138 YYYY=           -407.1792 ZZZZ=           -156.7464 XXXY=             94.3366
 XXXZ=            -48.9269 YYYX=             56.1276 YYYZ=             -1.7879 ZZZX=              2.8269
 ZZZY=             -4.2519 XXYY=           -174.3095 XXZZ=           -192.1886 YYZZ=            -91.8171
 XXYZ=            -18.9458 YYXZ=            -13.8918 ZZXY=              4.4013
 N-N= 3.506980772303D+02 E-N=-1.683654034518D+03  KE= 4.175917393940D+02
 1\1\GINC-AJ\SP\UCCSD(T)-FC\6-311++G(d,p)\C5H7O3(2)\AAYUSH\07-May-2025\
 0\\# ccsd(t)/6-311++g(d,p) sp\\Title Card Required\\0,2\C,0,2.468698,1
 .294712,-0.672411\H,0,3.097467,2.092795,-0.993022\C,0,1.767769,0.39150
 3,-0.311471\C,0,0.986496,-0.754959,0.149942\O,0,1.49094,-1.784028,0.47
 4743\O,0,-0.350043,-0.590622,0.194236\C,0,-0.959471,0.633862,-0.185759
 \C,0,-1.10579,1.588702,0.967691\H,0,-0.501498,1.048759,-1.084964\H,0,-
 2.098647,0.251228,-0.535451\H,0,-1.623229,1.10177,1.795087\H,0,-0.1198
 01,1.918285,1.310804\H,0,-1.677267,2.465074,0.659529\O,0,-3.151479,-0.
 468374,-0.67825\H,0,-2.766295,-1.309354,-0.385666\\Version=ES64L-G16Re
 vA.03\State=2-A\HF=-417.9517642\MP2=-419.2392227\MP3=-419.2599789\MP4D
 =-419.2920432\MP4DQ=-419.265837\PUHF=-417.9611245\PMP2-0=-419.2456497\
 PMP3-0=-419.2637267\MP4SDQ=-419.2864787\CCSD=-419.2859949\CCSD(T)=-419
 .341309\S2=0.791599\S2-1=0.765319\S2A=0.750555\RMSD=6.233e-09\PG=C01 [
 X(C5H7O3)]\\@


 GARLIC THEN HAVE POWER TO SAVE FROM DEATH
 BEAR WITH IT THOUGH IT MAKETH UNSAVORY BREATH,
 AND SCORN NOT GARLIC LIKE SOME THAT THINK
 IT ONLY MAKETH MEN WINK AND DRINK AND STINK.
   --  SIR JOHN HARRINGTON,
       "THE ENGLISHMAN'S DOCTOR", 1609
 Job cpu time:       0 days 16 hours 59 minutes 37.4 seconds.
 Elapsed time:       0 days  0 hours 42 minutes 42.8 seconds.
 File lengths (MBytes):  RWF=  44733 Int=      0 D2E=      0 Chk=      6 Scr=      1
 Normal termination of Gaussian 16 at Wed May  7 23:38:59 2025.
