 Entering Gaussian System, Link 0=g16
 Initial command:
 /opt/g16/l1.exe "/home/aayush/Research/Gau-3612.inp" -scrdir="/home/aayush/Research/"
 Entering Link 1 = /opt/g16/l1.exe PID=      3615.
  
 Copyright (c) 1988,1990,1992,1993,1995,1998,2003,2009,2016,
            Gaussian, Inc.  All Rights Reserved.
  
 This is part of the Gaussian(R) 16 program.  It is based on
 the Gaussian(R) 09 system (copyright 2009, Gaussian, Inc.),
 the Gaussian(R) 03 system (copyright 2003, Gaussian, Inc.),
 the Gaussian(R) 98 system (copyright 1998, Gaussian, Inc.),
 the Gaussian(R) 94 system (copyright 1995, Gaussian, Inc.),
 the Gaussian 92(TM) system (copyright 1992, Gaussian, Inc.),
 the Gaussian 90(TM) system (copyright 1990, Gaussian, Inc.),
 the Gaussian 88(TM) system (copyright 1988, Gaussian, Inc.),
 the Gaussian 86(TM) system (copyright 1986, Carnegie Mellon
 University), and the Gaussian 82(TM) system (copyright 1983,
 Carnegie Mellon University). Gaussian is a federally registered
 trademark of Gaussian, Inc.
  
 This software contains proprietary and confidential information,
 including trade secrets, belonging to Gaussian, Inc.
  
 This software is provided under written license and may be
 used, copied, transmitted, or stored only in accord with that
 written license.
  
 The following legend is applicable only to US Government
 contracts under FAR:
  
                    RESTRICTED RIGHTS LEGEND
  
 Use, reproduction and disclosure by the US Government is
 subject to restrictions as set forth in subparagraphs (a)
 and (c) of the Commercial Computer Software - Restricted
 Rights clause in FAR 52.227-19.
  
 Gaussian, Inc.
 340 Quinnipiac St., Bldg. 40, Wallingford CT 06492
  
  
 ---------------------------------------------------------------
 Warning -- This program may not be used in any manner that
 competes with the business of Gaussian, Inc. or will provide
 assistance to any competitor of Gaussian, Inc.  The licensee
 of this program is prohibited from giving any competitor of
 Gaussian, Inc. access to this program.  By using this program,
 the user acknowledges that Gaussian, Inc. is engaged in the
 business of creating and licensing software in the field of
 computational chemistry and represents and warrants to the
 licensee that it is not a competitor of Gaussian, Inc. and that
 it will not use this program in any manner prohibited above.
 ---------------------------------------------------------------
  

 Cite this work as:
 Gaussian 16, Revision A.03,
 M. J. Frisch, G. W. Trucks, H. B. Schlegel, G. E. Scuseria, 
 M. A. Robb, J. R. Cheeseman, G. Scalmani, V. Barone, 
 G. A. Petersson, H. Nakatsuji, X. Li, M. Caricato, A. V. Marenich, 
 J. Bloino, B. G. Janesko, R. Gomperts, B. Mennucci, H. P. Hratchian, 
 J. V. Ortiz, A. F. Izmaylov, J. L. Sonnenberg, D. Williams-Young, 
 F. Ding, F. Lipparini, F. Egidi, J. Goings, B. Peng, A. Petrone, 
 T. Henderson, D. Ranasinghe, V. G. Zakrzewski, J. Gao, N. Rega, 
 G. Zheng, W. Liang, M. Hada, M. Ehara, K. Toyota, R. Fukuda, 
 J. Hasegawa, M. Ishida, T. Nakajima, Y. Honda, O. Kitao, H. Nakai, 
 T. Vreven, K. Throssell, J. A. Montgomery, Jr., J. E. Peralta, 
 F. Ogliaro, M. J. Bearpark, J. J. Heyd, E. N. Brothers, K. N. Kudin, 
 V. N. Staroverov, T. A. Keith, R. Kobayashi, J. Normand, 
 K. Raghavachari, A. P. Rendell, J. C. Burant, S. S. Iyengar, 
 J. Tomasi, M. Cossi, J. M. Millam, M. Klene, C. Adamo, R. Cammi, 
 J. W. Ochterski, R. L. Martin, K. Morokuma, O. Farkas, 
 J. B. Foresman, and D. J. Fox, Gaussian, Inc., Wallingford CT, 2016.
 
 ******************************************
 Gaussian 16:  ES64L-G16RevA.03 25-Dec-2016
                 2-Apr-2025 
 ******************************************
 %chk=ethyl_propiolate.chk
 %nprocshared=24
 Will use up to   24 processors via shared memory.
 %mem=12GB
 --------------------------
 # freq 6-311++g(d,p) m062x
 --------------------------
 1/10=4,30=1,38=1/1,3;
 2/12=2,17=6,18=5,40=1/2;
 3/5=4,6=6,7=1111,11=2,25=1,30=1,71=2,74=-55,140=1/1,2,3;
 4//1;
 5/5=2,38=5,98=1/2;
 8/6=4,10=90,11=11/1;
 11/6=1,8=1,9=11,15=111,16=1/1,2,10;
 10/6=1/2;
 6/7=2,8=2,9=2,10=2,28=1/1;
 7/8=1,10=1,25=1/1,2,3,16;
 1/10=4,30=1/3;
 99//99;
 -------------------
 Title Card Required
 -------------------
 Symbolic Z-matrix:
 Charge =  0 Multiplicity = 2
 C                     1.26133   2.24955  -0.05931 
 H                     1.186     3.31204  -0.07417 
 C                     1.35303   1.05417  -0.04231 
 C                     1.54556  -0.39726   0.00784 
 O                     2.59578  -0.88344   0.29928 
 O                     0.48782  -1.16003  -0.30109 
 C                    -0.79779  -0.57098  -0.56252 
 C                    -1.51487  -0.26235   0.73042 
 H                    -0.68585   0.32047  -1.18152 
 H                    -1.33173  -1.3275   -1.13414 
 H                    -1.67501  -1.14856   1.3436 
 H                    -1.06091   0.54607   1.3039 
 H                    -2.57845   0.15369   0.41023 
 O                    -3.81068   0.38914  -0.11913 
 H                    -4.30955  -0.28527   0.36909 
 

 GradGradGradGradGradGradGradGradGradGradGradGradGradGradGradGradGradGrad
 Berny optimization.
 Initialization pass.
 Trust Radius=3.00D-01 FncErr=1.00D-07 GrdErr=1.00D-07 EigMax=2.50D+02 EigMin=1.00D-04
 Number of steps in this run=      2 maximum allowed number of steps=      2.
 GradGradGradGradGradGradGradGradGradGradGradGradGradGradGradGradGradGrad

                          Input orientation:                          
 ---------------------------------------------------------------------
 Center     Atomic      Atomic             Coordinates (Angstroms)
 Number     Number       Type             X           Y           Z
 ---------------------------------------------------------------------
      1          6           0        1.261327    2.249549   -0.059310
      2          1           0        1.186000    3.312040   -0.074168
      3          6           0        1.353026    1.054168   -0.042315
      4          6           0        1.545557   -0.397261    0.007839
      5          8           0        2.595777   -0.883435    0.299281
      6          8           0        0.487825   -1.160026   -0.301089
      7          6           0       -0.797791   -0.570983   -0.562524
      8          6           0       -1.514872   -0.262350    0.730418
      9          1           0       -0.685845    0.320471   -1.181521
     10          1           0       -1.331732   -1.327495   -1.134137
     11          1           0       -1.675009   -1.148562    1.343604
     12          1           0       -1.060908    0.546074    1.303898
     13          1           0       -2.578454    0.153687    0.410228
     14          8           0       -3.810683    0.389141   -0.119132
     15          1           0       -4.309553   -0.285266    0.369085
 ---------------------------------------------------------------------
                    Distance matrix (angstroms):
                    1          2          3          4          5
     1  C    0.000000
     2  H    1.065261   0.000000
     3  C    1.199013   2.264266   0.000000
     4  C    2.662874   3.727589   1.465002   0.000000
     5  O    3.424169   4.441728   2.327106   1.193426   0.000000
     6  O    3.504563   4.531922   2.391274   1.340166   2.209165
     7  C    3.528256   4.387686   2.745496   2.418010   3.515201
     8  C    3.826302   4.551739   3.248873   3.147467   4.179601
     9  H    2.961786   3.698583   2.448080   2.628473   3.796210
    10  H    4.546917   5.384031   3.751309   3.232373   4.204427
    11  H    4.705039   5.485656   3.992717   3.566618   4.404602
    12  H    3.186368   3.820763   2.810254   3.059953   4.052665
    13  H    4.399662   4.937707   4.058595   4.180063   5.278314
    14  O    5.402775   5.788972   5.206924   5.415151   6.545017
    15  H    6.135431   6.583174   5.833364   5.867312   6.931541
                    6          7          8          9         10
     6  O    0.000000
     7  C    1.438099   0.000000
     8  C    2.425000   1.510350   0.000000
     9  H    2.084354   1.091045   2.163903   0.000000
    10  H    2.008184   1.088184   2.155143   1.770652   0.000000
    11  H    2.717167   2.176335   1.089501   3.084276   2.507799
    12  H    2.808084   2.191022   1.090189   2.523663   3.086684
    13  H    3.410847   2.154566   1.186092   2.478599   2.476546
    14  O    4.572767   3.193110   2.533165   3.301212   3.181552
    15  H    4.922314   3.644448   2.818036   3.987801   3.494758
                   11         12         13         14         15
    11  H    0.000000
    12  H    1.802911   0.000000
    13  H    1.839363   1.804317   0.000000
    14  O    3.010852   3.100146   1.361635   0.000000
    15  H    2.938671   3.481192   1.786358   0.970594   0.000000
 Stoichiometry    C5H7O3(2)
 Framework group  C1[X(C5H7O3)]
 Deg. of freedom    39
 Full point group                 C1      NOp   1
 Largest Abelian subgroup         C1      NOp   1
 Largest concise Abelian subgroup C1      NOp   1
                         Standard orientation:                         
 ---------------------------------------------------------------------
 Center     Atomic      Atomic             Coordinates (Angstroms)
 Number     Number       Type             X           Y           Z
 ---------------------------------------------------------------------
      1          6           0        1.346387    2.236842   -0.067738
      2          1           0        1.271060    3.299333   -0.082596
      3          6           0        1.438086    1.041461   -0.050743
      4          6           0        1.630617   -0.409968   -0.000589
      5          8           0        2.680837   -0.896142    0.290853
      6          8           0        0.572885   -1.172733   -0.309517
      7          6           0       -0.712731   -0.583690   -0.570952
      8          6           0       -1.429812   -0.275057    0.721990
      9          1           0       -0.600785    0.307764   -1.189949
     10          1           0       -1.246672   -1.340202   -1.142565
     11          1           0       -1.589949   -1.161269    1.335176
     12          1           0       -0.975848    0.533367    1.295470
     13          1           0       -2.493394    0.140980    0.401800
     14          8           0       -3.725623    0.376434   -0.127560
     15          1           0       -4.224493   -0.297973    0.360657
 ---------------------------------------------------------------------
 Rotational constants (GHZ):           3.3355687           1.0069345           0.8235844
 Standard basis: 6-311++G(d,p) (5D, 7F)
 There are   233 symmetry adapted cartesian basis functions of A   symmetry.
 There are   225 symmetry adapted basis functions of A   symmetry.
   225 basis functions,   351 primitive gaussians,   233 cartesian basis functions
    31 alpha electrons       30 beta electrons
       nuclear repulsion energy       343.8774143386 Hartrees.
 NAtoms=   15 NActive=   15 NUniq=   15 SFac= 1.00D+00 NAtFMM=   60 NAOKFM=F Big=F
 Integral buffers will be    131072 words long.
 Raffenetti 2 integral format.
 Two-electron integral symmetry is turned on.
 One-electron integrals computed using PRISM.
 NBasis=   225 RedAO= T EigKep=  1.52D-06  NBF=   225
 NBsUse=   225 1.00D-06 EigRej= -1.00D+00 NBFU=   225
 ExpMin= 3.60D-02 ExpMax= 8.59D+03 ExpMxC= 1.30D+03 IAcc=3 IRadAn=         5 AccDes= 0.00D+00
 Harris functional with IExCor= 1009 and IRadAn=       5 diagonalized for initial guess.
 HarFok:  IExCor= 1009 AccDes= 0.00D+00 IRadAn=         5 IDoV= 1 UseB2=F ITyADJ=14
 ICtDFT=  3500011 ScaDFX=  1.000000  1.000000  1.000000  1.000000
 FoFCou: FMM=F IPFlag=           0 FMFlag=      100000 FMFlg1=           0
         NFxFlg=           0 DoJE=T BraDBF=F KetDBF=T FulRan=T
         wScrn=  0.000000 ICntrl=       500 IOpCl=  0 I1Cent=   200000004 NGrid=           0
         NMat0=    1 NMatS0=      1 NMatT0=    0 NMatD0=    1 NMtDS0=    0 NMtDT0=    0
 Petite list used in FoFCou.
 Initial guess <Sx>= 0.0000 <Sy>= 0.0000 <Sz>= 0.5000 <S**2>= 0.7500 S= 0.5000
 Requested convergence on RMS density matrix=1.00D-08 within 128 cycles.
 Requested convergence on MAX density matrix=1.00D-06.
 Requested convergence on             energy=1.00D-06.
 No special actions if energy rises.
 Restarting incremental Fock formation.
 SCF Done:  E(UM062X) =  -420.188408580     A.U. after   22 cycles
            NFock= 22  Conv=0.41D-08     -V/T= 2.0033
 <Sx>= 0.0000 <Sy>= 0.0000 <Sz>= 0.5000 <S**2>= 0.7588 S= 0.5044
 <L.S>=  0.00000000000    
 Annihilation of the first spin contaminant:
 S**2 before annihilation     0.7588,   after     0.7500
 DoSCS=F DFT=T ScalE2(SS,OS)=  1.000000  1.000000
 Range of M.O.s used for correlation:     1   225
 NBasis=   225 NAE=    31 NBE=    30 NFC=     0 NFV=     0
 NROrb=    225 NOA=    31 NOB=    30 NVA=   194 NVB=   195

 **** Warning!!: The largest alpha MO coefficient is  0.26444503D+03


 **** Warning!!: The largest beta MO coefficient is  0.27513583D+03

 Symmetrizing basis deriv contribution to polar:
 IMax=3 JMax=2 DiffMx= 0.00D+00
 G2DrvN: will do    16 centers at a time, making    1 passes.
 Calling FoFCou, ICntrl=  3107 FMM=F I1Cent=   0 AccDes= 0.00D+00.
 End of G2Drv F.D. properties file   721 does not exist.
 End of G2Drv F.D. properties file   722 does not exist.
 End of G2Drv F.D. properties file   788 does not exist.
          IDoAtm=111111111111111
          Differentiating once with respect to electric field.
                with respect to dipole field.
          Differentiating once with respect to nuclear coordinates.
 Keep R1 and R2 ints in memory in canonical form, NReq=671901970.
          There are    48 degrees of freedom in the 1st order CPHF.  IDoFFX=6 NUNeed=     3.
     45 vectors produced by pass  0 Test12= 2.47D-14 2.08D-09 XBig12= 9.57D+01 4.12D+00.
 AX will form    45 AO Fock derivatives at one time.
     45 vectors produced by pass  1 Test12= 2.47D-14 2.08D-09 XBig12= 2.01D+01 7.40D-01.
     45 vectors produced by pass  2 Test12= 2.47D-14 2.08D-09 XBig12= 6.12D-01 9.38D-02.
     45 vectors produced by pass  3 Test12= 2.47D-14 2.08D-09 XBig12= 6.49D-03 9.06D-03.
     45 vectors produced by pass  4 Test12= 2.47D-14 2.08D-09 XBig12= 6.73D-05 9.79D-04.
     45 vectors produced by pass  5 Test12= 2.47D-14 2.08D-09 XBig12= 6.22D-07 1.02D-04.
     45 vectors produced by pass  6 Test12= 2.47D-14 2.08D-09 XBig12= 4.68D-09 8.78D-06.
     19 vectors produced by pass  7 Test12= 2.47D-14 2.08D-09 XBig12= 3.81D-11 6.09D-07.
      3 vectors produced by pass  8 Test12= 2.47D-14 2.08D-09 XBig12= 2.67D-13 4.72D-08.
      2 vectors produced by pass  9 Test12= 2.47D-14 2.08D-09 XBig12= 4.86D-15 1.15D-08.
 InvSVY:  IOpt=1 It=  1 EMax= 7.11D-15
 Solved reduced A of dimension   339 with    48 vectors.
 Isotropic polarizability for W=    0.000000       77.50 Bohr**3.
 End of Minotr F.D. properties file   721 does not exist.
 End of Minotr F.D. properties file   722 does not exist.
 End of Minotr F.D. properties file   788 does not exist.

 **********************************************************************

            Population analysis using the SCF density.

 **********************************************************************

 Orbital symmetries:
 Alpha Orbitals:
       Occupied  (A) (A) (A) (A) (A) (A) (A) (A) (A) (A) (A) (A)
                 (A) (A) (A) (A) (A) (A) (A) (A) (A) (A) (A) (A)
                 (A) (A) (A) (A) (A) (A) (A)
       Virtual   (A) (A) (A) (A) (A) (A) (A) (A) (A) (A) (A) (A)
                 (A) (A) (A) (A) (A) (A) (A) (A) (A) (A) (A) (A)
                 (A) (A) (A) (A) (A) (A) (A) (A) (A) (A) (A) (A)
                 (A) (A) (A) (A) (A) (A) (A) (A) (A) (A) (A) (A)
                 (A) (A) (A) (A) (A) (A) (A) (A) (A) (A) (A) (A)
                 (A) (A) (A) (A) (A) (A) (A) (A) (A) (A) (A) (A)
                 (A) (A) (A) (A) (A) (A) (A) (A) (A) (A) (A) (A)
                 (A) (A) (A) (A) (A) (A) (A) (A) (A) (A) (A) (A)
                 (A) (A) (A) (A) (A) (A) (A) (A) (A) (A) (A) (A)
                 (A) (A) (A) (A) (A) (A) (A) (A) (A) (A) (A) (A)
                 (A) (A) (A) (A) (A) (A) (A) (A) (A) (A) (A) (A)
                 (A) (A) (A) (A) (A) (A) (A) (A) (A) (A) (A) (A)
                 (A) (A) (A) (A) (A) (A) (A) (A) (A) (A) (A) (A)
                 (A) (A) (A) (A) (A) (A) (A) (A) (A) (A) (A) (A)
                 (A) (A) (A) (A) (A) (A) (A) (A) (A) (A) (A) (A)
                 (A) (A) (A) (A) (A) (A) (A) (A) (A) (A) (A) (A)
                 (A) (A)
 Beta  Orbitals:
       Occupied  (A) (A) (A) (A) (A) (A) (A) (A) (A) (A) (A) (A)
                 (A) (A) (A) (A) (A) (A) (A) (A) (A) (A) (A) (A)
                 (A) (A) (A) (A) (A) (A)
       Virtual   (A) (A) (A) (A) (A) (A) (A) (A) (A) (A) (A) (A)
                 (A) (A) (A) (A) (A) (A) (A) (A) (A) (A) (A) (A)
                 (A) (A) (A) (A) (A) (A) (A) (A) (A) (A) (A) (A)
                 (A) (A) (A) (A) (A) (A) (A) (A) (A) (A) (A) (A)
                 (A) (A) (A) (A) (A) (A) (A) (A) (A) (A) (A) (A)
                 (A) (A) (A) (A) (A) (A) (A) (A) (A) (A) (A) (A)
                 (A) (A) (A) (A) (A) (A) (A) (A) (A) (A) (A) (A)
                 (A) (A) (A) (A) (A) (A) (A) (A) (A) (A) (A) (A)
                 (A) (A) (A) (A) (A) (A) (A) (A) (A) (A) (A) (A)
                 (A) (A) (A) (A) (A) (A) (A) (A) (A) (A) (A) (A)
                 (A) (A) (A) (A) (A) (A) (A) (A) (A) (A) (A) (A)
                 (A) (A) (A) (A) (A) (A) (A) (A) (A) (A) (A) (A)
                 (A) (A) (A) (A) (A) (A) (A) (A) (A) (A) (A) (A)
                 (A) (A) (A) (A) (A) (A) (A) (A) (A) (A) (A) (A)
                 (A) (A) (A) (A) (A) (A) (A) (A) (A) (A) (A) (A)
                 (A) (A) (A) (A) (A) (A) (A) (A) (A) (A) (A) (A)
                 (A) (A) (A)
 The electronic state is 2-A.
 Alpha  occ. eigenvalues --  -19.68773 -19.67468 -19.63230 -10.71144 -10.62112
 Alpha  occ. eigenvalues --  -10.58219 -10.57791 -10.57167  -1.25681  -1.17139
 Alpha  occ. eigenvalues --   -1.14269  -0.90006  -0.89676  -0.78434  -0.74354
 Alpha  occ. eigenvalues --   -0.64937  -0.62174  -0.60153  -0.58787  -0.56854
 Alpha  occ. eigenvalues --   -0.54258  -0.53160  -0.49450  -0.48676  -0.43842
 Alpha  occ. eigenvalues --   -0.42970  -0.40895  -0.39568  -0.38395  -0.37056
 Alpha  occ. eigenvalues --   -0.36554
 Alpha virt. eigenvalues --   -0.02521  -0.01305   0.00012   0.01209   0.01984
 Alpha virt. eigenvalues --    0.02344   0.03870   0.04219   0.05192   0.06590
 Alpha virt. eigenvalues --    0.06967   0.07307   0.08105   0.09080   0.10330
 Alpha virt. eigenvalues --    0.10579   0.11052   0.11456   0.12401   0.13433
 Alpha virt. eigenvalues --    0.13657   0.14013   0.14195   0.15083   0.15918
 Alpha virt. eigenvalues --    0.16055   0.17154   0.17859   0.18575   0.19255
 Alpha virt. eigenvalues --    0.20346   0.21779   0.22470   0.23188   0.24368
 Alpha virt. eigenvalues --    0.25084   0.25963   0.26709   0.28335   0.28955
 Alpha virt. eigenvalues --    0.30274   0.31543   0.31933   0.32610   0.33039
 Alpha virt. eigenvalues --    0.34459   0.35133   0.35572   0.37119   0.38042
 Alpha virt. eigenvalues --    0.40030   0.41722   0.44775   0.46273   0.48821
 Alpha virt. eigenvalues --    0.49385   0.51962   0.52266   0.56402   0.56908
 Alpha virt. eigenvalues --    0.59331   0.60186   0.61706   0.63011   0.66531
 Alpha virt. eigenvalues --    0.67243   0.69067   0.69589   0.71324   0.72323
 Alpha virt. eigenvalues --    0.73783   0.74273   0.76040   0.78619   0.82214
 Alpha virt. eigenvalues --    0.85836   0.86695   0.92672   0.99112   1.00052
 Alpha virt. eigenvalues --    1.04571   1.06294   1.07188   1.09489   1.11127
 Alpha virt. eigenvalues --    1.11879   1.13909   1.17704   1.18622   1.20321
 Alpha virt. eigenvalues --    1.21628   1.24280   1.27371   1.28506   1.28826
 Alpha virt. eigenvalues --    1.31907   1.33929   1.35988   1.37830   1.39186
 Alpha virt. eigenvalues --    1.42102   1.43373   1.48139   1.51153   1.54566
 Alpha virt. eigenvalues --    1.56871   1.57524   1.60647   1.62344   1.63920
 Alpha virt. eigenvalues --    1.65867   1.68306   1.69075   1.72369   1.74000
 Alpha virt. eigenvalues --    1.76678   1.79682   1.80533   1.82636   1.84998
 Alpha virt. eigenvalues --    1.91062   1.93526   1.98857   2.00781   2.03634
 Alpha virt. eigenvalues --    2.08046   2.08620   2.12411   2.17818   2.26113
 Alpha virt. eigenvalues --    2.30336   2.36397   2.42001   2.47589   2.50708
 Alpha virt. eigenvalues --    2.51832   2.55126   2.57639   2.59835   2.61758
 Alpha virt. eigenvalues --    2.67175   2.68679   2.70143   2.72763   2.74197
 Alpha virt. eigenvalues --    2.78876   2.81571   2.83431   2.89095   2.93365
 Alpha virt. eigenvalues --    2.94677   2.97474   3.00675   3.03168   3.06806
 Alpha virt. eigenvalues --    3.08524   3.12444   3.16255   3.18421   3.22360
 Alpha virt. eigenvalues --    3.25675   3.27919   3.33826   3.39805   3.42202
 Alpha virt. eigenvalues --    3.45081   3.53448   3.64160   3.75554   3.76482
 Alpha virt. eigenvalues --    3.83973   3.86995   3.97488   4.03777   4.13314
 Alpha virt. eigenvalues --    4.15833   4.29439   5.07653   5.14508   5.16098
 Alpha virt. eigenvalues --    5.27611   5.30003   5.42654   5.56830   5.68508
 Alpha virt. eigenvalues --    5.97780  23.61644  23.91324  23.94311  23.98908
 Alpha virt. eigenvalues --   25.15420  49.94677  49.98955  50.12720
  Beta  occ. eigenvalues --  -19.68716 -19.66158 -19.63224 -10.71145 -10.62124
  Beta  occ. eigenvalues --  -10.58218 -10.57791 -10.56830  -1.25570  -1.17053
  Beta  occ. eigenvalues --   -1.09042  -0.89807  -0.89025  -0.77712  -0.74004
  Beta  occ. eigenvalues --   -0.64742  -0.62054  -0.58859  -0.57419  -0.55010
  Beta  occ. eigenvalues --   -0.53837  -0.49578  -0.48307  -0.46198  -0.43369
  Beta  occ. eigenvalues --   -0.40286  -0.39950  -0.39138  -0.37809  -0.36727
  Beta virt. eigenvalues --   -0.12359  -0.02494  -0.01000   0.00101   0.01269
  Beta virt. eigenvalues --    0.02166   0.02586   0.03907   0.04273   0.05291
  Beta virt. eigenvalues --    0.06727   0.07060   0.07337   0.08230   0.09132
  Beta virt. eigenvalues --    0.10469   0.10779   0.11211   0.11703   0.12477
  Beta virt. eigenvalues --    0.13471   0.13632   0.14115   0.14318   0.15236
  Beta virt. eigenvalues --    0.15977   0.16321   0.17188   0.17997   0.18606
  Beta virt. eigenvalues --    0.19293   0.20606   0.21877   0.22600   0.23000
  Beta virt. eigenvalues --    0.24544   0.25329   0.25750   0.27036   0.28584
  Beta virt. eigenvalues --    0.29363   0.30442   0.31613   0.32020   0.32740
  Beta virt. eigenvalues --    0.33177   0.34533   0.35524   0.35770   0.37488
  Beta virt. eigenvalues --    0.38280   0.40188   0.42709   0.44811   0.46695
  Beta virt. eigenvalues --    0.49213   0.49469   0.52006   0.52307   0.56819
  Beta virt. eigenvalues --    0.57243   0.59556   0.60337   0.61923   0.63135
  Beta virt. eigenvalues --    0.66870   0.67840   0.69085   0.69928   0.71600
  Beta virt. eigenvalues --    0.72357   0.73870   0.74482   0.76653   0.78830
  Beta virt. eigenvalues --    0.82409   0.85867   0.86729   0.92718   0.99617
  Beta virt. eigenvalues --    1.00569   1.04946   1.06605   1.07762   1.09811
  Beta virt. eigenvalues --    1.11826   1.12816   1.16373   1.18159   1.18658
  Beta virt. eigenvalues --    1.20644   1.21725   1.24360   1.27458   1.28668
  Beta virt. eigenvalues --    1.28891   1.31959   1.34032   1.36099   1.38121
  Beta virt. eigenvalues --    1.39769   1.42359   1.43449   1.48184   1.53111
  Beta virt. eigenvalues --    1.54962   1.57093   1.57697   1.60643   1.62359
  Beta virt. eigenvalues --    1.64033   1.65986   1.68741   1.69317   1.73114
  Beta virt. eigenvalues --    1.74279   1.76755   1.79676   1.80611   1.82606
  Beta virt. eigenvalues --    1.85637   1.91109   1.93542   1.98640   2.00811
  Beta virt. eigenvalues --    2.03922   2.08381   2.09085   2.13228   2.17969
  Beta virt. eigenvalues --    2.26465   2.31097   2.37540   2.42058   2.47754
  Beta virt. eigenvalues --    2.50925   2.51772   2.54796   2.58132   2.60108
  Beta virt. eigenvalues --    2.61854   2.66141   2.67300   2.68799   2.72713
  Beta virt. eigenvalues --    2.74529   2.79117   2.81665   2.83164   2.89163
  Beta virt. eigenvalues --    2.94145   2.97489   2.98356   3.00585   3.03138
  Beta virt. eigenvalues --    3.06824   3.08580   3.12590   3.17904   3.21749
  Beta virt. eigenvalues --    3.23192   3.25772   3.28576   3.33849   3.39886
  Beta virt. eigenvalues --    3.42725   3.46729   3.53472   3.64210   3.75636
  Beta virt. eigenvalues --    3.78023   3.84874   3.87103   3.99959   4.03822
  Beta virt. eigenvalues --    4.13711   4.15845   4.30055   5.09743   5.14684
  Beta virt. eigenvalues --    5.16121   5.27666   5.35856   5.42785   5.59655
  Beta virt. eigenvalues --    5.68547   5.97811  23.61644  23.91356  23.94311
  Beta virt. eigenvalues --   23.99273  25.15420  49.94070  49.98889  50.12710
          Condensed to atoms (all electrons):
               1          2          3          4          5          6
     1  C   24.096879   0.823221 -10.291340  -6.928847  -0.157708   0.057131
     2  H    0.823221   0.437155  -0.359477  -0.084003  -0.005382  -0.003583
     3  C  -10.291340  -0.359477  13.292954   1.864904   0.007371  -0.243249
     4  C   -6.928847  -0.084003   1.864904  10.803733   0.479932   0.093118
     5  O   -0.157708  -0.005382   0.007371   0.479932   7.996809  -0.084334
     6  O    0.057131  -0.003583  -0.243249   0.093118  -0.084334   8.201110
     7  C   -0.447336  -0.008467   0.108427   0.236974  -0.008986   0.187378
     8  C    0.367265   0.004498  -0.069288  -0.306651   0.017612  -0.103924
     9  H   -0.040894  -0.000151   0.039036   0.005915  -0.003835   0.006859
    10  H   -0.062102  -0.001357   0.016751   0.040192   0.001527  -0.072931
    11  H    0.005359   0.000387  -0.004577  -0.001975  -0.000504  -0.003759
    12  H   -0.074749  -0.003933   0.080013   0.012488   0.001071  -0.008206
    13  H   -0.020020   0.000106   0.006816   0.005582   0.000952   0.007578
    14  O    0.002145   0.000065   0.001669  -0.003068   0.000008   0.000370
    15  H    0.000712   0.000005  -0.001045   0.000263  -0.000024   0.000234
               7          8          9         10         11         12
     1  C   -0.447336   0.367265  -0.040894  -0.062102   0.005359  -0.074749
     2  H   -0.008467   0.004498  -0.000151  -0.001357   0.000387  -0.003933
     3  C    0.108427  -0.069288   0.039036   0.016751  -0.004577   0.080013
     4  C    0.236974  -0.306651   0.005915   0.040192  -0.001975   0.012488
     5  O   -0.008986   0.017612  -0.003835   0.001527  -0.000504   0.001071
     6  O    0.187378  -0.103924   0.006859  -0.072931  -0.003759  -0.008206
     7  C    6.000121  -0.441032   0.387278   0.383469   0.014463  -0.045789
     8  C   -0.441032   6.035716  -0.038499  -0.000168   0.356439   0.398049
     9  H    0.387278  -0.038499   0.537545  -0.043333   0.011549  -0.019218
    10  H    0.383469  -0.000168  -0.043333   0.526044  -0.024750   0.021970
    11  H    0.014463   0.356439   0.011549  -0.024750   0.533998  -0.053281
    12  H   -0.045789   0.398049  -0.019218   0.021970  -0.053281   0.566600
    13  H    0.005458   0.227477  -0.026510   0.007925  -0.032687  -0.038485
    14  O   -0.073869   0.038346   0.003788   0.002908  -0.008131  -0.000198
    15  H   -0.001908   0.021592  -0.000372   0.002120  -0.005342   0.002339
              13         14         15
     1  C   -0.020020   0.002145   0.000712
     2  H    0.000106   0.000065   0.000005
     3  C    0.006816   0.001669  -0.001045
     4  C    0.005582  -0.003068   0.000263
     5  O    0.000952   0.000008  -0.000024
     6  O    0.007578   0.000370   0.000234
     7  C    0.005458  -0.073869  -0.001908
     8  C    0.227477   0.038346   0.021592
     9  H   -0.026510   0.003788  -0.000372
    10  H    0.007925   0.002908   0.002120
    11  H   -0.032687  -0.008131  -0.005342
    12  H   -0.038485  -0.000198   0.002339
    13  H    0.625542   0.033451  -0.016286
    14  O    0.033451   8.082530   0.258960
    15  H   -0.016286   0.258960   0.491365
          Atomic-Atomic Spin Densities.
               1          2          3          4          5          6
     1  C    0.063145   0.003559  -0.048095  -0.020840   0.000321   0.011312
     2  H    0.003559   0.000316  -0.002846  -0.001077   0.000019   0.000219
     3  C   -0.048095  -0.002846   0.035168   0.016097   0.000036  -0.001965
     4  C   -0.020840  -0.001077   0.016097   0.006216  -0.000351  -0.008112
     5  O    0.000321   0.000019   0.000036  -0.000351   0.003085  -0.000054
     6  O    0.011312   0.000219  -0.001965  -0.008112  -0.000054   0.037317
     7  C   -0.015829  -0.000573   0.021737  -0.010284   0.000641  -0.000475
     8  C    0.015665   0.000622  -0.024273   0.011409  -0.000828  -0.014232
     9  H    0.007595   0.000102  -0.004025  -0.003728   0.000242   0.000402
    10  H   -0.003792  -0.000033  -0.002346   0.007354  -0.000475  -0.004994
    11  H    0.002598   0.000019   0.000824  -0.004142   0.000215   0.002966
    12  H   -0.017219  -0.000512   0.006664   0.011366  -0.000187  -0.006895
    13  H   -0.003642   0.000084   0.004093   0.000463  -0.000035  -0.002338
    14  O   -0.003108  -0.000143  -0.000103   0.002967  -0.000012  -0.001754
    15  H    0.000593   0.000021  -0.000171  -0.000403   0.000007   0.000374
               7          8          9         10         11         12
     1  C   -0.015829   0.015665   0.007595  -0.003792   0.002598  -0.017219
     2  H   -0.000573   0.000622   0.000102  -0.000033   0.000019  -0.000512
     3  C    0.021737  -0.024273  -0.004025  -0.002346   0.000824   0.006664
     4  C   -0.010284   0.011409  -0.003728   0.007354  -0.004142   0.011366
     5  O    0.000641  -0.000828   0.000242  -0.000475   0.000215  -0.000187
     6  O   -0.000475  -0.014232   0.000402  -0.004994   0.002966  -0.006895
     7  C   -0.061995   0.026410   0.003387   0.009503  -0.008158   0.014297
     8  C    0.026410   0.391227  -0.005928  -0.002201  -0.006545  -0.023615
     9  H    0.003387  -0.005928  -0.003459   0.001684  -0.001784  -0.000321
    10  H    0.009503  -0.002201   0.001684  -0.001132   0.002663   0.001171
    11  H   -0.008158  -0.006545  -0.001784   0.002663  -0.025279   0.003011
    12  H    0.014297  -0.023615  -0.000321   0.001171   0.003011   0.008626
    13  H    0.016001   0.088132   0.008647  -0.014108   0.025453  -0.010888
    14  O    0.004459  -0.090805  -0.003560   0.006303  -0.005447   0.012729
    15  H   -0.000641   0.004424   0.000289  -0.000797   0.000347  -0.001461
              13         14         15
     1  C   -0.003642  -0.003108   0.000593
     2  H    0.000084  -0.000143   0.000021
     3  C    0.004093  -0.000103  -0.000171
     4  C    0.000463   0.002967  -0.000403
     5  O   -0.000035  -0.000012   0.000007
     6  O   -0.002338  -0.001754   0.000374
     7  C    0.016001   0.004459  -0.000641
     8  C    0.088132  -0.090805   0.004424
     9  H    0.008647  -0.003560   0.000289
    10  H   -0.014108   0.006303  -0.000797
    11  H    0.025453  -0.005447   0.000347
    12  H   -0.010888   0.012729  -0.001461
    13  H   -0.150697  -0.015133   0.000875
    14  O   -0.015133   0.785681   0.010515
    15  H    0.000875   0.010515  -0.027436
 Mulliken charges and spin densities:
               1          2
     1  C   -1.329716  -0.007736
     2  H    0.200917  -0.000223
     3  C    1.551035   0.000795
     4  C   -0.218557   0.006935
     5  O   -0.244509   0.002624
     6  O   -0.033794   0.011771
     7  C   -0.296179  -0.001519
     8  C   -0.507432   0.369464
     9  H    0.180843  -0.000456
    10  H    0.201735  -0.001200
    11  H    0.212810  -0.013257
    12  H    0.161329  -0.003234
    13  H    0.213102  -0.053092
    14  O   -0.338972   0.702590
    15  H    0.247387  -0.013462
 Sum of Mulliken charges =  -0.00000   1.00000
 Mulliken charges and spin densities with hydrogens summed into heavy atoms:
               1          2
     1  C   -1.128799  -0.007959
     3  C    1.551035   0.000795
     4  C   -0.218557   0.006935
     5  O   -0.244509   0.002624
     6  O   -0.033794   0.011771
     7  C    0.086400  -0.003174
     8  C    0.079809   0.299881
    14  O   -0.091585   0.689128
 APT charges:
               1
     1  C   -0.169607
     2  H    0.231106
     3  C   -0.285303
     4  C    1.575781
     5  O   -0.872640
     6  O   -0.993073
     7  C    0.458322
     8  C    0.355052
     9  H   -0.006685
    10  H    0.001637
    11  H   -0.028593
    12  H   -0.021198
    13  H   -0.415460
    14  O   -0.133348
    15  H    0.304008
 Sum of APT charges =   0.00000
 APT charges with hydrogens summed into heavy atoms:
               1
     1  C    0.061499
     3  C   -0.285303
     4  C    1.575781
     5  O   -0.872640
     6  O   -0.993073
     7  C    0.453274
     8  C   -0.110199
    14  O    0.170660
 Electronic spatial extent (au):  <R**2>=           1334.0893
 Charge=             -0.0000 electrons
 Dipole moment (field-independent basis, Debye):
    X=             -3.3161    Y=              1.6570    Z=              0.4504  Tot=              3.7343
 Quadrupole moment (field-independent basis, Debye-Ang):
   XX=            -56.1117   YY=            -43.3812   ZZ=            -46.9991
   XY=             12.3530   XZ=             -5.4334   YZ=             -0.1305
 Traceless Quadrupole moment (field-independent basis, Debye-Ang):
   XX=             -7.2811   YY=              5.4495   ZZ=              1.8316
   XY=             12.3530   XZ=             -5.4334   YZ=             -0.1305
 Octapole moment (field-independent basis, Debye-Ang**2):
  XXX=            -56.7633  YYY=             25.6609  ZZZ=             -0.2348  XYY=              0.7642
  XXY=            -16.7169  XXZ=             11.1529  XZZ=             -4.0156  YZZ=             -5.4775
  YYZ=             -0.9350  XYZ=              2.1924
 Hexadecapole moment (field-independent basis, Debye-Ang**3):
 XXXX=          -1149.8777 YYYY=           -282.3862 ZZZZ=           -109.0531 XXXY=            101.6009
 XXXZ=            -74.7053 YYYX=             36.7804 YYYZ=             -2.4927 ZZZX=              0.9598
 ZZZY=              0.7936 XXYY=           -271.9375 XXZZ=           -216.6287 YYZZ=            -84.6192
 XXYZ=             -3.1036 YYXZ=             -0.5955 ZZXY=             -4.4923
 N-N= 3.438774143386D+02 E-N=-1.671943152357D+03  KE= 4.188121342339D+02
  Exact polarizability: 102.263  -5.952  78.827   7.947  -2.062  51.395
 Approx polarizability:  96.095 -10.465 100.215   9.712  -3.618  60.696
                          Isotropic Fermi Contact Couplings
        Atom                 a.u.       MegaHertz       Gauss      10(-4) cm-1
     1  C(13)              0.00003       0.03117       0.01112       0.01040
     2  H(1)              -0.00001      -0.02986      -0.01066      -0.00996
     3  C(13)              0.00020       0.22095       0.07884       0.07370
     4  C(13)             -0.00074      -0.83267      -0.29712      -0.27775
     5  O(17)              0.00069      -0.41772      -0.14905      -0.13934
     6  O(17)              0.01793     -10.86642      -3.87741      -3.62465
     7  C(13)             -0.00365      -4.10380      -1.46434      -1.36888
     8  C(13)              0.12150     136.58793      48.73797      45.56083
     9  H(1)               0.00017       0.77778       0.27753       0.25944
    10  H(1)               0.00046       2.04858       0.73098       0.68333
    11  H(1)              -0.00384     -17.16796      -6.12596      -5.72662
    12  H(1)              -0.00167      -7.47865      -2.66857      -2.49461
    13  H(1)              -0.01582     -70.71412     -25.23255     -23.58769
    14  O(17)              0.12347     -74.84512     -26.70660     -24.96564
    15  H(1)              -0.01195     -53.43481     -19.06687     -17.82393
 --------------------------------------------------------
       Center         ----  Spin Dipole Couplings  ----
                      3XX-RR        3YY-RR        3ZZ-RR
 --------------------------------------------------------
     1   Atom        0.002154     -0.000244     -0.001910
     2   Atom        0.000637      0.000366     -0.001003
     3   Atom        0.002789     -0.000954     -0.001836
     4   Atom        0.004274     -0.001543     -0.002731
     5   Atom       -0.002343     -0.000584      0.002927
     6   Atom        0.042639     -0.028631     -0.014008
     7   Atom       -0.000052     -0.006375      0.006426
     8   Atom        0.346408     -0.162393     -0.184015
     9   Atom        0.003278     -0.006784      0.003505
    10   Atom       -0.000844     -0.001976      0.002820
    11   Atom       -0.005281      0.013156     -0.007875
    12   Atom        0.001404      0.009057     -0.010461
    13   Atom        0.163623     -0.089462     -0.074161
    14   Atom        1.732010     -1.059873     -0.672137
    15   Atom        0.013500      0.017494     -0.030994
 --------------------------------------------------------
                        XY            XZ            YZ
 --------------------------------------------------------
     1   Atom        0.002009     -0.000505     -0.000480
     2   Atom        0.001323     -0.000144     -0.000203
     3   Atom        0.001950     -0.000864     -0.000543
     4   Atom        0.000583     -0.000057      0.001162
     5   Atom        0.002274      0.007963      0.012422
     6   Atom       -0.049559     -0.060974      0.031095
     7   Atom       -0.002803     -0.005512      0.002676
     8   Atom       -0.192174      0.158969     -0.054142
     9   Atom        0.000551     -0.006444     -0.002306
    10   Atom       -0.005278     -0.003325      0.006360
    11   Atom        0.000042      0.001681     -0.029649
    12   Atom        0.009376      0.018191      0.022104
    13   Atom       -0.071969      0.100454     -0.025505
    14   Atom       -1.102079      1.557629     -0.531780
    15   Atom        0.069382     -0.038330     -0.090037
 --------------------------------------------------------


 ---------------------------------------------------------------------------------
              Anisotropic Spin Dipole Couplings in Principal Axis System
 ---------------------------------------------------------------------------------

       Atom             a.u.   MegaHertz   Gauss  10(-4) cm-1        Axes

              Baa    -0.0020    -0.274    -0.098    -0.091 -0.0159  0.2748  0.9614
     1 C(13)  Bbb    -0.0013    -0.180    -0.064    -0.060 -0.5094  0.8251 -0.2443
              Bcc     0.0034     0.454     0.162     0.151  0.8604  0.4936 -0.1269
 
              Baa    -0.0010    -0.553    -0.197    -0.185 -0.1070  0.2408  0.9647
     2 H(1)   Bbb    -0.0008    -0.435    -0.155    -0.145 -0.6658  0.7033 -0.2494
              Bcc     0.0019     0.988     0.353     0.330  0.7384  0.6689 -0.0850
 
              Baa    -0.0021    -0.281    -0.100    -0.094 -0.0353  0.4775  0.8779
     3 C(13)  Bbb    -0.0017    -0.229    -0.082    -0.076 -0.4271  0.7870 -0.4453
              Bcc     0.0038     0.510     0.182     0.170  0.9035  0.3907 -0.1762
 
              Baa    -0.0035    -0.464    -0.166    -0.155  0.0462 -0.5284  0.8478
     4 C(13)  Bbb    -0.0009    -0.117    -0.042    -0.039 -0.0896  0.8431  0.5303
              Bcc     0.0043     0.581     0.207     0.194  0.9949  0.1004  0.0084
 
              Baa    -0.0128     0.929     0.332     0.310 -0.3837 -0.6213  0.6832
     5 O(17)  Bbb    -0.0039     0.282     0.101     0.094  0.8448 -0.5349 -0.0120
              Bcc     0.0167    -1.211    -0.432    -0.404  0.3729  0.5726  0.7301
 
              Baa    -0.0540     3.911     1.396     1.305  0.4969  0.8635  0.0861
     6 O(17)  Bbb    -0.0528     3.818     1.362     1.274  0.3915 -0.3116  0.8658
              Bcc     0.1068    -7.729    -2.758    -2.578  0.7745 -0.3965 -0.4929
 
              Baa    -0.0075    -1.002    -0.358    -0.334  0.3153  0.9473 -0.0573
     7 C(13)  Bbb    -0.0029    -0.394    -0.141    -0.131  0.8066 -0.2357  0.5421
              Bcc     0.0104     1.397     0.498     0.466 -0.5000  0.2172  0.8383
 
              Baa    -0.2285   -30.664   -10.942   -10.228 -0.0859  0.4697  0.8786
     8 C(13)  Bbb    -0.2265   -30.389   -10.844   -10.137  0.3898  0.8274 -0.4043
              Bcc     0.4550    61.053    21.785    20.365  0.9169 -0.3077  0.2542
 
              Baa    -0.0074    -3.932    -1.403    -1.312  0.1141  0.9560  0.2703
     9 H(1)   Bbb    -0.0027    -1.447    -0.516    -0.483  0.7170 -0.2676  0.6437
              Bcc     0.0101     5.380     1.920     1.794 -0.6877 -0.1204  0.7159
 
              Baa    -0.0077    -4.094    -1.461    -1.366  0.4610  0.8161 -0.3486
    10 H(1)   Bbb    -0.0026    -1.389    -0.496    -0.463  0.7531 -0.1521  0.6400
              Bcc     0.0103     5.484     1.957     1.829 -0.4693  0.5576  0.6847
 
              Baa    -0.0289   -15.420    -5.502    -5.144 -0.0591  0.5752  0.8159
    11 H(1)   Bbb    -0.0052    -2.785    -0.994    -0.929  0.9980  0.0535  0.0346
              Bcc     0.0341    18.205     6.496     6.073 -0.0238  0.8163 -0.5772
 
              Baa    -0.0291   -15.503    -5.532    -5.171 -0.3795 -0.3925  0.8378
    12 H(1)   Bbb    -0.0047    -2.524    -0.901    -0.842  0.7783 -0.6251  0.0597
              Bcc     0.0338    18.027     6.433     6.013  0.5002  0.6747  0.5427
 
              Baa    -0.1111   -59.290   -21.156   -19.777 -0.3902 -0.2548  0.8848
    13 H(1)   Bbb    -0.1081   -57.698   -20.588   -19.246  0.1276  0.9367  0.3260
              Bcc     0.2193   116.987    41.744    39.023  0.9118 -0.2401  0.3330
 
              Baa    -1.4474   104.730    37.370    34.934  0.4893  0.7238 -0.4865
    14 O(17)  Bbb    -1.4304   103.500    36.931    34.524 -0.1601  0.6229  0.7657
              Bcc     2.8777  -208.230   -74.302   -69.458  0.8573 -0.2968  0.4206
 
              Baa    -0.1017   -54.249   -19.357   -18.096 -0.1411  0.6478  0.7487
    15 H(1)   Bbb    -0.0350   -18.652    -6.655    -6.221  0.8306 -0.3340  0.4455
              Bcc     0.1366    72.901    26.013    24.317  0.5386  0.6847 -0.4909
 

 ---------------------------------------------------------------------------------

 Calling FoFJK, ICntrl=    100127 FMM=F ISym2X=0 I1Cent= 0 IOpClX= 1 NMat=1 NMatS=1 NMatT=0.
 Full mass-weighted force constant matrix:
 Low frequencies ----1008.0972   -0.3627    0.0005    0.0008    0.0009    4.4104
 Low frequencies ---    7.9303   39.5629   53.4785
 ******    1 imaginary frequencies (negative Signs) ****** 
 Diagonal vibrational polarizability:
      175.4718379      93.2994725     110.9353604
 Harmonic frequencies (cm**-1), IR intensities (KM/Mole), Raman scattering
 activities (A**4/AMU), depolarization ratios for plane and unpolarized
 incident light, reduced masses (AMU), force constants (mDyne/A),
 and normal coordinates:
                      1                      2                      3
                      A                      A                      A
 Frequencies --  -1008.0971                39.5473                53.4770
 Red. masses --      1.2771                 5.6629                 6.3648
 Frc consts  --      0.7647                 0.0052                 0.0107
 IR Inten    --   1504.3687                 6.5034                 3.1931
  Atom  AN      X      Y      Z        X      Y      Z        X      Y      Z
     1   6     0.00   0.00  -0.00    -0.27  -0.02   0.01    -0.02   0.01  -0.12
     2   1     0.00  -0.00   0.00    -0.39  -0.03   0.02    -0.03   0.01  -0.20
     3   6     0.00   0.00  -0.00    -0.13  -0.01  -0.00    -0.01   0.01  -0.04
     4   6    -0.00  -0.01  -0.00     0.01   0.01  -0.02    -0.00   0.01   0.06
     5   8     0.00   0.00   0.00     0.07   0.11  -0.07    -0.07   0.03   0.33
     6   8     0.01  -0.00  -0.01     0.06  -0.09   0.05     0.08  -0.01  -0.18
     7   6     0.02  -0.01   0.01     0.01  -0.19   0.06     0.07  -0.04  -0.21
     8   6     0.02   0.00   0.02     0.01  -0.21   0.06     0.03  -0.17  -0.20
     9   1     0.01  -0.01   0.00    -0.07  -0.19   0.05     0.07   0.01  -0.13
    10   1     0.01  -0.00   0.00     0.05  -0.23   0.08     0.13  -0.02  -0.28
    11   1     0.17  -0.04   0.01    -0.12  -0.23   0.00     0.02  -0.23  -0.29
    12   1     0.29  -0.17   0.06     0.08  -0.30   0.13     0.04  -0.24  -0.10
    13   1     0.79  -0.04   0.45     0.08  -0.05   0.05     0.04  -0.11  -0.14
    14   8    -0.12   0.02  -0.05     0.19   0.32  -0.07    -0.09   0.13   0.28
    15   1    -0.03  -0.03   0.01    -0.03   0.40  -0.19    -0.05   0.19   0.40
                      4                      5                      6
                      A                      A                      A
 Frequencies --     89.2406               108.6666               152.8853
 Red. masses --      3.5018                 3.5974                 1.1551
 Frc consts  --      0.0164                 0.0250                 0.0159
 IR Inten    --      2.1434                 0.4214               114.0455
  Atom  AN      X      Y      Z        X      Y      Z        X      Y      Z
     1   6     0.10   0.04  -0.10    -0.19  -0.04   0.06     0.03   0.01   0.01
     2   1     0.17   0.04  -0.15    -0.27  -0.05   0.09     0.05   0.01   0.02
     3   6     0.01   0.03  -0.05    -0.08  -0.04   0.03    -0.01   0.01   0.00
     4   6    -0.06   0.03  -0.01    -0.05  -0.03  -0.01    -0.01   0.01  -0.01
     5   8    -0.11  -0.02   0.10    -0.07  -0.03   0.09    -0.01   0.01   0.00
     6   8    -0.06   0.07  -0.13    -0.00  -0.03  -0.16    -0.00   0.00  -0.02
     7   6    -0.08   0.09   0.07    -0.02  -0.01  -0.04    -0.01  -0.00   0.01
     8   6     0.02  -0.17   0.18     0.20   0.23   0.03     0.01  -0.02   0.03
     9   1    -0.15   0.22   0.24    -0.08  -0.12  -0.20    -0.03   0.00   0.02
    10   1    -0.11   0.20  -0.04    -0.14  -0.08   0.17    -0.03   0.00   0.02
    11   1     0.03  -0.29   0.01     0.28   0.34   0.21     0.02  -0.03   0.02
    12   1     0.07  -0.30   0.32     0.28   0.33  -0.19     0.00  -0.01   0.02
    13   1     0.02  -0.08   0.30     0.16   0.17   0.11     0.01  -0.05  -0.02
    14   8     0.18  -0.04  -0.06     0.15  -0.05   0.01     0.02  -0.05  -0.06
    15   1     0.07  -0.20  -0.38     0.22  -0.08   0.03    -0.18   0.66   0.71
                      7                      8                      9
                      A                      A                      A
 Frequencies --    180.2504               259.2523               300.8419
 Red. masses --      3.3419                 5.0293                 1.8555
 Frc consts  --      0.0640                 0.1992                 0.0989
 IR Inten    --      5.8178                 0.5539                 5.0580
  Atom  AN      X      Y      Z        X      Y      Z        X      Y      Z
     1   6     0.27   0.07   0.11     0.07   0.01  -0.22     0.01  -0.01   0.01
     2   1     0.57   0.09   0.23     0.24   0.01  -0.75     0.09  -0.01   0.03
     3   6    -0.12   0.03  -0.05    -0.15   0.00   0.47    -0.09  -0.02  -0.03
     4   6    -0.10   0.03  -0.03    -0.06   0.00   0.15    -0.06  -0.02   0.01
     5   8    -0.05   0.15   0.00     0.03   0.01  -0.14    -0.02   0.05  -0.02
     6   8    -0.01  -0.08  -0.02     0.01  -0.00  -0.07    -0.06  -0.06   0.11
     7   6    -0.06  -0.21  -0.02    -0.00  -0.02  -0.04     0.05   0.08  -0.06
     8   6     0.03   0.00  -0.02     0.03   0.00  -0.03     0.02   0.02  -0.07
     9   1    -0.15  -0.31  -0.19    -0.02  -0.03  -0.06     0.23   0.12   0.03
    10   1    -0.06  -0.34   0.16    -0.01  -0.03  -0.01     0.02   0.19  -0.19
    11   1     0.06   0.11   0.14     0.06   0.01  -0.01    -0.30  -0.09  -0.32
    12   1     0.07   0.10  -0.19     0.03   0.02  -0.05     0.29  -0.31   0.18
    13   1     0.02  -0.02   0.01     0.03  -0.01   0.00     0.20   0.41  -0.01
    14   8     0.01   0.02   0.02     0.02  -0.00   0.01     0.09  -0.04   0.03
    15   1     0.04  -0.12  -0.15     0.02  -0.01   0.00     0.34  -0.09   0.22
                     10                     11                     12
                      A                      A                      A
 Frequencies --    369.1973               394.1339               555.8140
 Red. masses --      2.3058                 2.2694                 5.7169
 Frc consts  --      0.1852                 0.2077                 1.0406
 IR Inten    --      0.8701                 9.3619                28.8438
  Atom  AN      X      Y      Z        X      Y      Z        X      Y      Z
     1   6    -0.02   0.08  -0.00    -0.02   0.05   0.00     0.02  -0.25   0.01
     2   1    -0.15   0.07  -0.03    -0.04   0.05   0.01    -0.11  -0.27  -0.03
     3   6     0.15   0.09   0.04     0.02   0.05  -0.01     0.15  -0.21   0.04
     4   6     0.02   0.06   0.01    -0.05   0.03   0.03     0.03  -0.04   0.03
     5   8    -0.04  -0.11  -0.02    -0.07  -0.07  -0.04     0.19   0.26   0.05
     6   8    -0.01   0.10   0.03    -0.08   0.04   0.16    -0.13   0.13   0.02
     7   6    -0.09  -0.15  -0.03     0.00   0.01  -0.12    -0.27   0.05  -0.15
     8   6    -0.04  -0.01  -0.05     0.12  -0.07  -0.07    -0.05  -0.00  -0.03
     9   1    -0.26  -0.25  -0.22     0.06   0.01  -0.11    -0.37  -0.02  -0.26
    10   1    -0.00  -0.35   0.15     0.06  -0.01  -0.15    -0.16  -0.14  -0.01
    11   1    -0.36   0.01  -0.11     0.66  -0.08   0.06     0.19  -0.06  -0.05
    12   1     0.27  -0.23   0.03     0.02   0.13  -0.28     0.21  -0.09  -0.11
    13   1     0.14   0.37  -0.00    -0.04  -0.44   0.21    -0.08   0.05   0.39
    14   8     0.04  -0.02   0.01     0.06  -0.00   0.02     0.05  -0.02   0.02
    15   1     0.28  -0.08   0.16    -0.23   0.11  -0.12    -0.13   0.07  -0.04
                     13                     14                     15
                      A                      A                      A
 Frequencies --    631.1988               736.1147               751.8175
 Red. masses --      5.6954                 1.3184                 2.4752
 Frc consts  --      1.3369                 0.4209                 0.8243
 IR Inten    --      1.4847                36.0875                19.4827
  Atom  AN      X      Y      Z        X      Y      Z        X      Y      Z
     1   6    -0.02   0.07  -0.01    -0.14  -0.01  -0.04     0.00  -0.14   0.01
     2   1    -0.50   0.03  -0.14     0.94   0.08   0.28     0.01  -0.15   0.01
     3   6     0.43   0.09   0.13     0.07   0.01   0.03     0.06  -0.10  -0.03
     4   6    -0.15  -0.03  -0.07     0.00  -0.01  -0.01    -0.11   0.08   0.07
     5   8    -0.10   0.18  -0.02     0.00   0.01   0.00    -0.11   0.05  -0.06
     6   8    -0.08  -0.29  -0.04    -0.00  -0.01   0.00     0.01   0.13  -0.01
     7   6     0.02  -0.04   0.02    -0.01  -0.00  -0.00     0.10  -0.03   0.07
     8   6     0.01   0.00   0.01    -0.00  -0.00  -0.00     0.04  -0.07  -0.01
     9   1     0.32   0.09   0.26     0.01   0.01   0.02    -0.04   0.04   0.14
    10   1    -0.17   0.27  -0.21    -0.00   0.01  -0.02     0.16  -0.03   0.01
    11   1    -0.03   0.07   0.09     0.00   0.01   0.02     0.07   0.06   0.18
    12   1    -0.01   0.06  -0.05     0.00   0.01  -0.03    -0.19   0.16  -0.16
    13   1    -0.00  -0.01  -0.07     0.00   0.00   0.01     0.19  -0.14  -0.37
    14   8    -0.01   0.00  -0.00     0.00   0.00  -0.00    -0.02   0.03  -0.03
    15   1     0.01  -0.01  -0.00     0.02  -0.00   0.01     0.60  -0.20   0.29
                     16                     17                     18
                      A                      A                      A
 Frequencies --    768.5424               769.3373               777.3731
 Red. masses --      1.7187                 4.2364                 1.2913
 Frc consts  --      0.5981                 1.4774                 0.4598
 IR Inten    --      6.5470                14.0687                44.4537
  Atom  AN      X      Y      Z        X      Y      Z        X      Y      Z
     1   6    -0.00   0.07   0.02    -0.03   0.01   0.05     0.04   0.01  -0.14
     2   1    -0.00   0.07  -0.07     0.11   0.02  -0.07    -0.28  -0.00   0.95
     3   6    -0.03   0.05  -0.06     0.08   0.01  -0.19    -0.01   0.00   0.04
     4   6     0.02  -0.04   0.13    -0.13  -0.01   0.43    -0.01  -0.00   0.05
     5   8     0.09  -0.03  -0.01     0.03   0.01  -0.12     0.01  -0.00  -0.01
     6   8    -0.01  -0.03  -0.03     0.02  -0.04  -0.09     0.00  -0.00  -0.01
     7   6    -0.09  -0.02  -0.02     0.03   0.02  -0.01    -0.00   0.00  -0.00
     8   6    -0.09  -0.04  -0.01     0.05   0.05   0.01    -0.00  -0.00  -0.00
     9   1    -0.00   0.21   0.33     0.01  -0.13  -0.25    -0.00   0.01   0.01
    10   1     0.01   0.18  -0.38    -0.07  -0.09   0.23    -0.00   0.01  -0.01
    11   1     0.11   0.19   0.36    -0.13  -0.13  -0.29     0.00   0.01   0.01
    12   1     0.05   0.17  -0.41     0.03  -0.16   0.31     0.00   0.00  -0.01
    13   1     0.08   0.05   0.10    -0.11   0.02   0.03     0.00   0.00   0.01
    14   8     0.02   0.01  -0.01    -0.01  -0.02   0.01     0.00  -0.00   0.00
    15   1     0.39  -0.11   0.21    -0.47   0.14  -0.24     0.01  -0.00   0.00
                     19                     20                     21
                      A                      A                      A
 Frequencies --    841.4049               906.6640              1023.1199
 Red. masses --      1.4278                 2.2497                 2.8540
 Frc consts  --      0.5956                 1.0896                 1.7602
 IR Inten    --     91.3346               247.5625               189.8050
  Atom  AN      X      Y      Z        X      Y      Z        X      Y      Z
     1   6    -0.00   0.06   0.00     0.00   0.01  -0.00    -0.00   0.05  -0.00
     2   1    -0.00   0.06  -0.00     0.01   0.01   0.01    -0.01   0.05  -0.01
     3   6    -0.00   0.04  -0.00    -0.02   0.00  -0.00    -0.00   0.02   0.00
     4   6     0.02  -0.05   0.01     0.03  -0.01   0.01    -0.01  -0.11  -0.01
     5   8     0.06  -0.00   0.02     0.04  -0.00   0.01     0.06   0.01   0.02
     6   8    -0.05  -0.05   0.00    -0.05   0.03   0.02    -0.13   0.05  -0.04
     7   6    -0.05   0.07  -0.01    -0.07  -0.04  -0.02     0.01   0.01   0.23
     8   6     0.07  -0.02   0.02     0.27  -0.06   0.06     0.01  -0.02  -0.23
     9   1    -0.12  -0.11  -0.28    -0.10   0.17   0.28    -0.14   0.01   0.21
    10   1    -0.19  -0.08   0.31    -0.11   0.13  -0.20    -0.08   0.03   0.29
    11   1     0.24  -0.22  -0.21    -0.41   0.11   0.11    -0.08   0.04  -0.18
    12   1    -0.27   0.02   0.22     0.40  -0.05  -0.07    -0.07   0.02  -0.23
    13   1     0.01  -0.20  -0.22    -0.15   0.11  -0.53     0.52  -0.20  -0.35
    14   8    -0.04   0.04  -0.03    -0.11   0.01  -0.03     0.08  -0.03   0.05
    15   1     0.52  -0.18   0.24    -0.17   0.02  -0.11    -0.32   0.09  -0.18
                     22                     23                     24
                      A                      A                      A
 Frequencies --   1104.5097              1176.0305              1186.0869
 Red. masses --      4.1725                 1.9201                 1.3549
 Frc consts  --      2.9991                 1.5646                 1.1230
 IR Inten    --     52.2744               200.9764               317.4262
  Atom  AN      X      Y      Z        X      Y      Z        X      Y      Z
     1   6    -0.01   0.07  -0.00    -0.00   0.02  -0.00     0.00  -0.02   0.00
     2   1    -0.02   0.08  -0.01    -0.02   0.02  -0.01     0.01  -0.02   0.00
     3   6     0.00   0.03   0.00     0.01   0.01   0.00    -0.00  -0.01  -0.00
     4   6    -0.04  -0.20  -0.02    -0.06  -0.08  -0.02     0.03   0.08   0.01
     5   8     0.08   0.03   0.02    -0.03   0.01  -0.01    -0.00  -0.01  -0.00
     6   8    -0.22   0.12  -0.04     0.11  -0.04   0.04     0.01  -0.02   0.02
     7   6     0.27  -0.08  -0.15    -0.04   0.19  -0.05    -0.06  -0.04  -0.09
     8   6    -0.06  -0.01   0.17    -0.00  -0.10   0.02    -0.01   0.04   0.04
     9   1     0.18  -0.16  -0.30    -0.40   0.07  -0.29     0.03   0.04   0.02
    10   1     0.37  -0.18  -0.12     0.26  -0.24   0.25    -0.24   0.14  -0.18
    11   1    -0.32   0.18   0.40    -0.33   0.19   0.34    -0.25   0.07   0.02
    12   1    -0.22   0.10   0.16    -0.01   0.12  -0.29    -0.46   0.14   0.25
    13   1     0.14   0.01  -0.00     0.27   0.11  -0.15     0.57  -0.28  -0.28
    14   8     0.01  -0.01   0.01     0.01  -0.01   0.01     0.05  -0.01   0.03
    15   1    -0.06   0.02  -0.03    -0.12   0.03  -0.06    -0.12   0.03  -0.07
                     25                     26                     27
                      A                      A                      A
 Frequencies --   1253.2099              1300.7770              1341.3381
 Red. masses --      2.7210                 1.2646                 1.2402
 Frc consts  --      2.5178                 1.2607                 1.3147
 IR Inten    --    420.8686                17.1411                97.1988
  Atom  AN      X      Y      Z        X      Y      Z        X      Y      Z
     1   6     0.00  -0.05   0.00    -0.00   0.01  -0.00    -0.00   0.01  -0.00
     2   1     0.03  -0.06   0.01    -0.01   0.01  -0.00    -0.01   0.01  -0.00
     3   6    -0.01  -0.01  -0.00     0.00   0.00   0.00    -0.00   0.00  -0.00
     4   6     0.13   0.24   0.04    -0.02  -0.04  -0.01    -0.04  -0.06  -0.01
     5   8     0.01  -0.03   0.00    -0.00   0.01   0.00    -0.00   0.00  -0.00
     6   8    -0.14  -0.09  -0.03     0.02   0.02   0.01     0.06   0.07   0.01
     7   6     0.12   0.06   0.00    -0.01  -0.03   0.01    -0.04   0.00   0.01
     8   6     0.00  -0.12  -0.04     0.11  -0.03  -0.07    -0.01  -0.06   0.01
     9   1    -0.09  -0.11  -0.29    -0.07   0.08   0.16     0.71  -0.26  -0.22
    10   1    -0.43   0.16   0.37    -0.03   0.00  -0.00    -0.49   0.21   0.15
    11   1    -0.17   0.19   0.36    -0.30   0.06  -0.06    -0.05   0.01   0.10
    12   1    -0.03   0.06  -0.25    -0.57   0.23   0.11     0.03   0.05  -0.18
    13   1    -0.00   0.31   0.23    -0.10   0.21   0.63     0.02   0.11  -0.02
    14   8    -0.01  -0.00  -0.00    -0.01   0.00  -0.01    -0.00  -0.00  -0.00
    15   1    -0.05   0.02  -0.01     0.05   0.00   0.05    -0.01   0.00  -0.01
                     28                     29                     30
                      A                      A                      A
 Frequencies --   1380.7499              1416.1239              1476.6623
 Red. masses --      1.0330                 1.3291                 1.1422
 Frc consts  --      1.1603                 1.5705                 1.4674
 IR Inten    --     13.5759                20.7157                 7.9009
  Atom  AN      X      Y      Z        X      Y      Z        X      Y      Z
     1   6     0.00   0.00  -0.00     0.00  -0.01   0.00    -0.00  -0.00   0.00
     2   1    -0.00   0.00   0.00     0.01  -0.02   0.00     0.00  -0.00  -0.00
     3   6     0.00   0.00   0.00    -0.00  -0.00  -0.00    -0.00   0.00  -0.00
     4   6    -0.00  -0.00  -0.00     0.03   0.07   0.01     0.00   0.01  -0.00
     5   8     0.00   0.00   0.00     0.01  -0.01   0.00     0.00  -0.00   0.00
     6   8    -0.00   0.00   0.00    -0.05  -0.03  -0.03    -0.00  -0.00  -0.01
     7   6    -0.01  -0.02  -0.00    -0.09   0.04   0.08    -0.05   0.02   0.03
     8   6    -0.00  -0.03   0.02     0.04  -0.01   0.03     0.02  -0.01  -0.09
     9   1    -0.04   0.03   0.06     0.43  -0.26  -0.26     0.16  -0.09  -0.09
    10   1     0.05  -0.02  -0.05     0.62  -0.18  -0.29     0.17  -0.04  -0.09
    11   1     0.47  -0.15  -0.04    -0.16  -0.11  -0.18     0.18   0.37   0.53
    12   1    -0.24   0.10   0.05    -0.09   0.19  -0.17    -0.08  -0.38   0.54
    13   1     0.16   0.74  -0.25     0.08   0.00   0.04    -0.07   0.01  -0.06
    14   8    -0.01  -0.01   0.00    -0.00  -0.00  -0.00    -0.00   0.00  -0.00
    15   1    -0.16   0.05  -0.08    -0.00   0.00   0.00     0.00   0.00   0.00
                     31                     32                     33
                      A                      A                      A
 Frequencies --   1517.8331              1868.4228              2251.9804
 Red. masses --      1.0945                12.9649                 5.7264
 Frc consts  --      1.4857                26.6668                17.1105
 IR Inten    --     14.4861               512.5098                54.9902
  Atom  AN      X      Y      Z        X      Y      Z        X      Y      Z
     1   6     0.00  -0.01   0.00    -0.00   0.05  -0.00     0.03  -0.38   0.01
     2   1     0.00  -0.01   0.00     0.02   0.08   0.01     0.05  -0.75   0.01
     3   6    -0.00  -0.00  -0.00    -0.01  -0.03  -0.00    -0.04   0.53  -0.01
     4   6     0.01   0.03   0.00     0.72  -0.35   0.20     0.01  -0.08   0.00
     5   8     0.00  -0.00   0.00    -0.48   0.24  -0.13    -0.00   0.00  -0.00
     6   8    -0.02  -0.01  -0.01    -0.03   0.02  -0.01    -0.00  -0.00  -0.00
     7   6    -0.03   0.01  -0.07    -0.03  -0.01  -0.00     0.00  -0.00  -0.00
     8   6    -0.01   0.00   0.00     0.00   0.00  -0.00     0.00  -0.00   0.00
     9   1     0.43   0.31   0.47     0.09  -0.01   0.00    -0.01  -0.00   0.00
    10   1     0.09  -0.49   0.50    -0.01  -0.04  -0.01    -0.00   0.00  -0.00
    11   1    -0.00   0.01   0.02    -0.00   0.00   0.01     0.00  -0.00  -0.00
    12   1     0.00  -0.01   0.00    -0.02  -0.00   0.01    -0.00   0.00   0.00
    13   1     0.03  -0.02  -0.01     0.07  -0.02  -0.00    -0.01   0.00  -0.00
    14   8     0.00  -0.00   0.00     0.00  -0.00   0.00    -0.00   0.00  -0.00
    15   1    -0.00  -0.00  -0.00    -0.01   0.00  -0.01     0.00  -0.00   0.00
                     34                     35                     36
                      A                      A                      A
 Frequencies --   3104.5684              3113.1687              3162.9886
 Red. masses --      1.0589                 1.0579                 1.1062
 Frc consts  --      6.0135                 6.0408                 6.5203
 IR Inten    --      0.4801                12.3646                 2.8261
  Atom  AN      X      Y      Z        X      Y      Z        X      Y      Z
     1   6    -0.00  -0.00  -0.00    -0.00  -0.00  -0.00    -0.00   0.00  -0.00
     2   1    -0.00  -0.00  -0.00    -0.00  -0.00  -0.00    -0.00  -0.00  -0.00
     3   6    -0.00  -0.00   0.00    -0.00   0.00  -0.00     0.00   0.00  -0.00
     4   6    -0.00  -0.00  -0.00    -0.00  -0.00  -0.00     0.00  -0.00   0.00
     5   8     0.00  -0.00   0.00     0.00   0.00   0.00    -0.00   0.00  -0.00
     6   8     0.00  -0.00   0.00     0.00  -0.00   0.00    -0.00   0.00   0.00
     7   6     0.01  -0.02   0.04     0.01  -0.02   0.04    -0.04  -0.08  -0.01
     8   6    -0.01   0.00  -0.05     0.01   0.00   0.04     0.01   0.04  -0.00
     9   1     0.07   0.49  -0.33     0.07   0.52  -0.35     0.05   0.35  -0.25
    10   1    -0.18  -0.26  -0.18    -0.17  -0.25  -0.17     0.39   0.55   0.41
    11   1    -0.08  -0.41   0.28     0.07   0.37  -0.25    -0.04  -0.26   0.18
    12   1     0.21   0.39   0.26    -0.22  -0.39  -0.27    -0.12  -0.20  -0.14
    13   1    -0.00  -0.00  -0.00    -0.00   0.00   0.01     0.00   0.01  -0.00
    14   8     0.00  -0.00   0.00    -0.00   0.00  -0.00     0.00  -0.00   0.00
    15   1    -0.00  -0.00   0.00     0.00  -0.00   0.00    -0.00  -0.00  -0.00
                     37                     38                     39
                      A                      A                      A
 Frequencies --   3188.6601              3487.6478              3802.8282
 Red. masses --      1.1091                 1.1701                 1.0671
 Frc consts  --      6.6440                 8.3854                 9.0923
 IR Inten    --      8.1781                60.3406                62.4081
  Atom  AN      X      Y      Z        X      Y      Z        X      Y      Z
     1   6    -0.00   0.00   0.00     0.01  -0.12   0.00     0.00   0.00  -0.00
     2   1     0.00  -0.00  -0.00    -0.07   0.99  -0.01     0.00  -0.00   0.00
     3   6    -0.00  -0.00   0.00    -0.00   0.04  -0.00     0.00   0.00  -0.00
     4   6     0.00  -0.00  -0.00    -0.00  -0.00  -0.00    -0.00  -0.00  -0.00
     5   8    -0.00   0.00  -0.00     0.00   0.00   0.00     0.00  -0.00   0.00
     6   8    -0.00   0.00  -0.00     0.00  -0.00   0.00     0.00   0.00  -0.00
     7   6    -0.02  -0.04  -0.00    -0.00  -0.00   0.00    -0.00  -0.00   0.00
     8   6    -0.03  -0.08   0.00    -0.00  -0.00  -0.00    -0.00   0.00  -0.00
     9   1     0.03   0.19  -0.14    -0.00   0.00  -0.00     0.00   0.00  -0.00
    10   1     0.17   0.25   0.19     0.00   0.00   0.00    -0.00  -0.00  -0.00
    11   1     0.09   0.53  -0.37     0.00   0.00  -0.00     0.00  -0.00   0.00
    12   1     0.26   0.46   0.33    -0.00   0.00   0.00     0.00  -0.00   0.00
    13   1    -0.00  -0.01  -0.00     0.00  -0.00   0.00     0.01  -0.01   0.01
    14   8    -0.00   0.00  -0.00    -0.00  -0.00   0.00    -0.03  -0.04   0.03
    15   1     0.00  -0.00   0.00     0.00   0.00  -0.00     0.51   0.69  -0.50

 -------------------
 - Thermochemistry -
 -------------------
 Temperature   298.150 Kelvin.  Pressure   1.00000 Atm.
 Atom     1 has atomic number  6 and mass  12.00000
 Atom     2 has atomic number  1 and mass   1.00783
 Atom     3 has atomic number  6 and mass  12.00000
 Atom     4 has atomic number  6 and mass  12.00000
 Atom     5 has atomic number  8 and mass  15.99491
 Atom     6 has atomic number  8 and mass  15.99491
 Atom     7 has atomic number  6 and mass  12.00000
 Atom     8 has atomic number  6 and mass  12.00000
 Atom     9 has atomic number  1 and mass   1.00783
 Atom    10 has atomic number  1 and mass   1.00783
 Atom    11 has atomic number  1 and mass   1.00783
 Atom    12 has atomic number  1 and mass   1.00783
 Atom    13 has atomic number  1 and mass   1.00783
 Atom    14 has atomic number  8 and mass  15.99491
 Atom    15 has atomic number  1 and mass   1.00783
 Molecular mass:   115.03952 amu.
 Principal axes and moments of inertia in atomic units:
                           1         2         3
     Eigenvalues --   541.059521792.312432191.32517
           X            0.99972   0.02198  -0.00851
           Y           -0.02199   0.99976  -0.00063
           Z            0.00849   0.00082   0.99996
 This molecule is an asymmetric top.
 Rotational symmetry number  1.
 Warning -- assumption of classical behavior for rotation
           may cause significant error
 Rotational temperatures (Kelvin)      0.16008     0.04833     0.03953
 Rotational constants (GHZ):           3.33557     1.00693     0.82358
    1 imaginary frequencies ignored.
 Zero-point vibrational energy     280180.2 (Joules/Mol)
                                   66.96467 (Kcal/Mol)
 Warning -- explicit consideration of  11 degrees of freedom as
           vibrations may cause significant error
 Vibrational temperatures:     56.90    76.94   128.40   156.35   219.97
          (Kelvin)            259.34   373.01   432.84   531.19   567.07
                              799.69   908.15  1059.10  1081.70  1105.76
                             1106.90  1118.47  1210.59  1304.49  1472.04
                             1589.14  1692.05  1706.51  1803.09  1871.53
                             1929.89  1986.59  2037.49  2124.59  2183.82
                             2688.24  3240.10  4466.78  4479.16  4550.84
                             4587.77  5017.95  5471.42
 
 Zero-point correction=                           0.106715 (Hartree/Particle)
 Thermal correction to Energy=                    0.116542
 Thermal correction to Enthalpy=                  0.117486
 Thermal correction to Gibbs Free Energy=         0.069718
 Sum of electronic and zero-point Energies=           -419.3381325
 Sum of electronic and thermal Energies=              -420.071866
 Sum of electronic and thermal Enthalpies=            -420.070922
 Sum of electronic and thermal Free Energies=         -420.118690
 
                     E (Thermal)             CV                S
                      KCal/Mol        Cal/Mol-Kelvin    Cal/Mol-Kelvin
 Total                   73.131             32.684            100.536
 Electronic               0.000              0.000              1.377
 Translational            0.889              2.981             40.136
 Rotational               0.889              2.981             29.143
 Vibrational             71.354             26.722             29.881
 Vibration     1          0.594              1.981              5.282
 Vibration     2          0.596              1.976              4.684
 Vibration     3          0.602              1.957              3.677
 Vibration     4          0.606              1.942              3.293
 Vibration     5          0.619              1.899              2.636
 Vibration     6          0.629              1.867              2.326
 Vibration     7          0.668              1.747              1.667
 Vibration     8          0.693              1.672              1.412
 Vibration     9          0.741              1.536              1.083
 Vibration    10          0.761              1.483              0.984
 Vibration    11          0.911              1.127              0.532
                       Q            Log10(Q)             Ln(Q)
 Total Bot       0.854579D-32        -32.068248        -73.839869
 Total V=0       0.104039D+18         17.017196         39.183542
 Vib (Bot)       0.168838D-45        -45.772530       -105.395146
 Vib (Bot)    1  0.523197D+01          0.718666          1.654789
 Vib (Bot)    2  0.386429D+01          0.587070          1.351779
 Vib (Bot)    3  0.230424D+01          0.362528          0.834751
 Vib (Bot)    4  0.188530D+01          0.275381          0.634087
 Vib (Bot)    5  0.132517D+01          0.122270          0.281538
 Vib (Bot)    6  0.111419D+01          0.046959          0.108127
 Vib (Bot)    7  0.749474D+00         -0.125244         -0.288384
 Vib (Bot)    8  0.631848D+00         -0.199387         -0.459107
 Vib (Bot)    9  0.493391D+00         -0.306809         -0.706454
 Vib (Bot)   10  0.454155D+00         -0.342796         -0.789316
 Vib (Bot)   11  0.280769D+00         -0.551651         -1.270224
 Vib (V=0)       0.205548D+04          3.312913          7.628265
 Vib (V=0)    1  0.575581D+01          0.760107          1.750210
 Vib (V=0)    2  0.439651D+01          0.643108          1.480810
 Vib (V=0)    3  0.285787D+01          0.456042          1.050075
 Vib (V=0)    4  0.245048D+01          0.389251          0.896282
 Vib (V=0)    5  0.191636D+01          0.282476          0.650425
 Vib (V=0)    6  0.172124D+01          0.235841          0.543043
 Vib (V=0)    7  0.140095D+01          0.146423          0.337151
 Vib (V=0)    8  0.130575D+01          0.115860          0.266777
 Vib (V=0)    9  0.120245D+01          0.080067          0.184360
 Vib (V=0)   10  0.117547D+01          0.070211          0.161666
 Vib (V=0)   11  0.107344D+01          0.030777          0.070866
 Electronic      0.200000D+01          0.301030          0.693147
 Translational   0.484981D+08          7.685724         17.697035
 Rotational      0.521829D+06          5.717528         13.165096
 ***** Axes restored to original set *****
 -------------------------------------------------------------------
 Center     Atomic                   Forces (Hartrees/Bohr)
 Number     Number              X              Y              Z
 -------------------------------------------------------------------
      1        6           0.000027353    0.000056047   -0.000011670
      2        1          -0.000007539    0.000070367   -0.000018075
      3        6           0.000005956   -0.000328384    0.000016367
      4        6          -0.000233602    0.000270868   -0.000111260
      5        8           0.000246823   -0.000101357    0.000081177
      6        8          -0.000044300    0.000020897   -0.000039198
      7        6           0.000000899    0.000035133   -0.000036639
      8        6          -0.000007637   -0.000003598    0.000009616
      9        1           0.000001053   -0.000147675    0.000110103
     10        1           0.000050366    0.000102272    0.000009155
     11        1           0.000042107    0.000075787   -0.000020393
     12        1          -0.000104483   -0.000052205    0.000000439
     13        1           0.000026437    0.000026231    0.000008811
     14        8          -0.000004761   -0.000018037    0.000003865
     15        1           0.000001328   -0.000006344   -0.000002298
 -------------------------------------------------------------------
 Cartesian Forces:  Max     0.000328384 RMS     0.000095771

 GradGradGradGradGradGradGradGradGradGradGradGradGradGradGradGradGradGrad
 Berny optimization.
 Search for a local minimum.
 Step number   1 out of a maximum of    2
 All quantities printed in internal units (Hartrees-Bohrs-Radians)
 Second derivative matrix not updated -- analytic derivatives used.
 ITU=  0
     Eigenvalues ---   -0.09753   0.00034   0.00057   0.00094   0.00202
     Eigenvalues ---    0.00321   0.00429   0.00537   0.01547   0.02068
     Eigenvalues ---    0.02739   0.03172   0.03699   0.05541   0.06212
     Eigenvalues ---    0.07472   0.07734   0.08558   0.08854   0.09045
     Eigenvalues ---    0.09171   0.13498   0.14781   0.17132   0.22276
     Eigenvalues ---    0.24234   0.27678   0.29005   0.44813   0.55923
     Eigenvalues ---    0.63294   0.72107   0.79756   0.84031   0.85916
     Eigenvalues ---    0.95248   0.96110   1.78458   2.70685
 Eigenvalue     1 is  -9.75D-02 should be greater than     0.000000 Eigenvector:
                          X13       X14       Z13       Z14       X12
   1                    0.67379  -0.56008   0.29633  -0.18088   0.14364
                          X15       X11       Y14       Y12       Y13
   1                   -0.11132   0.10290   0.09388  -0.08773  -0.08690
 Angle between quadratic step and forces=  85.96 degrees.
 Linear search not attempted -- first point.
 B after Tr=    -0.000917   -0.001616    0.000236
         Rot=    1.000000    0.000091   -0.000005    0.000015 Ang=   0.01 deg.
 Variable       Old X    -DE/DX   Delta X   Delta X   Delta X     New X
                                 (Linear)    (Quad)   (Total)
    X1        2.38356   0.00003   0.00000   0.02303   0.02224   2.40580
    Y1        4.25103   0.00006   0.00000   0.00021  -0.00150   4.24953
    Z1       -0.11208  -0.00001   0.00000  -0.00303  -0.00359  -0.11567
    X2        2.24121  -0.00001   0.00000   0.03332   0.03260   2.27381
    Y2        6.25885   0.00007   0.00000   0.00108  -0.00064   6.25821
    Z2       -0.14016  -0.00002   0.00000  -0.00592  -0.00685  -0.14700
    X3        2.55685   0.00001   0.00000   0.01105   0.01019   2.56704
    Y3        1.99209  -0.00033   0.00000  -0.00079  -0.00250   1.98959
    Z3       -0.07996   0.00002   0.00000  -0.00016  -0.00031  -0.08027
    X4        2.92068  -0.00023   0.00000  -0.00115  -0.00209   2.91859
    Y4       -0.75071   0.00027   0.00000  -0.00171  -0.00342  -0.75413
    Z4        0.01481  -0.00011   0.00000   0.00069   0.00103   0.01585
    X5        4.90531   0.00025   0.00000  -0.00519  -0.00616   4.89915
    Y5       -1.66945  -0.00010   0.00000  -0.01036  -0.01203  -1.68148
    Z5        0.56556   0.00008   0.00000   0.00222   0.00271   0.56827
    X6        0.92185  -0.00004   0.00000  -0.00694  -0.00793   0.91392
    Y6       -2.19213   0.00002   0.00000   0.00692   0.00517  -2.18696
    Z6       -0.56898  -0.00004   0.00000  -0.00054   0.00009  -0.56889
    X7       -1.50761   0.00000   0.00000  -0.00247  -0.00343  -1.51104
    Y7       -1.07900   0.00004   0.00000   0.01664   0.01488  -1.06412
    Z7       -1.06302  -0.00004   0.00000   0.00030   0.00074  -1.06227
    X8       -2.86269  -0.00001   0.00000  -0.00455  -0.00547  -2.86816
    Y8       -0.49577  -0.00000   0.00000   0.01254   0.01127  -0.48450
    Z8        1.38029   0.00001   0.00000   0.00002   0.00038   1.38067
    X9       -1.29606   0.00000   0.00000   0.00476   0.00384  -1.29222
    Y9        0.60560  -0.00015   0.00000   0.01946   0.01748   0.62308
    Z9       -2.23275   0.00011   0.00000   0.00660   0.00674  -2.22602
   X10       -2.51661   0.00005   0.00000  -0.00574  -0.00675  -2.52336
   Y10       -2.50860   0.00010   0.00000   0.02430   0.02237  -2.48623
   Z10       -2.14321   0.00001   0.00000  -0.00631  -0.00560  -2.14881
   X11       -3.16531   0.00004   0.00000   0.00609   0.00513  -3.16018
   Y11       -2.17047   0.00008   0.00000   0.01201   0.01095  -2.15951
   Z11        2.53904  -0.00002   0.00000   0.00171   0.00237   2.54141
   X12       -2.00483  -0.00010   0.00000  -0.01419  -0.01505  -2.01987
   Y12        1.03193  -0.00005   0.00000   0.01842   0.01731   1.04924
   Z12        2.46401   0.00000   0.00000  -0.00095  -0.00088   2.46313
   X13       -4.87257   0.00003   0.00000  -0.00975  -0.01065  -4.88322
   Y13        0.29043   0.00003   0.00000  -0.00047  -0.00179   0.28863
   Z13        0.77522   0.00001   0.00000   0.00030   0.00054   0.77576
   X14       -7.20115  -0.00000   0.00000  -0.01585  -0.01675  -7.21790
   Y14        0.73537  -0.00002   0.00000  -0.03066  -0.03209   0.70328
   Z14       -0.22513   0.00000   0.00000   0.00170   0.00189  -0.22324
   X15       -8.14388   0.00000   0.00000   0.00119   0.00026  -8.14361
   Y15       -0.53907  -0.00001   0.00000  -0.04423  -0.04547  -0.58455
   Z15        0.69747  -0.00000   0.00000   0.00033   0.00076   0.69823
         Item               Value     Threshold  Converged?
 Maximum Force            0.000328     0.000450     YES
 RMS     Force            0.000096     0.000300     YES
 Maximum Displacement     0.045473     0.001800     NO 
 RMS     Displacement     0.012943     0.001200     NO 
 Predicted change in Energy=-1.986725D-06
 GradGradGradGradGradGradGradGradGradGradGradGradGradGradGradGradGradGrad


 ----------------------------------------------------------------------

 Electric dipole moment (input orientation):
 (Debye = 10**-18 statcoulomb cm , SI units = C m)
                  (au)            (Debye)         (10**-30 SI)
   Tot        0.146917D+01      0.373426D+01      0.124562D+02
   x         -0.130464D+01     -0.331607D+01     -0.110612D+02
   y          0.651906D+00      0.165698D+01      0.552709D+01
   z          0.177187D+00      0.450366D+00      0.150226D+01

 Dipole polarizability, Alpha (input orientation).
 (esu units = cm**3 , SI units = C**2 m**2 J**-1)
 Alpha(0;0):
               (au)            (10**-24 esu)      (10**-40 SI)
   iso        0.774951D+02      0.114836D+02      0.127772D+02
   aniso      0.474677D+02      0.703399D+01      0.782637D+01
   xx         0.102263D+03      0.151539D+02      0.168610D+02
   yx        -0.595238D+01     -0.882052D+00     -0.981415D+00
   yy         0.788266D+02      0.116809D+02      0.129968D+02
   zx         0.794698D+01      0.117762D+01      0.131028D+01
   zy        -0.206221D+01     -0.305589D+00     -0.340013D+00
   zz         0.513952D+02      0.761598D+01      0.847392D+01

 ----------------------------------------------------------------------

 Dipole orientation:
     6          2.10149580          4.39197454         -0.24386674
     1          2.74038141          6.00942372          0.77006795
     6          1.38706165          2.57660933         -1.39621851
     6          0.61459369          0.40159373         -2.92491926
     8          1.36866529          0.09774459         -5.02853440
     8         -1.00291396         -1.23035991         -1.85993772
     6         -1.77008314         -0.94784730          0.73179118
     6          0.20316221         -2.02772200          2.48858893
     1         -2.15379157          1.03419499          1.15035817
     1         -3.53095933         -2.00175016          0.86317499
     1          0.55361864         -4.02874783          2.15396232
     1          1.95688379         -0.94766385          2.53536892
     1         -0.65323737         -1.81789839          4.54926400
     8         -2.07506843         -1.82603831          6.69385230
     1         -1.98325132         -3.61742591          7.07677338

 Electric dipole moment (dipole orientation):
 (Debye = 10**-18 statcoulomb cm , SI units = C m)
                  (au)            (Debye)         (10**-30 SI)
   Tot        0.146917D+01      0.373426D+01      0.124562D+02
   x          0.000000D+00      0.000000D+00      0.000000D+00
   y          0.000000D+00      0.000000D+00      0.000000D+00
   z          0.146917D+01      0.373426D+01      0.124562D+02

 Dipole polarizability, Alpha (dipole orientation).
 (esu units = cm**3 , SI units = C**2 m**2 J**-1)
 Alpha(0;0):
               (au)            (10**-24 esu)      (10**-40 SI)
   iso        0.774951D+02      0.114836D+02      0.127772D+02
   aniso      0.474677D+02      0.703399D+01      0.782637D+01
   xx         0.609067D+02      0.902544D+01      0.100422D+02
   yx         0.113097D+02      0.167592D+01      0.186472D+01
   yy         0.719016D+02      0.106547D+02      0.118550D+02
   zx        -0.149113D+02     -0.220963D+01     -0.245854D+01
   zy         0.124767D+01      0.184885D+00      0.205713D+00
   zz         0.996770D+02      0.147706D+02      0.164345D+02

 ----------------------------------------------------------------------
 1\1\GINC-AJ\Freq\UM062X\6-311++G(d,p)\C5H7O3(2)\AAYUSH\02-Apr-2025\0\\
 # freq 6-311++g(d,p) m062x\\Title Card Required\\0,2\C,1.26132657,2.24
 954891,-0.05930978\H,1.18599957,3.31203991,-0.07416778\C,1.35302557,1.
 05416791,-0.04231478\C,1.54555657,-0.39726109,0.00783922\O,2.59577657,
 -0.88343509,0.29928122\O,0.48782457,-1.16002609,-0.30108878\C,-0.79779
 143,-0.57098309,-0.56252378\C,-1.51487243,-0.26235009,0.73041822\H,-0.
 68584543,0.32047091,-1.18152078\H,-1.33173243,-1.32749509,-1.13413678\
 H,-1.67500943,-1.14856209,1.34360422\H,-1.06090843,0.54607391,1.303898
 22\H,-2.57845443,0.15368691,0.41022822\O,-3.81068343,0.38914091,-0.119
 13178\H,-4.30955343,-0.28526609,0.36908522\\Version=ES64L-G16RevA.03\S
 tate=2-A\HF=-420.1884086\S2=0.758826\S2-1=0.\S2A=0.750038\RMSD=4.111e-
 09\RMSF=9.577e-05\ZeroPoint=0.106715\Thermal=0.1165423\Dipole=-1.30464
 18,0.6519056,0.1771875\DipoleDeriv=-0.1654794,0.0115451,-0.003421,-0.0
 082126,-0.2213254,0.0065812,0.0038842,-0.0017055,-0.1220161,0.2234623,
 -0.0038127,0.0047206,0.0179573,0.2697868,0.0000639,0.0028044,-0.003171
 8,0.200068,-0.1611712,-0.0365354,-0.0102756,-0.0703204,-0.5888258,-0.0
 040174,-0.0147915,0.0079827,-0.1059122,2.4409614,0.0217489,0.3990334,0
 .5362415,1.7606538,0.0442171,0.5619843,-0.0163135,0.5257287,-1.3778604
 ,0.2707613,-0.1920634,0.3103676,-0.8250158,0.0837898,-0.2834618,0.0777
 783,-0.4150423,-1.9099588,-0.162894,-0.1994367,-0.544682,-0.6735728,-0
 .1161963,-0.2016314,-0.0918373,-0.3956861,0.8498239,-0.0106279,-0.0242
 53,-0.2106956,0.2388048,-0.0094476,-0.2767447,0.0779846,0.2863388,0.93
 25477,-0.179155,0.2268165,-0.3224527,0.1320622,-0.1140105,0.3383064,-0
 .1106317,0.0005449,-0.0253058,-0.0139883,0.0459659,0.0399831,-0.008056
 1,0.0717423,0.0464389,0.0530922,0.0133076,-0.0242171,-0.0256346,-0.022
 7722,-0.0344538,-0.0052796,-0.0745925,-0.0051844,-0.0414784,0.0344066,
 -0.0709729,0.0238425,-0.0178183,-0.0141918,-0.0250503,0.0767773,0.0239
 072,0.037505,0.0102456,-0.0718657,-0.0254915,-0.0736175,0.0711992,-0.0
 114364,-0.024056,-0.015384,-0.0416486,0.0197073,-1.2932928,0.2507324,-
 0.3183563,0.321517,0.0547176,0.1002148,-0.4933065,0.1157754,-0.0078055
 ,0.2123201,-0.0613219,0.1354035,-0.1298845,-0.308867,-0.1399389,0.3260
 766,-0.1546466,-0.3034967,0.4410088,-0.0591688,0.0500741,0.0376277,0.2
 114041,0.0988728,-0.0128979,0.0913152,0.2596113\Polar=102.2634442,-5.9
 523786,78.8266314,7.9469844,-2.0622138,51.3952023\Quadrupole=-5.413304
 6,4.0515627,1.361742,9.1841163,-4.0396059,-0.0969922\PG=C01 [X(C5H7O3)
 ]\NImag=1\\0.06517918,-0.11359959,1.55468305,-0.00021768,-0.02145770,0
 .06114121,-0.02880544,0.02777872,0.00056332,0.01850462,0.02850674,-0.4
 2141790,0.00559807,-0.02818432,0.41186993,0.00059148,0.00553291,-0.029
 84513,-0.00003429,-0.00556669,0.01792431,-0.03804801,0.08561226,0.0001
 1839,0.00466575,-0.00037596,-0.00095695,0.12146721,0.08390902,-1.13341
 606,0.01526485,-0.00054341,0.00985278,-0.00019666,-0.10641307,1.448294
 59,0.00009305,0.01615679,-0.03427558,-0.00099481,-0.00004853,0.0078218
 8,0.01485077,-0.02111915,0.06462855,0.00267018,0.00249897,-0.00022085,
 0.00599823,-0.00014346,-0.00009391,-0.06521717,-0.00250107,0.00415693,
 0.89961798,0.00182648,0.00854587,0.00098514,0.00190413,-0.00118862,0.0
 0041954,0.01027925,-0.24005049,0.00285410,-0.18910419,0.64341835,-0.00
 058593,0.00059919,0.00324402,0.00015525,-0.00005190,0.00581550,0.00334
 083,-0.00067620,-0.07428148,0.19191704,-0.05007068,0.25611477,0.001366
 83,-0.00192456,0.00031681,0.00019375,0.00003596,0.00042583,-0.01782721
 ,0.04545285,-0.01169840,-0.61699953,0.26312083,-0.14921556,0.73885282,
 -0.00037235,-0.00377851,-0.00018750,-0.00181912,0.00051788,-0.00049215
 ,0.04975325,-0.03821247,0.01362697,0.27206041,-0.23062209,0.07521017,-
 0.29503509,0.23825592,0.00043357,-0.00053299,0.00014406,0.00035117,0.0
 0001501,-0.00100418,-0.01157346,0.01236464,0.02030079,-0.14881234,0.07
 281672,-0.11791790,0.19622872,-0.08155004,0.08611664,0.00061474,-0.002
 32050,-0.00016708,-0.00057001,0.00049180,0.00026025,-0.00095549,-0.017
 65171,-0.00706766,-0.18704316,-0.09720195,-0.03655926,-0.10827220,-0.0
 2123684,-0.03599168,0.54065626,0.00177799,-0.00415459,0.00029607,0.001
 07649,0.00037425,0.00037002,-0.03126654,-0.04134299,-0.00874687,-0.069
 32829,-0.19603387,-0.02214014,-0.00538272,0.03516290,-0.00121968,0.035
 92289,0.32574549,0.00020161,-0.00032986,0.00012054,0.00001384,0.000066
 58,-0.00079536,-0.00530892,-0.00508695,0.01595562,-0.04003688,-0.03185
 285,-0.06117090,-0.03376685,-0.00501597,0.00701560,0.11862436,0.020610
 27,0.09347218,-0.00215848,0.00284411,-0.00055690,0.00001192,-0.0002501
 5,-0.00017349,-0.00015471,0.00123664,0.00029035,-0.04841230,-0.0069384
 7,-0.01205947,0.01003117,-0.00158641,0.00180923,-0.16352083,0.04245299
 ,-0.02292357,0.46095820,0.00000195,-0.00056201,0.00005482,-0.00006066,
 -0.00000021,-0.00005575,-0.00516355,-0.00458607,-0.00247387,-0.0092860
 7,0.02143865,-0.00206937,-0.00979309,-0.00190114,-0.00261557,0.0601562
 5,-0.11994444,0.01465360,0.08652593,0.61983398,-0.00131871,-0.00000258
 ,-0.00097664,-0.00006774,0.00009363,0.00001792,-0.00024429,-0.00083845
 ,0.00084960,-0.01003097,0.00072730,-0.01338355,-0.00113439,-0.00121830
 ,0.00589702,-0.03027777,0.01234925,-0.06196046,0.01945717,-0.00255389,
 0.55023090,0.00019055,0.00018830,0.00013928,-0.00001967,-0.00025856,0.
 00007978,-0.00061480,-0.00009841,-0.00017089,-0.00266207,0.00082746,0.
 00323470,0.00071007,-0.00024027,-0.00104263,-0.03285371,0.01598845,0.0
 2215991,-0.08520063,-0.00159066,0.05619529,0.35647688,-0.00014097,0.00
 013152,-0.00009110,0.00000738,0.00006909,0.00004446,-0.00027350,0.0000
 0425,-0.00027535,0.00015613,0.00002030,0.00037703,-0.00018961,0.000081
 71,0.00023293,0.01523936,-0.00348101,-0.00977272,-0.00005861,-0.090131
 03,-0.02318027,0.08442954,0.56949482,0.00043626,-0.00029863,-0.0003003
 1,-0.00006855,-0.00013103,0.00008057,0.00068053,0.00054898,-0.00062668
 ,-0.00013896,0.00219550,0.00175720,-0.00064016,-0.00025897,-0.00075188
 ,0.00052728,-0.00238321,0.00895939,0.06157095,-0.02584354,-0.19232263,
 -0.01454019,0.00073488,0.51571342,-0.00041571,-0.00055403,-0.00019853,
 -0.00000388,-0.00006251,-0.00002545,-0.00197388,-0.00168353,-0.0005748
 6,0.00609447,0.00663751,0.00003942,-0.00220604,-0.00103265,-0.00006394
 ,-0.01221867,0.03154376,-0.02256095,-0.05520913,-0.03599388,0.02215558
 ,-0.00057914,-0.01385256,0.00932860,0.06678221,-0.00110041,-0.00034431
 ,-0.00064622,-0.00011703,-0.00005629,-0.00006819,-0.00150482,-0.000326
 93,-0.00039618,-0.00335037,-0.00115645,-0.00089869,0.00082133,0.000097
 14,-0.00004505,0.00918171,-0.01121688,0.00734796,-0.02647097,-0.230789
 55,0.12407814,0.00076552,0.00890663,-0.00535545,0.02482188,0.24978008,
 0.00046293,-0.00006527,0.00016650,-0.00002645,-0.00011023,0.00003613,-
 0.00082385,-0.00040145,-0.00034695,0.00155856,0.00314644,0.00070807,-0
 .00045867,-0.00068813,-0.00008442,-0.00527664,0.00382340,-0.00196595,0
 .01811088,0.12096803,-0.13646920,0.00542166,0.02380793,-0.01595692,-0.
 01973933,-0.13471032,0.14502297,0.00005885,-0.00032455,-0.00002293,-0.
 00003726,0.00002621,-0.00000083,0.00006627,-0.00039656,0.00016165,0.00
 037954,0.00526603,-0.00215682,-0.00310261,-0.00047776,-0.00029850,-0.0
 3359495,-0.02003506,-0.01817681,-0.10536568,-0.09132504,-0.06507690,0.
 00984964,0.01283489,0.00954879,-0.00010194,-0.00325910,-0.00120634,0.1
 3230106,-0.00039112,0.00030654,-0.00016797,-0.00001919,0.00005701,-0.0
 0001012,-0.00004210,-0.00008318,-0.00018798,0.00058647,-0.00225296,0.0
 0115694,0.00174334,0.00035099,0.00004933,0.01605782,0.01213030,0.01015
 014,-0.10292927,-0.19457908,-0.10379683,-0.00222967,-0.00299598,-0.002
 48808,-0.01180171,-0.01590441,-0.01390740,0.09781697,0.20107383,0.0003
 4683,-0.00000400,0.00022013,0.00001980,-0.00002404,-0.00000503,0.00003
 246,0.00032327,-0.00003929,0.00161634,0.00176685,0.00011592,-0.0007182
 6,-0.00011782,-0.00006902,-0.00797585,-0.00294164,-0.00172841,-0.06787
 320,-0.09907022,-0.12533978,-0.01256837,-0.02231033,-0.01618806,0.0096
 3426,0.01238486,0.01145841,0.07463992,0.10973842,0.13406997,-0.0001871
 1,0.00012479,0.00005210,0.00000724,0.00005181,-0.00001429,-0.00005582,
 -0.00007869,0.00006422,0.00009084,-0.00069708,0.00004893,-0.00019350,0
 .00022418,-0.00007309,0.00180700,-0.00042111,-0.00127246,-0.00270688,-
 0.01383396,0.01029110,-0.04015295,-0.03357057,0.02193133,-0.00100634,0
 .00130294,0.00278684,0.00031296,0.00052748,-0.00057469,0.04447219,-0.0
 0013351,0.00014609,0.00007954,0.00004933,0.00003330,-0.00001402,-0.000
 13906,-0.00009406,0.00015843,0.00020722,-0.00048592,0.00024466,-0.0001
 4252,0.00021263,-0.00013673,-0.00131870,0.00053084,0.00006003,0.002244
 55,0.00811225,-0.00584305,-0.03828656,-0.23827028,0.12674350,0.0014330
 2,0.00040392,-0.00187161,-0.00044567,0.00072297,0.00056435,0.03801262,
 0.24988032,-0.00008363,0.00008398,0.00014498,0.00002934,0.00000453,-0.
 00002876,-0.00016612,-0.00020299,0.00004519,0.00002234,-0.00017289,-0.
 00008314,0.00015525,0.00005120,0.00000987,-0.00097398,-0.00073699,0.00
 231697,0.00226684,0.02548870,-0.01637736,0.02562587,0.12465137,-0.1347
 8785,0.00292456,-0.00242473,-0.00385910,-0.00062320,0.00005655,0.00091
 561,-0.02773720,-0.13673895,0.14427809,-0.00041138,-0.00006749,0.00009
 787,0.00009623,-0.00001734,-0.00003951,-0.00107030,-0.00064739,0.00085
 988,0.00036554,0.00073447,0.00015578,-0.00023831,-0.00017605,-0.000064
 45,0.00162345,-0.00127513,-0.00168044,0.00849667,0.01444781,0.01039844
 ,-0.08706793,-0.09770058,-0.06154096,0.00025855,-0.00040976,-0.0009141
 0,-0.00144088,0.00057686,0.00345909,-0.00052012,-0.00086838,-0.0015401
 8,0.09381209,-0.00033024,-0.00020261,0.00028133,-0.00006550,-0.0000424
 1,0.00001002,-0.00047888,-0.00030517,0.00036258,-0.00002574,-0.0000364
 4,-0.00074250,0.00037366,-0.00020765,0.00023691,-0.00003528,0.00063110
 ,0.00065276,-0.00257288,-0.00322941,-0.00311341,-0.09299712,-0.1991967
 3,-0.10636471,0.00066621,0.00037237,0.00002832,0.00061771,0.00121926,-
 0.00045283,-0.01073134,-0.01476075,-0.01394462,0.09897920,0.21165042,-
 0.00027227,0.00029881,0.00015725,0.00006300,0.00009581,0.00000266,0.00
 012316,0.00009298,-0.00007660,-0.00024235,-0.00223305,-0.00018635,0.00
 034898,0.00054483,0.00002574,0.00104913,0.00201303,0.00188030,-0.01569
 002,-0.02054362,-0.01385871,-0.05610731,-0.10766098,-0.12422374,-0.000
 52339,0.00026963,0.00096595,0.00365805,-0.00053543,-0.00391981,0.00830
 888,0.01328016,0.01108961,0.06267326,0.11819175,0.13171968,-0.00011786
 ,-0.00043942,0.00020550,-0.00008793,0.00034590,-0.00006776,-0.00052303
 ,-0.00115222,0.00007453,0.00905878,0.00593727,0.00281563,-0.00416171,-
 0.00013815,-0.00150648,-0.00936567,-0.00230178,0.00682359,-0.02146226,
 0.00746982,-0.01523454,-0.02283780,-0.00336037,0.00137414,-0.00007024,
 -0.00068091,0.00035735,0.00020881,0.00061584,0.00023143,-0.00744785,-0
 .00050699,-0.00042132,-0.01984307,0.01095666,-0.00424041,0.00397144,0.
 00008300,-0.00002645,-0.00002354,-0.00007744,-0.00007267,0.00002900,0.
 00004910,0.00020124,0.00008314,-0.00169421,-0.00119319,-0.00095991,0.0
 0089462,-0.00007910,0.00039667,0.00226472,0.00132524,-0.00169658,0.006
 91231,-0.00338690,0.00344944,0.01591640,-0.03874907,0.00742683,-0.0003
 4151,0.00030030,0.00014631,0.00008102,-0.00035398,-0.00010281,0.018981
 18,-0.00689011,0.00417036,-0.01297809,0.00301257,-0.00439746,0.0010404
 4,0.04976493,-0.00011876,-0.00006217,0.00006286,-0.00000830,0.00013458
 ,-0.00000360,-0.00016367,-0.00032835,-0.00000422,0.00204928,0.00068616
 ,-0.00009317,-0.00073738,0.00004643,0.00001302,0.00230033,-0.00206935,
 -0.00173019,0.01335491,-0.00524492,0.00196200,0.01074201,-0.00156956,-
 0.03058523,0.00001867,0.00046344,0.00031858,-0.00037690,-0.00030590,0.
 00047701,-0.01526885,0.00385116,-0.00405130,-0.01425670,0.00630729,-0.
 00378178,-0.02620900,-0.00048778,0.03223270,0.00000729,0.00011241,-0.0
 0008410,0.00005014,-0.00008280,0.00003471,0.00015819,0.00034689,-0.000
 02292,-0.00235159,-0.00173530,-0.00080512,0.00107820,0.00011373,0.0004
 0946,0.00185141,0.00083457,-0.00178090,0.00586491,-0.00176157,0.003782
 11,-0.09142203,0.03671118,-0.02892369,0.00034569,-0.00000034,-0.000031
 59,0.00050811,-0.00049980,-0.00033978,0.00454773,-0.00043735,0.0007380
 7,0.00533236,-0.00427707,0.00063730,0.07415627,-0.02093167,0.02146708,
 0.15053476,-0.00004345,0.00007539,0.00003655,0.00007563,0.00001593,-0.
 00001684,-0.00006131,0.00003739,0.00001240,0.00045720,-0.00011466,0.00
 021378,-0.00025405,0.00014650,-0.00012213,-0.00027895,0.00035691,0.000
 74156,-0.00235894,-0.00018731,-0.00169311,0.02132379,-0.00829596,0.008
 77451,0.00030000,-0.00008278,-0.00013571,-0.00054946,0.00041350,0.0004
 6734,-0.00025516,0.00051762,-0.00052137,-0.00090573,0.00161109,0.00054
 119,-0.02477830,-0.00448859,-0.00381524,0.17704864,0.26434366,0.000030
 15,0.00011001,0.00000201,0.00001443,-0.00009046,-0.00002933,0.00011081
 ,0.00032565,0.00006651,-0.00209010,-0.00154715,-0.00075799,0.00106396,
 0.00007712,0.00038338,0.00184194,0.00098881,-0.00037656,0.00237704,-0.
 00112394,0.00192020,-0.04130393,0.01820638,-0.01131779,-0.00039847,0.0
 0007426,0.00008597,-0.00027317,0.00036390,0.00019378,0.00145671,-0.000
 64245,0.00025836,0.00330000,-0.00199104,0.00016450,0.04281896,-0.00633
 640,0.00321854,-0.12645226,-0.19180829,0.14447553,0.00005637,0.0000705
 7,-0.00002521,-0.00000368,-0.00008333,0.00001442,0.00008300,0.00022066
 ,-0.00002181,-0.00158976,-0.00085645,-0.00032543,0.00076828,-0.0000368
 9,0.00019440,0.00184181,0.00041348,-0.00031553,-0.00117198,0.00020672,
 0.00110561,-0.00381642,-0.00023171,0.00045463,0.00030407,0.00000033,-0
 .00022126,-0.00004194,-0.00001192,0.00007002,0.00103261,0.00033202,-0.
 00021662,0.00060708,-0.00007939,0.00021399,-0.00147787,-0.01019988,0.0
 0720727,-0.15066144,-0.16971990,0.11750394,0.15406987,0.00000647,0.000
 01398,-0.00002235,-0.00000502,-0.00001207,0.00001447,0.00002494,0.0000
 2716,-0.00000649,-0.00053300,-0.00028848,-0.00019238,0.00027905,-0.000
 02470,0.00010996,0.00072937,-0.00008324,-0.00052797,0.00094917,-0.0000
 8774,0.00154213,-0.00373819,0.00241173,-0.00330058,-0.00008000,0.00001
 717,-0.00003030,0.00017036,-0.00010481,-0.00022139,0.00036291,-0.00005
 882,0.00023585,0.00030760,-0.00051563,0.00004236,0.00699221,0.00063577
 ,0.00239424,-0.18544154,-0.25434871,0.18339360,0.17997567,0.25241839,0
 .00000110,-0.00002848,-0.00000589,-0.00001001,0.00001467,0.00001242,-0
 .00001967,-0.00007016,-0.00001734,0.00034586,0.00027889,0.00011901,-0.
 00016989,-0.00002783,-0.00007872,-0.00031337,-0.00021296,0.00000721,0.
 00003928,0.00042954,-0.00018931,0.00213481,-0.00319469,0.00055049,-0.0
 0001616,-0.00007348,-0.00008006,0.00020400,-0.00011557,-0.00016144,0.0
 0000045,0.00026499,0.00012883,-0.00090798,0.00053814,0.00004128,-0.007
 02163,-0.00169727,0.00196478,0.13137163,0.18732536,-0.13828712,-0.1256
 3842,-0.18343115,0.13599585\\-0.00002735,-0.00005605,0.00001167,0.0000
 0754,-0.00007037,0.00001808,-0.00000596,0.00032838,-0.00001637,0.00023
 360,-0.00027087,0.00011126,-0.00024682,0.00010136,-0.00008118,0.000044
 30,-0.00002090,0.00003920,-0.00000090,-0.00003513,0.00003664,0.0000076
 4,0.00000360,-0.00000962,-0.00000105,0.00014768,-0.00011010,-0.0000503
 7,-0.00010227,-0.00000915,-0.00004211,-0.00007579,0.00002039,0.0001044
 8,0.00005221,-0.00000044,-0.00002644,-0.00002623,-0.00000881,0.0000047
 6,0.00001804,-0.00000386,-0.00000133,0.00000634,0.00000230\\\@


 A MAN IS NEVER SO BRILLIANT AS WHEN HE TAKES THE WORDS RIGHT OUT
 OF YOUR MOUTH. -- ARNOT SHEPPARD, JR.
 Job cpu time:       0 days  1 hours 37 minutes 48.7 seconds.
 Elapsed time:       0 days  0 hours  4 minutes  4.7 seconds.
 File lengths (MBytes):  RWF=    153 Int=      0 D2E=      0 Chk=      6 Scr=      1
 Normal termination of Gaussian 16 at Wed Apr  2 08:06:15 2025.
