 Entering Gaussian System, Link 0=g16
 Initial command:
 /opt/g16/l1.exe "/home/aayush/Research/ts10_irc_points/Gau-6840.inp" -scrdir="/home/aayush/Research/ts10_irc_points/"
 Entering Link 1 = /opt/g16/l1.exe PID=      6843.
  
 Copyright (c) 1988,1990,1992,1993,1995,1998,2003,2009,2016,
            Gaussian, Inc.  All Rights Reserved.
  
 This is part of the Gaussian(R) 16 program.  It is based on
 the Gaussian(R) 09 system (copyright 2009, Gaussian, Inc.),
 the Gaussian(R) 03 system (copyright 2003, Gaussian, Inc.),
 the Gaussian(R) 98 system (copyright 1998, Gaussian, Inc.),
 the Gaussian(R) 94 system (copyright 1995, Gaussian, Inc.),
 the Gaussian 92(TM) system (copyright 1992, Gaussian, Inc.),
 the Gaussian 90(TM) system (copyright 1990, Gaussian, Inc.),
 the Gaussian 88(TM) system (copyright 1988, Gaussian, Inc.),
 the Gaussian 86(TM) system (copyright 1986, Carnegie Mellon
 University), and the Gaussian 82(TM) system (copyright 1983,
 Carnegie Mellon University). Gaussian is a federally registered
 trademark of Gaussian, Inc.
  
 This software contains proprietary and confidential information,
 including trade secrets, belonging to Gaussian, Inc.
  
 This software is provided under written license and may be
 used, copied, transmitted, or stored only in accord with that
 written license.
  
 The following legend is applicable only to US Government
 contracts under FAR:
  
                    RESTRICTED RIGHTS LEGEND
  
 Use, reproduction and disclosure by the US Government is
 subject to restrictions as set forth in subparagraphs (a)
 and (c) of the Commercial Computer Software - Restricted
 Rights clause in FAR 52.227-19.
  
 Gaussian, Inc.
 340 Quinnipiac St., Bldg. 40, Wallingford CT 06492
  
  
 ---------------------------------------------------------------
 Warning -- This program may not be used in any manner that
 competes with the business of Gaussian, Inc. or will provide
 assistance to any competitor of Gaussian, Inc.  The licensee
 of this program is prohibited from giving any competitor of
 Gaussian, Inc. access to this program.  By using this program,
 the user acknowledges that Gaussian, Inc. is engaged in the
 business of creating and licensing software in the field of
 computational chemistry and represents and warrants to the
 licensee that it is not a competitor of Gaussian, Inc. and that
 it will not use this program in any manner prohibited above.
 ---------------------------------------------------------------
  

 Cite this work as:
 Gaussian 16, Revision A.03,
 M. J. Frisch, G. W. Trucks, H. B. Schlegel, G. E. Scuseria, 
 M. A. Robb, J. R. Cheeseman, G. Scalmani, V. Barone, 
 G. A. Petersson, H. Nakatsuji, X. Li, M. Caricato, A. V. Marenich, 
 J. Bloino, B. G. Janesko, R. Gomperts, B. Mennucci, H. P. Hratchian, 
 J. V. Ortiz, A. F. Izmaylov, J. L. Sonnenberg, D. Williams-Young, 
 F. Ding, F. Lipparini, F. Egidi, J. Goings, B. Peng, A. Petrone, 
 T. Henderson, D. Ranasinghe, V. G. Zakrzewski, J. Gao, N. Rega, 
 G. Zheng, W. Liang, M. Hada, M. Ehara, K. Toyota, R. Fukuda, 
 J. Hasegawa, M. Ishida, T. Nakajima, Y. Honda, O. Kitao, H. Nakai, 
 T. Vreven, K. Throssell, J. A. Montgomery, Jr., J. E. Peralta, 
 F. Ogliaro, M. J. Bearpark, J. J. Heyd, E. N. Brothers, K. N. Kudin, 
 V. N. Staroverov, T. A. Keith, R. Kobayashi, J. Normand, 
 K. Raghavachari, A. P. Rendell, J. C. Burant, S. S. Iyengar, 
 J. Tomasi, M. Cossi, J. M. Millam, M. Klene, C. Adamo, R. Cammi, 
 J. W. Ochterski, R. L. Martin, K. Morokuma, O. Farkas, 
 J. B. Foresman, and D. J. Fox, Gaussian, Inc., Wallingford CT, 2016.
 
 ******************************************
 Gaussian 16:  ES64L-G16RevA.03 25-Dec-2016
                 2-Apr-2025 
 ******************************************
 %chk=ethyl_propiolate.chk
 %nprocshared=24
 Will use up to   24 processors via shared memory.
 %mem=12GB
 --------------------------
 # freq 6-311++g(d,p) m062x
 --------------------------
 1/10=4,30=1,38=1/1,3;
 2/12=2,17=6,18=5,40=1/2;
 3/5=4,6=6,7=1111,11=2,25=1,30=1,71=2,74=-55,140=1/1,2,3;
 4//1;
 5/5=2,38=5,98=1/2;
 8/6=4,10=90,11=11/1;
 11/6=1,8=1,9=11,15=111,16=1/1,2,10;
 10/6=1/2;
 6/7=2,8=2,9=2,10=2,28=1/1;
 7/8=1,10=1,25=1/1,2,3,16;
 1/10=4,30=1/3;
 99//99;
 -------------------
 Title Card Required
 -------------------
 Symbolic Z-matrix:
 Charge =  0 Multiplicity = 2
 C                     1.26127   2.24954  -0.05929 
 H                     1.18595   3.31212  -0.07433 
 C                     1.35296   1.05415  -0.04229 
 C                     1.54601  -0.39673   0.00805 
 O                     2.59556  -0.88355   0.29918 
 O                     0.48711  -1.16011  -0.30053 
 C                    -0.79942  -0.57035  -0.56362 
 C                    -1.5133   -0.26365   0.7298 
 H                    -0.68639   0.321    -1.18192 
 H                    -1.33254  -1.32752  -1.13458 
 H                    -1.69393  -1.14546   1.34246 
 H                    -1.08783   0.56183   1.2992 
 H                    -2.69812   0.17355   0.35273 
 O                    -3.79953   0.38674  -0.11431 
 H                    -4.3087   -0.28125   0.3668 
 

 GradGradGradGradGradGradGradGradGradGradGradGradGradGradGradGradGradGrad
 Berny optimization.
 Initialization pass.
 Trust Radius=3.00D-01 FncErr=1.00D-07 GrdErr=1.00D-07 EigMax=2.50D+02 EigMin=1.00D-04
 Number of steps in this run=      2 maximum allowed number of steps=      2.
 GradGradGradGradGradGradGradGradGradGradGradGradGradGradGradGradGradGrad

                          Input orientation:                          
 ---------------------------------------------------------------------
 Center     Atomic      Atomic             Coordinates (Angstroms)
 Number     Number       Type             X           Y           Z
 ---------------------------------------------------------------------
      1          6           0        1.261272    2.249536   -0.059292
      2          1           0        1.185951    3.312118   -0.074334
      3          6           0        1.352964    1.054153   -0.042285
      4          6           0        1.546014   -0.396731    0.008049
      5          8           0        2.595556   -0.883549    0.299176
      6          8           0        0.487107   -1.160108   -0.300525
      7          6           0       -0.799420   -0.570351   -0.563623
      8          6           0       -1.513297   -0.263649    0.729795
      9          1           0       -0.686388    0.320997   -1.181920
     10          1           0       -1.332535   -1.327518   -1.134580
     11          1           0       -1.693925   -1.145456    1.342456
     12          1           0       -1.087827    0.561834    1.299199
     13          1           0       -2.698116    0.173546    0.352728
     14          8           0       -3.799534    0.386739   -0.114307
     15          1           0       -4.308705   -0.281250    0.366796
 ---------------------------------------------------------------------
                    Distance matrix (angstroms):
                    1          2          3          4          5
     1  C    0.000000
     2  H    1.065354   0.000000
     3  C    1.199015   2.264360   0.000000
     4  C    2.662394   3.727196   1.464536   0.000000
     5  O    3.424184   4.441860   2.327084   1.193015   0.000000
     6  O    3.504739   4.532146   2.391516   1.341360   2.209453
     7  C    3.528819   4.388014   2.746555   2.420333   3.516870
     8  C    3.825832   4.551777   3.247793   3.146111   4.177605
     9  H    2.961914   3.698541   2.448518   2.629597   3.796806
    10  H    4.547460   5.384526   3.751982   3.233885   4.205076
    11  H    4.714240   5.492809   4.004912   3.583076   4.422293
    12  H    3.195638   3.823705   2.828324   3.085941   4.081236
    13  H    4.489571   5.011885   4.164463   4.296121   5.398452
    14  O    5.393032   5.780528   5.196043   5.404043   6.533129
    15  H    6.132787   6.580132   5.831393   5.866836   6.930812
                    6          7          8          9         10
     6  O    0.000000
     7  C    1.439509   0.000000
     8  C    2.422151   1.508846   0.000000
     9  H    2.085095   1.090673   2.163387   0.000000
    10  H    2.008674   1.087890   2.154156   1.771256   0.000000
    11  H    2.730660   2.182664   1.088836   3.088380   2.509872
    12  H    2.829243   2.198892   1.089343   2.524897   3.090763
    13  H    3.514402   2.235649   1.317997   2.534548   2.515967
    14  O    4.560998   3.180973   2.522378   3.291777   3.172652
    15  H    4.921130   3.642024   2.818933   3.985273   3.493765
                   11         12         13         14         15
    11  H    0.000000
    12  H    1.812199   0.000000
    13  H    1.930732   1.907775   0.000000
    14  O    2.983851   3.063007   1.215193   0.000000
    15  H    2.921616   3.457488   1.673629   0.967949   0.000000
 Stoichiometry    C5H7O3(2)
 Framework group  C1[X(C5H7O3)]
 Deg. of freedom    39
 Full point group                 C1      NOp   1
 Largest Abelian subgroup         C1      NOp   1
 Largest concise Abelian subgroup C1      NOp   1
                         Standard orientation:                         
 ---------------------------------------------------------------------
 Center     Atomic      Atomic             Coordinates (Angstroms)
 Number     Number       Type             X           Y           Z
 ---------------------------------------------------------------------
      1          6           0        1.348023    2.236247   -0.068025
      2          1           0        1.272857    3.298832   -0.083669
      3          6           0        1.439541    1.040861   -0.050340
      4          6           0        1.632371   -0.410023    0.000841
      5          8           0        2.681763   -0.896831    0.292525
      6          8           0        0.573441   -1.173418   -0.307610
      7          6           0       -0.712930   -0.583622   -0.571386
      8          6           0       -1.427121   -0.276112    0.721666
      9          1           0       -0.599600    0.307372   -1.190139
     10          1           0       -1.245994   -1.341025   -1.142077
     11          1           0       -1.608044   -1.157559    1.334759
     12          1           0       -1.001692    0.549621    1.290737
     13          1           0       -2.611774    0.161045    0.344032
     14          8           0       -3.713032    0.374139   -0.123425
     15          1           0       -4.222431   -0.293515    0.357902
 ---------------------------------------------------------------------
 Rotational constants (GHZ):           3.3374407           1.0084038           0.8244749
 Standard basis: 6-311++G(d,p) (5D, 7F)
 There are   233 symmetry adapted cartesian basis functions of A   symmetry.
 There are   225 symmetry adapted basis functions of A   symmetry.
   225 basis functions,   351 primitive gaussians,   233 cartesian basis functions
    31 alpha electrons       30 beta electrons
       nuclear repulsion energy       343.9134847265 Hartrees.
 NAtoms=   15 NActive=   15 NUniq=   15 SFac= 1.00D+00 NAtFMM=   60 NAOKFM=F Big=F
 Integral buffers will be    131072 words long.
 Raffenetti 2 integral format.
 Two-electron integral symmetry is turned on.
 One-electron integrals computed using PRISM.
 NBasis=   225 RedAO= T EigKep=  1.52D-06  NBF=   225
 NBsUse=   225 1.00D-06 EigRej= -1.00D+00 NBFU=   225
 ExpMin= 3.60D-02 ExpMax= 8.59D+03 ExpMxC= 1.30D+03 IAcc=3 IRadAn=         5 AccDes= 0.00D+00
 Harris functional with IExCor= 1009 and IRadAn=       5 diagonalized for initial guess.
 HarFok:  IExCor= 1009 AccDes= 0.00D+00 IRadAn=         5 IDoV= 1 UseB2=F ITyADJ=14
 ICtDFT=  3500011 ScaDFX=  1.000000  1.000000  1.000000  1.000000
 FoFCou: FMM=F IPFlag=           0 FMFlag=      100000 FMFlg1=           0
         NFxFlg=           0 DoJE=T BraDBF=F KetDBF=T FulRan=T
         wScrn=  0.000000 ICntrl=       500 IOpCl=  0 I1Cent=   200000004 NGrid=           0
         NMat0=    1 NMatS0=      1 NMatT0=    0 NMatD0=    1 NMtDS0=    0 NMtDT0=    0
 Petite list used in FoFCou.
 Initial guess <Sx>= 0.0000 <Sy>= 0.0000 <Sz>= 0.5000 <S**2>= 0.7500 S= 0.5000
 Requested convergence on RMS density matrix=1.00D-08 within 128 cycles.
 Requested convergence on MAX density matrix=1.00D-06.
 Requested convergence on             energy=1.00D-06.
 No special actions if energy rises.
 SCF Done:  E(UM062X) =  -420.191289959     A.U. after   19 cycles
            NFock= 19  Conv=0.57D-08     -V/T= 2.0034
 <Sx>= 0.0000 <Sy>= 0.0000 <Sz>= 0.5000 <S**2>= 0.7607 S= 0.5054
 <L.S>=  0.00000000000    
 Annihilation of the first spin contaminant:
 S**2 before annihilation     0.7607,   after     0.7501
 DoSCS=F DFT=T ScalE2(SS,OS)=  1.000000  1.000000
 Range of M.O.s used for correlation:     1   225
 NBasis=   225 NAE=    31 NBE=    30 NFC=     0 NFV=     0
 NROrb=    225 NOA=    31 NOB=    30 NVA=   194 NVB=   195

 **** Warning!!: The largest alpha MO coefficient is  0.31059144D+03


 **** Warning!!: The largest beta MO coefficient is  0.30294319D+03

 Symmetrizing basis deriv contribution to polar:
 IMax=3 JMax=2 DiffMx= 0.00D+00
 G2DrvN: will do    16 centers at a time, making    1 passes.
 Calling FoFCou, ICntrl=  3107 FMM=F I1Cent=   0 AccDes= 0.00D+00.
 End of G2Drv F.D. properties file   721 does not exist.
 End of G2Drv F.D. properties file   722 does not exist.
 End of G2Drv F.D. properties file   788 does not exist.
          IDoAtm=111111111111111
          Differentiating once with respect to electric field.
                with respect to dipole field.
          Differentiating once with respect to nuclear coordinates.
 Keep R1 and R2 ints in memory in canonical form, NReq=671901970.
          There are    48 degrees of freedom in the 1st order CPHF.  IDoFFX=6 NUNeed=     3.
     45 vectors produced by pass  0 Test12= 2.47D-14 2.08D-09 XBig12= 9.72D+01 3.86D+00.
 AX will form    45 AO Fock derivatives at one time.
     45 vectors produced by pass  1 Test12= 2.47D-14 2.08D-09 XBig12= 2.01D+01 8.05D-01.
     45 vectors produced by pass  2 Test12= 2.47D-14 2.08D-09 XBig12= 6.24D-01 7.80D-02.
     45 vectors produced by pass  3 Test12= 2.47D-14 2.08D-09 XBig12= 6.88D-03 9.58D-03.
     45 vectors produced by pass  4 Test12= 2.47D-14 2.08D-09 XBig12= 8.42D-05 1.09D-03.
     45 vectors produced by pass  5 Test12= 2.47D-14 2.08D-09 XBig12= 8.69D-07 1.10D-04.
     45 vectors produced by pass  6 Test12= 2.47D-14 2.08D-09 XBig12= 6.60D-09 6.92D-06.
     23 vectors produced by pass  7 Test12= 2.47D-14 2.08D-09 XBig12= 3.96D-11 6.13D-07.
      3 vectors produced by pass  8 Test12= 2.47D-14 2.08D-09 XBig12= 2.70D-13 4.72D-08.
      3 vectors produced by pass  9 Test12= 2.47D-14 2.08D-09 XBig12= 2.69D-15 6.96D-09.
 InvSVY:  IOpt=1 It=  1 EMax= 1.07D-14
 Solved reduced A of dimension   344 with    48 vectors.
 Isotropic polarizability for W=    0.000000       76.60 Bohr**3.
 End of Minotr F.D. properties file   721 does not exist.
 End of Minotr F.D. properties file   722 does not exist.
 End of Minotr F.D. properties file   788 does not exist.

 **********************************************************************

            Population analysis using the SCF density.

 **********************************************************************

 Orbital symmetries:
 Alpha Orbitals:
       Occupied  (A) (A) (A) (A) (A) (A) (A) (A) (A) (A) (A) (A)
                 (A) (A) (A) (A) (A) (A) (A) (A) (A) (A) (A) (A)
                 (A) (A) (A) (A) (A) (A) (A)
       Virtual   (A) (A) (A) (A) (A) (A) (A) (A) (A) (A) (A) (A)
                 (A) (A) (A) (A) (A) (A) (A) (A) (A) (A) (A) (A)
                 (A) (A) (A) (A) (A) (A) (A) (A) (A) (A) (A) (A)
                 (A) (A) (A) (A) (A) (A) (A) (A) (A) (A) (A) (A)
                 (A) (A) (A) (A) (A) (A) (A) (A) (A) (A) (A) (A)
                 (A) (A) (A) (A) (A) (A) (A) (A) (A) (A) (A) (A)
                 (A) (A) (A) (A) (A) (A) (A) (A) (A) (A) (A) (A)
                 (A) (A) (A) (A) (A) (A) (A) (A) (A) (A) (A) (A)
                 (A) (A) (A) (A) (A) (A) (A) (A) (A) (A) (A) (A)
                 (A) (A) (A) (A) (A) (A) (A) (A) (A) (A) (A) (A)
                 (A) (A) (A) (A) (A) (A) (A) (A) (A) (A) (A) (A)
                 (A) (A) (A) (A) (A) (A) (A) (A) (A) (A) (A) (A)
                 (A) (A) (A) (A) (A) (A) (A) (A) (A) (A) (A) (A)
                 (A) (A) (A) (A) (A) (A) (A) (A) (A) (A) (A) (A)
                 (A) (A) (A) (A) (A) (A) (A) (A) (A) (A) (A) (A)
                 (A) (A) (A) (A) (A) (A) (A) (A) (A) (A) (A) (A)
                 (A) (A)
 Beta  Orbitals:
       Occupied  (A) (A) (A) (A) (A) (A) (A) (A) (A) (A) (A) (A)
                 (A) (A) (A) (A) (A) (A) (A) (A) (A) (A) (A) (A)
                 (A) (A) (A) (A) (A) (A)
       Virtual   (A) (A) (A) (A) (A) (A) (A) (A) (A) (A) (A) (A)
                 (A) (A) (A) (A) (A) (A) (A) (A) (A) (A) (A) (A)
                 (A) (A) (A) (A) (A) (A) (A) (A) (A) (A) (A) (A)
                 (A) (A) (A) (A) (A) (A) (A) (A) (A) (A) (A) (A)
                 (A) (A) (A) (A) (A) (A) (A) (A) (A) (A) (A) (A)
                 (A) (A) (A) (A) (A) (A) (A) (A) (A) (A) (A) (A)
                 (A) (A) (A) (A) (A) (A) (A) (A) (A) (A) (A) (A)
                 (A) (A) (A) (A) (A) (A) (A) (A) (A) (A) (A) (A)
                 (A) (A) (A) (A) (A) (A) (A) (A) (A) (A) (A) (A)
                 (A) (A) (A) (A) (A) (A) (A) (A) (A) (A) (A) (A)
                 (A) (A) (A) (A) (A) (A) (A) (A) (A) (A) (A) (A)
                 (A) (A) (A) (A) (A) (A) (A) (A) (A) (A) (A) (A)
                 (A) (A) (A) (A) (A) (A) (A) (A) (A) (A) (A) (A)
                 (A) (A) (A) (A) (A) (A) (A) (A) (A) (A) (A) (A)
                 (A) (A) (A) (A) (A) (A) (A) (A) (A) (A) (A) (A)
                 (A) (A) (A) (A) (A) (A) (A) (A) (A) (A) (A) (A)
                 (A) (A) (A)
 The electronic state is 2-A.
 Alpha  occ. eigenvalues --  -19.69301 -19.65243 -19.63627 -10.71513 -10.62675
 Alpha  occ. eigenvalues --  -10.58667 -10.58533 -10.58085  -1.26125  -1.17577
 Alpha  occ. eigenvalues --   -1.13060  -0.90461  -0.90021  -0.78705  -0.74682
 Alpha  occ. eigenvalues --   -0.65454  -0.62473  -0.60434  -0.59276  -0.57246
 Alpha  occ. eigenvalues --   -0.54729  -0.51523  -0.50023  -0.49447  -0.44380
 Alpha  occ. eigenvalues --   -0.41395  -0.40963  -0.39978  -0.38405  -0.37153
 Alpha  occ. eigenvalues --   -0.34647
 Alpha virt. eigenvalues --   -0.02847  -0.01182  -0.00046   0.01114   0.01939
 Alpha virt. eigenvalues --    0.02340   0.03696   0.04119   0.05058   0.06623
 Alpha virt. eigenvalues --    0.06821   0.07213   0.07950   0.08951   0.10274
 Alpha virt. eigenvalues --    0.10544   0.10956   0.11407   0.12295   0.13306
 Alpha virt. eigenvalues --    0.13480   0.13866   0.14056   0.15005   0.15734
 Alpha virt. eigenvalues --    0.16034   0.16927   0.17674   0.18329   0.19267
 Alpha virt. eigenvalues --    0.20179   0.21524   0.22468   0.23535   0.24064
 Alpha virt. eigenvalues --    0.25097   0.26000   0.26501   0.28464   0.29005
 Alpha virt. eigenvalues --    0.30027   0.31317   0.31747   0.32448   0.32799
 Alpha virt. eigenvalues --    0.34267   0.34793   0.35337   0.36801   0.37832
 Alpha virt. eigenvalues --    0.39676   0.41175   0.44387   0.45946   0.48966
 Alpha virt. eigenvalues --    0.49295   0.51707   0.52042   0.56446   0.56766
 Alpha virt. eigenvalues --    0.59143   0.59673   0.61315   0.62811   0.65700
 Alpha virt. eigenvalues --    0.66094   0.68770   0.69276   0.70402   0.71988
 Alpha virt. eigenvalues --    0.73419   0.73837   0.75206   0.78220   0.81697
 Alpha virt. eigenvalues --    0.85539   0.86291   0.92414   0.98245   0.99991
 Alpha virt. eigenvalues --    1.04197   1.06020   1.07479   1.09263   1.11215
 Alpha virt. eigenvalues --    1.12334   1.14240   1.17325   1.18299   1.19868
 Alpha virt. eigenvalues --    1.21242   1.23878   1.26899   1.27985   1.28475
 Alpha virt. eigenvalues --    1.31236   1.33431   1.35424   1.35867   1.39027
 Alpha virt. eigenvalues --    1.41747   1.43220   1.47249   1.51673   1.54466
 Alpha virt. eigenvalues --    1.56193   1.56793   1.60439   1.61962   1.62977
 Alpha virt. eigenvalues --    1.65207   1.66327   1.68301   1.69131   1.73665
 Alpha virt. eigenvalues --    1.76108   1.78992   1.79709   1.81176   1.82954
 Alpha virt. eigenvalues --    1.89969   1.92932   1.96164   1.99727   2.02164
 Alpha virt. eigenvalues --    2.07103   2.09508   2.11731   2.16656   2.22667
 Alpha virt. eigenvalues --    2.27669   2.34770   2.41566   2.47005   2.50312
 Alpha virt. eigenvalues --    2.51816   2.54082   2.57458   2.59128   2.60915
 Alpha virt. eigenvalues --    2.66913   2.68376   2.69728   2.72305   2.74375
 Alpha virt. eigenvalues --    2.77597   2.81286   2.82802   2.88351   2.93534
 Alpha virt. eigenvalues --    2.97074   2.99819   3.01290   3.02719   3.06429
 Alpha virt. eigenvalues --    3.07943   3.11086   3.17987   3.21328   3.24332
 Alpha virt. eigenvalues --    3.25112   3.28149   3.33528   3.39210   3.42077
 Alpha virt. eigenvalues --    3.45104   3.53156   3.63877   3.75166   3.76700
 Alpha virt. eigenvalues --    3.80800   3.86733   4.01099   4.03398   4.12191
 Alpha virt. eigenvalues --    4.15479   4.27167   5.09516   5.13872   5.15731
 Alpha virt. eigenvalues --    5.27261   5.41423   5.43556   5.63316   5.67960
 Alpha virt. eigenvalues --    5.97201  23.61336  23.90865  23.93264  23.94190
 Alpha virt. eigenvalues --   25.15127  49.96844  49.98635  50.12334
  Beta  occ. eigenvalues --  -19.69203 -19.64290 -19.63617 -10.71514 -10.62696
  Beta  occ. eigenvalues --  -10.58533 -10.58156 -10.58085  -1.25930  -1.17427
  Beta  occ. eigenvalues --   -1.09469  -0.90119  -0.89165  -0.77753  -0.74164
  Beta  occ. eigenvalues --   -0.65104  -0.62330  -0.59252  -0.57733  -0.55395
  Beta  occ. eigenvalues --   -0.54304  -0.49881  -0.48794  -0.46191  -0.43894
  Beta  occ. eigenvalues --   -0.40597  -0.39735  -0.39128  -0.38190  -0.37054
  Beta virt. eigenvalues --   -0.11943  -0.02806  -0.00959   0.00057   0.01175
  Beta virt. eigenvalues --    0.02062   0.02663   0.03758   0.04185   0.05154
  Beta virt. eigenvalues --    0.06722   0.06869   0.07171   0.08072   0.08991
  Beta virt. eigenvalues --    0.10288   0.10673   0.11126   0.11635   0.12361
  Beta virt. eigenvalues --    0.13267   0.13424   0.13952   0.14180   0.15100
  Beta virt. eigenvalues --    0.15758   0.16263   0.16968   0.17802   0.18424
  Beta virt. eigenvalues --    0.19505   0.20480   0.21713   0.22588   0.23432
  Beta virt. eigenvalues --    0.24368   0.25370   0.26116   0.26728   0.28886
  Beta virt. eigenvalues --    0.29279   0.30274   0.31411   0.31869   0.32549
  Beta virt. eigenvalues --    0.32989   0.34361   0.35391   0.35643   0.37304
  Beta virt. eigenvalues --    0.38070   0.39917   0.42320   0.44456   0.46372
  Beta virt. eigenvalues --    0.49157   0.49726   0.51764   0.52108   0.56741
  Beta virt. eigenvalues --    0.57473   0.59523   0.59953   0.61579   0.62981
  Beta virt. eigenvalues --    0.66466   0.66869   0.68810   0.69747   0.71050
  Beta virt. eigenvalues --    0.72046   0.73572   0.74186   0.76146   0.78561
  Beta virt. eigenvalues --    0.81977   0.85590   0.86341   0.92466   0.99118
  Beta virt. eigenvalues --    1.00939   1.04895   1.06377   1.07837   1.09638
  Beta virt. eigenvalues --    1.11718   1.13188   1.15928   1.17759   1.18345
  Beta virt. eigenvalues --    1.20174   1.21394   1.24134   1.27104   1.28283
  Beta virt. eigenvalues --    1.28595   1.31336   1.33581   1.35719   1.36204
  Beta virt. eigenvalues --    1.39304   1.42005   1.43288   1.47617   1.53158
  Beta virt. eigenvalues --    1.55352   1.56850   1.57289   1.60993   1.62095
  Beta virt. eigenvalues --    1.63392   1.65579   1.67397   1.68442   1.69730
  Beta virt. eigenvalues --    1.73874   1.76267   1.79184   1.79900   1.81593
  Beta virt. eigenvalues --    1.83566   1.90132   1.92980   1.96337   2.00076
  Beta virt. eigenvalues --    2.02553   2.07487   2.10298   2.13141   2.17169
  Beta virt. eigenvalues --    2.23524   2.29198   2.37252   2.41708   2.47267
  Beta virt. eigenvalues --    2.50884   2.51474   2.54392   2.58293   2.59752
  Beta virt. eigenvalues --    2.61481   2.66070   2.67008   2.68534   2.72271
  Beta virt. eigenvalues --    2.75078   2.77897   2.81481   2.82677   2.88548
  Beta virt. eigenvalues --    2.93447   2.97127   2.99894   3.02726   3.04620
  Beta virt. eigenvalues --    3.06495   3.08038   3.11465   3.19035   3.21896
  Beta virt. eigenvalues --    3.25217   3.26138   3.29368   3.33589   3.39348
  Beta virt. eigenvalues --    3.42504   3.47267   3.53189   3.63926   3.75263
  Beta virt. eigenvalues --    3.78535   3.82282   3.86923   4.02927   4.03837
  Beta virt. eigenvalues --    4.12952   4.15500   4.28147   5.11196   5.14178
  Beta virt. eigenvalues --    5.15756   5.27315   5.41898   5.46631   5.65758
  Beta virt. eigenvalues --    5.68115   5.97268  23.61336  23.90972  23.93654
  Beta virt. eigenvalues --   23.94667  25.15127  49.96128  49.98460  50.12315
          Condensed to atoms (all electrons):
               1          2          3          4          5          6
     1  C   24.366622   0.826368 -10.448375  -7.039162  -0.156270   0.054656
     2  H    0.826368   0.436329  -0.362962  -0.083920  -0.005406  -0.003564
     3  C  -10.448375  -0.362962  13.445995   1.862618   0.009986  -0.242512
     4  C   -7.039162  -0.083920   1.862618  10.923972   0.474858   0.089076
     5  O   -0.156270  -0.005406   0.009986   0.474858   7.992634  -0.083120
     6  O    0.054656  -0.003564  -0.242512   0.089076  -0.083120   8.208077
     7  C   -0.467229  -0.009010   0.109950   0.264638  -0.009129   0.180889
     8  C    0.387239   0.005131  -0.065276  -0.337477   0.017918  -0.098485
     9  H   -0.050115   0.000022   0.037039   0.016675  -0.004056   0.006882
    10  H   -0.057824  -0.001422   0.020318   0.031688   0.001771  -0.073816
    11  H    0.000792   0.000478  -0.007104   0.005722  -0.000699  -0.001601
    12  H   -0.055557  -0.004054   0.078994  -0.007365   0.001641  -0.008694
    13  H   -0.026166  -0.000155   0.007105   0.013334   0.000603   0.002117
    14  O    0.004118   0.000101   0.002135  -0.006046   0.000014   0.000581
    15  H    0.000975   0.000011  -0.001096   0.000103  -0.000020   0.000423
               7          8          9         10         11         12
     1  C   -0.467229   0.387239  -0.050115  -0.057824   0.000792  -0.055557
     2  H   -0.009010   0.005131   0.000022  -0.001422   0.000478  -0.004054
     3  C    0.109950  -0.065276   0.037039   0.020318  -0.007104   0.078994
     4  C    0.264638  -0.337477   0.016675   0.031688   0.005722  -0.007365
     5  O   -0.009129   0.017918  -0.004056   0.001771  -0.000699   0.001641
     6  O    0.180889  -0.098485   0.006882  -0.073816  -0.001601  -0.008694
     7  C    5.977031  -0.431538   0.398165   0.373954   0.027759  -0.054901
     8  C   -0.431538   6.173278  -0.049728   0.007085   0.336449   0.392529
     9  H    0.398165  -0.049728   0.532989  -0.045509   0.013049  -0.023538
    10  H    0.373954   0.007085  -0.045509   0.527353  -0.029139   0.025899
    11  H    0.027759   0.336449   0.013049  -0.029139   0.536342  -0.063815
    12  H   -0.054901   0.392529  -0.023538   0.025899  -0.063815   0.569878
    13  H    0.011628   0.123364  -0.020458   0.008035  -0.021325  -0.024351
    14  O   -0.072183   0.030495   0.002642   0.003875  -0.010261  -0.001742
    15  H   -0.005749   0.025760  -0.000731   0.002902  -0.007794   0.002913
              13         14         15
     1  C   -0.026166   0.004118   0.000975
     2  H   -0.000155   0.000101   0.000011
     3  C    0.007105   0.002135  -0.001096
     4  C    0.013334  -0.006046   0.000103
     5  O    0.000603   0.000014  -0.000020
     6  O    0.002117   0.000581   0.000423
     7  C    0.011628  -0.072183  -0.005749
     8  C    0.123364   0.030495   0.025760
     9  H   -0.020458   0.002642  -0.000731
    10  H    0.008035   0.003875   0.002902
    11  H   -0.021325  -0.010261  -0.007794
    12  H   -0.024351  -0.001742   0.002913
    13  H    0.548378   0.130078  -0.019346
    14  O    0.130078   8.071105   0.267571
    15  H   -0.019346   0.267571   0.487363
          Atomic-Atomic Spin Densities.
               1          2          3          4          5          6
     1  C    0.126239   0.005890  -0.103867  -0.031968   0.000399   0.018971
     2  H    0.005890   0.000524  -0.004998  -0.001428   0.000021   0.000345
     3  C   -0.103867  -0.004998   0.078059   0.031464   0.000089  -0.002171
     4  C   -0.031968  -0.001428   0.031464   0.002659  -0.000531  -0.015160
     5  O    0.000399   0.000021   0.000089  -0.000531   0.005582  -0.000123
     6  O    0.018971   0.000345  -0.002171  -0.015160  -0.000123   0.069335
     7  C   -0.027544  -0.000937   0.021157   0.002200  -0.000007  -0.015435
     8  C    0.024619   0.001024  -0.027691   0.006087  -0.000827  -0.017551
     9  H    0.007476   0.000071  -0.002485  -0.004805   0.000239  -0.000007
    10  H   -0.003926  -0.000044  -0.002178   0.006830  -0.000455  -0.006361
    11  H    0.001275   0.000000   0.000970  -0.002472   0.000159   0.002148
    12  H   -0.025498  -0.000722   0.011978   0.014865  -0.000177  -0.009179
    13  H   -0.004624   0.000018   0.003397   0.001577  -0.000020  -0.002486
    14  O   -0.002993  -0.000147   0.000441   0.002432  -0.000013  -0.001914
    15  H    0.000750   0.000028  -0.000316  -0.000434   0.000007   0.000462
               7          8          9         10         11         12
     1  C   -0.027544   0.024619   0.007476  -0.003926   0.001275  -0.025498
     2  H   -0.000937   0.001024   0.000071  -0.000044   0.000000  -0.000722
     3  C    0.021157  -0.027691  -0.002485  -0.002178   0.000970   0.011978
     4  C    0.002200   0.006087  -0.004805   0.006830  -0.002472   0.014865
     5  O   -0.000007  -0.000827   0.000239  -0.000455   0.000159  -0.000177
     6  O   -0.015435  -0.017551  -0.000007  -0.006361   0.002148  -0.009179
     7  C   -0.040365   0.002465   0.000754   0.014859  -0.008773   0.022988
     8  C    0.002465   0.720842  -0.002274  -0.009058  -0.005329  -0.040005
     9  H    0.000754  -0.002274  -0.002396   0.001775  -0.001870   0.000106
    10  H    0.014859  -0.009058   0.001775  -0.000550   0.003156   0.000959
    11  H   -0.008773  -0.005329  -0.001870   0.003156  -0.034864   0.006025
    12  H    0.022988  -0.040005   0.000106   0.000959   0.006025   0.000902
    13  H    0.017431   0.068572   0.007050  -0.011171   0.023398  -0.004349
    14  O    0.004730  -0.113619  -0.002885   0.005903  -0.004804   0.011720
    15  H   -0.000534   0.007126   0.000239  -0.000791   0.000316  -0.001709
              13         14         15
     1  C   -0.004624  -0.002993   0.000750
     2  H    0.000018  -0.000147   0.000028
     3  C    0.003397   0.000441  -0.000316
     4  C    0.001577   0.002432  -0.000434
     5  O   -0.000020  -0.000013   0.000007
     6  O   -0.002486  -0.001914   0.000462
     7  C    0.017431   0.004730  -0.000534
     8  C    0.068572  -0.113619   0.007126
     9  H    0.007050  -0.002885   0.000239
    10  H   -0.011171   0.005903  -0.000791
    11  H    0.023398  -0.004804   0.000316
    12  H   -0.004349   0.011720  -0.001709
    13  H   -0.187475   0.019413   0.000100
    14  O    0.019413   0.550713   0.005476
    15  H    0.000100   0.005476  -0.015772
 Mulliken charges and spin densities:
               1          2
     1  C   -1.340074  -0.014800
     2  H    0.202054  -0.000356
     3  C    1.553185   0.003848
     4  C   -0.208714   0.011316
     5  O   -0.240724   0.004343
     6  O   -0.030910   0.020873
     7  C   -0.294275  -0.007010
     8  C   -0.516744   0.614380
     9  H    0.186671   0.000988
    10  H    0.204829  -0.001051
    11  H    0.221145  -0.020665
    12  H    0.172165  -0.012096
    13  H    0.267159  -0.069170
    14  O   -0.422483   0.474453
    15  H    0.246715  -0.005053
 Sum of Mulliken charges =  -0.00000   1.00000
 Mulliken charges and spin densities with hydrogens summed into heavy atoms:
               1          2
     1  C   -1.138020  -0.015156
     3  C    1.553185   0.003848
     4  C   -0.208714   0.011316
     5  O   -0.240724   0.004343
     6  O   -0.030910   0.020873
     7  C    0.097225  -0.007073
     8  C   -0.123433   0.581618
    14  O    0.091391   0.400230
 APT charges:
               1
     1  C   -0.163873
     2  H    0.232177
     3  C   -0.290184
     4  C    1.569417
     5  O   -0.866263
     6  O   -0.984604
     7  C    0.451340
     8  C    0.290731
     9  H   -0.000554
    10  H    0.008925
    11  H   -0.013264
    12  H    0.002031
    13  H   -0.179982
    14  O   -0.328191
    15  H    0.272294
 Sum of APT charges =   0.00000
 APT charges with hydrogens summed into heavy atoms:
               1
     1  C    0.068304
     3  C   -0.290184
     4  C    1.569417
     5  O   -0.866263
     6  O   -0.984604
     7  C    0.459711
     8  C    0.279499
    14  O   -0.235880
 Electronic spatial extent (au):  <R**2>=           1336.3756
 Charge=             -0.0000 electrons
 Dipole moment (field-independent basis, Debye):
    X=             -2.5618    Y=              1.5263    Z=              0.6166  Tot=              3.0451
 Quadrupole moment (field-independent basis, Debye-Ang):
   XX=            -59.6146   YY=            -43.2467   ZZ=            -46.8713
   XY=             12.9195   XZ=             -5.9657   YZ=             -0.0698
 Traceless Quadrupole moment (field-independent basis, Debye-Ang):
   XX=             -9.7037   YY=              6.6642   ZZ=              3.0396
   XY=             12.9195   XZ=             -5.9657   YZ=             -0.0698
 Octapole moment (field-independent basis, Debye-Ang**2):
  XXX=            -38.5824  YYY=             25.7140  ZZZ=             -0.0490  XYY=              1.5813
  XXY=            -19.0043  XXZ=             12.9037  XZZ=             -3.7272  YZZ=             -5.6091
  YYZ=             -0.8643  XYZ=              1.9417
 Hexadecapole moment (field-independent basis, Debye-Ang**3):
 XXXX=          -1227.7141 YYYY=           -280.8555 ZZZZ=           -108.1879 XXXY=            111.2723
 XXXZ=            -81.2935 YYYX=             38.2380 YYYZ=             -2.4938 ZZZX=              0.3490
 ZZZY=              0.8261 XXYY=           -274.1502 XXZZ=           -218.2814 YYZZ=            -84.2285
 XXYZ=             -2.0432 YYXZ=             -1.0649 ZZXY=             -4.0253
 N-N= 3.439134847265D+02 E-N=-1.671855116417D+03  KE= 4.187593237010D+02
  Exact polarizability:  99.772  -5.502  78.698   7.062  -1.919  51.333
 Approx polarizability:  97.856 -11.063 100.331   9.769  -3.607  60.915
                          Isotropic Fermi Contact Couplings
        Atom                 a.u.       MegaHertz       Gauss      10(-4) cm-1
     1  C(13)              0.00001       0.00889       0.00317       0.00296
     2  H(1)              -0.00001      -0.03732      -0.01332      -0.01245
     3  C(13)              0.00029       0.32650       0.11650       0.10891
     4  C(13)             -0.00128      -1.43588      -0.51236      -0.47896
     5  O(17)              0.00123      -0.74795      -0.26689      -0.24949
     6  O(17)              0.03377     -20.47077      -7.30448      -6.82831
     7  C(13)             -0.00560      -6.29558      -2.24642      -2.09998
     8  C(13)              0.17862     200.80765      71.65316      66.98222
     9  H(1)               0.00041       1.84989       0.66009       0.61706
    10  H(1)               0.00103       4.59467       1.63949       1.53262
    11  H(1)              -0.00679     -30.37222     -10.83756     -10.13108
    12  H(1)              -0.00485     -21.68609      -7.73814      -7.23370
    13  H(1)              -0.03036    -135.68822     -48.41693     -45.26072
    14  O(17)              0.09715     -58.89238     -21.01427     -19.64438
    15  H(1)              -0.00734     -32.80596     -11.70598     -10.94289
 --------------------------------------------------------
       Center         ----  Spin Dipole Couplings  ----
                      3XX-RR        3YY-RR        3ZZ-RR
 --------------------------------------------------------
     1   Atom        0.002438      0.000090     -0.002528
     2   Atom        0.000457      0.000700     -0.001157
     3   Atom        0.003237     -0.000891     -0.002346
     4   Atom        0.005875     -0.001956     -0.003918
     5   Atom       -0.004158     -0.000191      0.004349
     6   Atom        0.075205     -0.046494     -0.028711
     7   Atom       -0.003899     -0.006881      0.010781
     8   Atom        0.526781     -0.249685     -0.277096
     9   Atom        0.001277     -0.008522      0.007244
    10   Atom       -0.003536     -0.002968      0.006504
    11   Atom       -0.008333      0.020370     -0.012037
    12   Atom       -0.002619      0.019007     -0.016388
    13   Atom        0.187336     -0.103262     -0.084074
    14   Atom        1.245864     -0.756717     -0.489146
    15   Atom        0.015395      0.009158     -0.024553
 --------------------------------------------------------
                        XY            XZ            YZ
 --------------------------------------------------------
     1   Atom        0.002675     -0.000704     -0.000759
     2   Atom        0.001541     -0.000239     -0.000330
     3   Atom        0.002954     -0.001376     -0.000888
     4   Atom        0.001412     -0.000003      0.002033
     5   Atom        0.004820      0.013809      0.021021
     6   Atom       -0.085983     -0.099902      0.050991
     7   Atom       -0.001544     -0.006467      0.002877
     8   Atom       -0.293995      0.253919     -0.086346
     9   Atom        0.000948     -0.008101     -0.003736
    10   Atom       -0.005110     -0.003251      0.008801
    11   Atom        0.005548     -0.001661     -0.045263
    12   Atom        0.013441      0.025295      0.035459
    13   Atom       -0.080843      0.115312     -0.029155
    14   Atom       -0.789019      1.100463     -0.369362
    15   Atom        0.050061     -0.027258     -0.061669
 --------------------------------------------------------


 ---------------------------------------------------------------------------------
              Anisotropic Spin Dipole Couplings in Principal Axis System
 ---------------------------------------------------------------------------------

       Atom             a.u.   MegaHertz   Gauss  10(-4) cm-1        Axes

              Baa    -0.0027    -0.367    -0.131    -0.122 -0.0054  0.2643  0.9644
     1 C(13)  Bbb    -0.0016    -0.215    -0.077    -0.072 -0.5651  0.7949 -0.2210
              Bcc     0.0043     0.581     0.207     0.194  0.8250  0.5462 -0.1451
 
              Baa    -0.0012    -0.649    -0.231    -0.216 -0.0598  0.2162  0.9745
     2 H(1)   Bbb    -0.0010    -0.511    -0.182    -0.170  0.7377 -0.6481  0.1891
              Bcc     0.0022     1.160     0.414     0.387  0.6725  0.7302 -0.1207
 
              Baa    -0.0028    -0.371    -0.132    -0.124 -0.0151  0.4472  0.8943
     3 C(13)  Bbb    -0.0024    -0.318    -0.113    -0.106 -0.5026  0.7698 -0.3934
              Bcc     0.0051     0.689     0.246     0.230  0.8644  0.4554 -0.2132
 
              Baa    -0.0052    -0.704    -0.251    -0.235  0.0695 -0.5458  0.8351
     4 C(13)  Bbb    -0.0009    -0.119    -0.042    -0.040 -0.1707  0.8182  0.5490
              Bcc     0.0061     0.823     0.294     0.275  0.9829  0.1807  0.0363
 
              Baa    -0.0215     1.553     0.554     0.518 -0.3893 -0.6013  0.6978
     5 O(17)  Bbb    -0.0074     0.534     0.191     0.178  0.8370 -0.5472 -0.0046
              Bcc     0.0289    -2.088    -0.745    -0.696  0.3846  0.5822  0.7163
 
              Baa    -0.0911     6.593     2.353     2.199  0.5488  0.8066  0.2194
     6 O(17)  Bbb    -0.0889     6.429     2.294     2.145  0.2933 -0.4316  0.8531
              Bcc     0.1800   -13.023    -4.647    -4.344  0.7828 -0.4038 -0.4734
 
              Baa    -0.0075    -1.012    -0.361    -0.337  0.3627  0.9317 -0.0183
     7 C(13)  Bbb    -0.0062    -0.831    -0.297    -0.277  0.8628 -0.3284  0.3844
              Bcc     0.0137     1.843     0.657     0.615 -0.3521  0.1552  0.9230
 
              Baa    -0.3511   -47.117   -16.812   -15.716 -0.1285  0.4001  0.9074
     8 C(13)  Bbb    -0.3481   -46.711   -16.668   -15.581  0.3848  0.8634 -0.3262
              Bcc     0.6992    93.828    33.480    31.298  0.9140 -0.3073  0.2649
 
              Baa    -0.0095    -5.051    -1.802    -1.685  0.1208  0.9547  0.2720
     9 H(1)   Bbb    -0.0040    -2.145    -0.766    -0.716  0.8236 -0.2494  0.5095
              Bcc     0.0135     7.196     2.568     2.400 -0.5542 -0.1625  0.8164
 
              Baa    -0.0097    -5.202    -1.856    -1.735  0.4852  0.8059 -0.3393
    10 H(1)   Bbb    -0.0038    -2.008    -0.717    -0.670  0.8184 -0.2819  0.5007
              Bcc     0.0135     7.211     2.573     2.405 -0.3079  0.5207  0.7963
 
              Baa    -0.0440   -23.479    -8.378    -7.832 -0.0519  0.5774  0.8148
    11 H(1)   Bbb    -0.0087    -4.659    -1.662    -1.554  0.9946 -0.0434  0.0940
              Bcc     0.0527    28.138    10.040     9.386  0.0896  0.8153 -0.5720
 
              Baa    -0.0444   -23.666    -8.445    -7.894 -0.3832 -0.3879  0.8383
    12 H(1)   Bbb    -0.0082    -4.356    -1.554    -1.453  0.8211 -0.5587  0.1168
              Bcc     0.0525    28.022     9.999     9.347  0.4230  0.7331  0.5325
 
              Baa    -0.1266   -67.524   -24.094   -22.523 -0.3826 -0.1985  0.9023
    13 H(1)   Bbb    -0.1240   -66.176   -23.613   -22.074  0.1465  0.9513  0.2714
              Bcc     0.2506   133.699    47.707    44.597  0.9122 -0.2360  0.3349
 
              Baa    -1.0367    75.012    26.766    25.021  0.4838  0.7333 -0.4777
    14 O(17)  Bbb    -1.0133    73.325    26.164    24.459 -0.1633  0.6119  0.7739
              Bcc     2.0500  -148.337   -52.930   -49.480  0.8598 -0.2964  0.4158
 
              Baa    -0.0728   -38.854   -13.864   -12.960 -0.1354  0.6471  0.7503
    15 H(1)   Bbb    -0.0231   -12.305    -4.391    -4.104  0.8067 -0.3677  0.4627
              Bcc     0.0959    51.159    18.255    17.065  0.5753  0.6679 -0.4722
 

 ---------------------------------------------------------------------------------

 Calling FoFJK, ICntrl=    100127 FMM=F ISym2X=0 I1Cent= 0 IOpClX= 1 NMat=1 NMatS=1 NMatT=0.
 Full mass-weighted force constant matrix:
 Low frequencies ----1707.3323  -11.8530   -0.0003    0.0004    0.0006   12.9510
 Low frequencies ---   17.8549   60.1446   74.0669
 ******    1 imaginary frequencies (negative Signs) ****** 
 Diagonal vibrational polarizability:
       59.4490743      59.5962083      76.1178244
 Harmonic frequencies (cm**-1), IR intensities (KM/Mole), Raman scattering
 activities (A**4/AMU), depolarization ratios for plane and unpolarized
 incident light, reduced masses (AMU), force constants (mDyne/A),
 and normal coordinates:
                      1                      2                      3
                      A                      A                      A
 Frequencies --  -1707.3322                58.5900                72.9324
 Red. masses --      1.0705                 5.7462                 6.1987
 Frc consts  --      1.8385                 0.0116                 0.0194
 IR Inten    --    700.3462                 4.6521                 3.0813
  Atom  AN      X      Y      Z        X      Y      Z        X      Y      Z
     1   6     0.00   0.00  -0.00     0.30   0.04  -0.11    -0.15   0.00  -0.13
     2   1     0.00  -0.00   0.00     0.44   0.05  -0.17    -0.21  -0.00  -0.19
     3   6     0.00   0.00  -0.00     0.13   0.03  -0.04    -0.09   0.01  -0.05
     4   6    -0.00  -0.00  -0.00    -0.02   0.01   0.03    -0.04   0.02   0.04
     5   8     0.00   0.00   0.00    -0.12  -0.09   0.20    -0.10   0.06   0.30
     6   8     0.00   0.00  -0.00    -0.04   0.11  -0.14     0.06  -0.02  -0.22
     7   6     0.01  -0.00   0.00    -0.01   0.20  -0.08     0.02  -0.07  -0.12
     8   6    -0.05   0.02  -0.01    -0.01   0.01  -0.04     0.09  -0.23  -0.04
     9   1     0.00  -0.00   0.00     0.03   0.29   0.06    -0.05   0.00  -0.03
    10   1     0.00   0.00   0.00    -0.03   0.30  -0.20     0.03  -0.04  -0.17
    11   1     0.09  -0.01   0.01     0.14  -0.07  -0.10    -0.02  -0.33  -0.21
    12   1     0.09  -0.06   0.01    -0.10   0.02   0.02     0.23  -0.41   0.11
    13   1     0.89  -0.23   0.37    -0.10  -0.15   0.06     0.14   0.05   0.10
    14   8    -0.04   0.01  -0.02    -0.14  -0.25   0.12     0.15   0.20   0.16
    15   1     0.03  -0.03   0.03    -0.06  -0.31   0.13     0.09   0.24   0.15
                      4                      5                      6
                      A                      A                      A
 Frequencies --    109.1009               146.6233               177.1742
 Red. masses --      2.8059                 4.5379                 2.3626
 Frc consts  --      0.0197                 0.0575                 0.0437
 IR Inten    --      1.1960                 1.5486                22.3837
  Atom  AN      X      Y      Z        X      Y      Z        X      Y      Z
     1   6    -0.12  -0.04   0.07    -0.01   0.01  -0.01     0.21   0.05   0.09
     2   1    -0.18  -0.05   0.11     0.03   0.02  -0.01     0.43   0.07   0.17
     3   6    -0.04  -0.04   0.04    -0.04   0.01  -0.01    -0.09   0.03  -0.03
     4   6    -0.02  -0.04   0.00    -0.08   0.00  -0.04    -0.07   0.03  -0.03
     5   8    -0.03  -0.03   0.06    -0.10  -0.03  -0.01    -0.04   0.11   0.00
     6   8     0.01  -0.04  -0.10    -0.08   0.04  -0.12    -0.01  -0.05  -0.03
     7   6     0.01  -0.02  -0.07    -0.10   0.08   0.15    -0.05  -0.14  -0.00
     8   6     0.15   0.26  -0.06     0.09   0.01   0.26     0.02  -0.02   0.00
     9   1    -0.00  -0.15  -0.26    -0.20   0.12   0.19    -0.13  -0.21  -0.11
    10   1    -0.07  -0.11   0.13    -0.22   0.13   0.18    -0.06  -0.23   0.12
    11   1     0.31   0.41   0.19     0.12  -0.01   0.24     0.03   0.05   0.10
    12   1     0.13   0.46  -0.33     0.13  -0.00   0.25     0.06   0.04  -0.10
    13   1     0.06   0.04  -0.01     0.14   0.00   0.20     0.03  -0.04  -0.04
    14   8     0.01  -0.07   0.05     0.27  -0.09  -0.16     0.03  -0.03  -0.04
    15   1     0.09  -0.06   0.15     0.20  -0.26  -0.47    -0.11   0.47   0.51
                      7                      8                      9
                      A                      A                      A
 Frequencies --    183.1568               258.3958               317.7474
 Red. masses --      1.3485                 5.0297                 3.5995
 Frc consts  --      0.0267                 0.1979                 0.2141
 IR Inten    --     96.4991                 0.7042                 7.2157
  Atom  AN      X      Y      Z        X      Y      Z        X      Y      Z
     1   6    -0.08  -0.02  -0.02     0.07   0.01  -0.22     0.01  -0.02   0.02
     2   1    -0.17  -0.02  -0.06     0.24   0.01  -0.76     0.14  -0.01   0.07
     3   6     0.04  -0.01   0.02    -0.15   0.00   0.47    -0.15  -0.04  -0.06
     4   6     0.03  -0.01   0.01    -0.06   0.00   0.15    -0.10  -0.03   0.01
     5   8     0.01  -0.05  -0.01     0.03   0.01  -0.14    -0.05   0.06  -0.04
     6   8    -0.00   0.03  -0.01     0.01  -0.00  -0.06    -0.11  -0.08   0.20
     7   6     0.01   0.07   0.02     0.00  -0.01  -0.04     0.08   0.16  -0.11
     8   6     0.00  -0.01   0.03     0.03   0.00  -0.03     0.07   0.02  -0.12
     9   1     0.03   0.11   0.08    -0.01  -0.02  -0.06     0.39   0.23   0.06
    10   1    -0.00   0.12  -0.03    -0.00  -0.03  -0.02     0.04   0.35  -0.33
    11   1    -0.00  -0.05  -0.03     0.05   0.01  -0.02     0.00  -0.10  -0.32
    12   1    -0.02  -0.03   0.08     0.02   0.02  -0.05     0.20  -0.17   0.07
    13   1     0.02  -0.05  -0.05     0.02  -0.01  -0.00     0.14   0.14   0.01
    14   8     0.02  -0.05  -0.06     0.02  -0.00   0.01     0.15  -0.07   0.05
    15   1    -0.16   0.62   0.69     0.03  -0.01   0.00     0.27  -0.07   0.17
                     10                     11                     12
                      A                      A                      A
 Frequencies --    367.7446               460.1556               553.1607
 Red. masses --      4.9330                 1.2222                 6.1513
 Frc consts  --      0.3931                 0.1525                 1.1090
 IR Inten    --      1.9345                 5.6722                32.1944
  Atom  AN      X      Y      Z        X      Y      Z        X      Y      Z
     1   6     0.04  -0.13  -0.00    -0.01   0.01  -0.00     0.02  -0.25   0.01
     2   1     0.22  -0.12   0.02     0.00   0.01   0.00    -0.08  -0.27  -0.02
     3   6    -0.21  -0.14  -0.04    -0.01   0.01  -0.01     0.13  -0.21   0.03
     4   6     0.01  -0.09  -0.04    -0.02   0.01   0.01     0.04  -0.04   0.02
     5   8     0.11   0.19   0.05    -0.02  -0.01  -0.01     0.19   0.25   0.05
     6   8     0.08  -0.16  -0.16    -0.02  -0.00   0.05    -0.12   0.14  -0.00
     7   6     0.12   0.16   0.13     0.02   0.02  -0.03    -0.26   0.06  -0.10
     8   6    -0.01   0.06   0.12     0.07  -0.08   0.01    -0.18  -0.01  -0.06
     9   1     0.28   0.28   0.34     0.04   0.06   0.03    -0.37   0.03  -0.16
    10   1    -0.03   0.42  -0.07     0.04   0.05  -0.09    -0.12  -0.10  -0.03
    11   1    -0.03   0.02   0.07     0.61  -0.06   0.19     0.20   0.02   0.08
    12   1    -0.22   0.11   0.20    -0.20   0.22  -0.21    -0.30   0.19  -0.26
    13   1    -0.09  -0.07  -0.06    -0.10  -0.43   0.12    -0.06  -0.16   0.20
    14   8    -0.15   0.05  -0.05    -0.01   0.04  -0.00     0.16  -0.03   0.05
    15   1    -0.20   0.04  -0.10    -0.37   0.16  -0.22    -0.06   0.08  -0.04
                     13                     14                     15
                      A                      A                      A
 Frequencies --    599.3185               631.5886               737.6396
 Red. masses --      2.3748                 5.0865                 1.3180
 Frc consts  --      0.5026                 1.1955                 0.4225
 IR Inten    --      8.1458                 2.1622                38.4423
  Atom  AN      X      Y      Z        X      Y      Z        X      Y      Z
     1   6     0.00  -0.05   0.00    -0.02   0.07  -0.01    -0.14  -0.01  -0.04
     2   1    -0.09  -0.06  -0.02    -0.46   0.04  -0.13     0.94   0.08   0.29
     3   6     0.09  -0.04   0.03     0.39   0.09   0.12     0.07   0.01   0.03
     4   6    -0.02  -0.00   0.01    -0.14  -0.03  -0.06     0.00  -0.01  -0.01
     5   8     0.02   0.08  -0.00    -0.09   0.16  -0.02     0.00   0.01   0.00
     6   8    -0.06   0.01   0.04    -0.06  -0.28  -0.04    -0.00  -0.01   0.00
     7   6    -0.06   0.01  -0.07     0.02  -0.04   0.03    -0.01  -0.00  -0.00
     8   6     0.22  -0.01   0.07    -0.05   0.01  -0.01     0.00  -0.00   0.00
     9   1    -0.08  -0.05  -0.15     0.31   0.10   0.28     0.01   0.01   0.02
    10   1    -0.11  -0.05   0.06    -0.13   0.27  -0.23    -0.01   0.01  -0.02
    11   1     0.08  -0.14  -0.16    -0.04   0.10   0.13     0.00   0.01   0.01
    12   1     0.70  -0.36   0.24    -0.17   0.15  -0.13     0.01   0.00  -0.02
    13   1    -0.07   0.17   0.17     0.03  -0.03  -0.07     0.00   0.01   0.00
    14   8    -0.14   0.01  -0.06     0.03  -0.00   0.01    -0.00   0.00  -0.00
    15   1    -0.17   0.02  -0.09     0.07  -0.02   0.03     0.01  -0.00   0.00
                     16                     17                     18
                      A                      A                      A
 Frequencies --    761.6720               769.4327               778.8189
 Red. masses --      4.6242                 7.9757                 1.2871
 Frc consts  --      1.5806                 2.7820                 0.4600
 IR Inten    --     16.2553                19.5588                42.8735
  Atom  AN      X      Y      Z        X      Y      Z        X      Y      Z
     1   6    -0.01  -0.18   0.02    -0.04   0.17   0.07     0.04   0.00  -0.14
     2   1     0.04  -0.19   0.01     0.11   0.19  -0.11    -0.28  -0.00   0.95
     3   6     0.11  -0.13  -0.10     0.02   0.13  -0.26    -0.01   0.00   0.04
     4   6    -0.20   0.11   0.25    -0.05  -0.11   0.58    -0.01  -0.00   0.04
     5   8    -0.15   0.07  -0.12     0.20  -0.06  -0.11     0.01  -0.00  -0.01
     6   8     0.04   0.15  -0.04    -0.01  -0.14  -0.13     0.00  -0.00  -0.01
     7   6     0.17  -0.04   0.08    -0.15   0.02  -0.07    -0.00   0.00  -0.00
     8   6     0.07  -0.07  -0.01    -0.04   0.03   0.00    -0.00   0.00  -0.00
     9   1    -0.00  -0.02   0.07    -0.02   0.09   0.05    -0.00  -0.00  -0.01
    10   1     0.22  -0.08   0.09    -0.18   0.13  -0.18    -0.01  -0.00   0.01
    11   1     0.04   0.02   0.10    -0.04   0.04   0.02    -0.00  -0.00  -0.01
    12   1    -0.22   0.13  -0.08     0.22  -0.06  -0.05    -0.00  -0.00   0.01
    13   1     0.18  -0.01  -0.45    -0.11   0.07   0.30    -0.00  -0.00   0.01
    14   8    -0.04   0.03  -0.02     0.02  -0.02   0.01     0.00  -0.00   0.00
    15   1     0.44  -0.17   0.22    -0.24   0.09  -0.12    -0.01   0.01  -0.01
                     19                     20                     21
                      A                      A                      A
 Frequencies --    791.4619               849.7563              1005.6656
 Red. masses --      1.2608                 1.2756                 1.5362
 Frc consts  --      0.4653                 0.5427                 0.9154
 IR Inten    --     41.7661                44.2920                23.2559
  Atom  AN      X      Y      Z        X      Y      Z        X      Y      Z
     1   6     0.01   0.01  -0.00    -0.00   0.04   0.00     0.00  -0.02   0.00
     2   1    -0.02   0.01   0.02    -0.01   0.05  -0.01     0.00  -0.03   0.00
     3   6    -0.03   0.01   0.01    -0.00   0.03  -0.00     0.01  -0.01  -0.00
     4   6     0.04  -0.01  -0.01     0.02  -0.05   0.00    -0.01   0.05   0.00
     5   8     0.04  -0.01   0.02     0.04  -0.00   0.01    -0.04  -0.00  -0.01
     6   8    -0.02   0.02   0.01    -0.05  -0.04   0.00     0.08  -0.03   0.01
     7   6    -0.07  -0.03  -0.01    -0.03   0.06  -0.00     0.02   0.02  -0.09
     8   6     0.03  -0.07   0.02     0.04  -0.04   0.01    -0.12   0.01   0.08
     9   1    -0.02   0.22   0.35    -0.10  -0.11  -0.26     0.10  -0.06  -0.18
    10   1     0.03   0.16  -0.36    -0.15  -0.09   0.29     0.10  -0.06  -0.07
    11   1     0.08   0.17   0.38     0.33  -0.22  -0.17     0.51  -0.12   0.11
    12   1     0.21   0.11  -0.38    -0.38   0.06   0.17    -0.01  -0.02   0.07
    13   1     0.08   0.19  -0.16     0.12  -0.04  -0.34    -0.22   0.50   0.47
    14   8    -0.04   0.02  -0.03    -0.03   0.03  -0.02    -0.01   0.00  -0.03
    15   1     0.39  -0.14   0.21     0.45  -0.17   0.22     0.23  -0.05   0.15
                     22                     23                     24
                      A                      A                      A
 Frequencies --   1082.3391              1100.7680              1171.2510
 Red. masses --      2.4193                 4.6693                 1.7850
 Frc consts  --      1.6698                 3.3334                 1.4427
 IR Inten    --     27.4699                61.1974                91.8756
  Atom  AN      X      Y      Z        X      Y      Z        X      Y      Z
     1   6     0.00  -0.00   0.00     0.01  -0.09   0.00    -0.00   0.02  -0.00
     2   1    -0.00  -0.00   0.00     0.02  -0.10   0.01    -0.02   0.03  -0.00
     3   6     0.00  -0.00   0.00    -0.00  -0.04  -0.00     0.01   0.01   0.00
     4   6    -0.00   0.01  -0.01     0.05   0.25   0.02    -0.06  -0.10  -0.02
     5   8    -0.01  -0.00  -0.00    -0.10  -0.04  -0.03    -0.02   0.01  -0.01
     6   8     0.03  -0.01  -0.02     0.27  -0.14   0.08     0.08  -0.03   0.03
     7   6    -0.06   0.05   0.25    -0.31   0.08  -0.06    -0.01   0.17  -0.02
     8   6     0.01  -0.03  -0.23     0.06   0.04   0.00     0.04  -0.11  -0.01
     9   1    -0.11   0.03   0.24    -0.15   0.18   0.13    -0.36   0.05  -0.25
    10   1    -0.09   0.03   0.31    -0.36   0.18  -0.15     0.26  -0.24   0.28
    11   1     0.47  -0.16  -0.28    -0.16  -0.04  -0.19    -0.45   0.20   0.27
    12   1     0.27  -0.12  -0.29    -0.09   0.03   0.10    -0.05   0.15  -0.32
    13   1    -0.15   0.31   0.27     0.17  -0.42  -0.39     0.08   0.15   0.22
    14   8    -0.00  -0.00  -0.01     0.00   0.01   0.01    -0.01  -0.01  -0.00
    15   1     0.01   0.01   0.02     0.01  -0.02  -0.02    -0.05   0.02  -0.01
                     25                     26                     27
                      A                      A                      A
 Frequencies --   1193.2358              1255.7808              1340.2441
 Red. masses --      1.3088                 2.7651                 1.2055
 Frc consts  --      1.0979                 2.5691                 1.2758
 IR Inten    --     77.7706               360.8007               102.7454
  Atom  AN      X      Y      Z        X      Y      Z        X      Y      Z
     1   6    -0.00   0.02  -0.00     0.00  -0.05   0.00    -0.00   0.01  -0.00
     2   1    -0.01   0.02  -0.00     0.03  -0.06   0.00    -0.00   0.01  -0.00
     3   6     0.01   0.01   0.00    -0.01  -0.01  -0.00    -0.00   0.00  -0.00
     4   6    -0.04  -0.07  -0.01     0.13   0.24   0.04    -0.03  -0.05  -0.01
     5   8    -0.01   0.01  -0.00     0.01  -0.03   0.00    -0.00   0.00  -0.00
     6   8     0.04  -0.00   0.00    -0.14  -0.11  -0.03     0.05   0.06   0.01
     7   6    -0.00   0.05   0.01     0.12   0.09  -0.00    -0.04   0.01   0.01
     8   6    -0.11   0.03   0.03    -0.07  -0.08  -0.00    -0.01  -0.05   0.01
     9   1    -0.04  -0.02  -0.10    -0.11  -0.12  -0.36     0.71  -0.27  -0.23
    10   1     0.26  -0.14   0.03    -0.35   0.13   0.37    -0.48   0.21   0.15
    11   1     0.28  -0.03   0.08    -0.09   0.18   0.38    -0.09   0.03   0.10
    12   1     0.58  -0.23  -0.08     0.35  -0.09  -0.28     0.08   0.03  -0.18
    13   1    -0.04  -0.33  -0.52    -0.00  -0.03  -0.11     0.03   0.01  -0.03
    14   8     0.01   0.00   0.02     0.00  -0.00   0.01    -0.00  -0.00   0.00
    15   1     0.01  -0.02  -0.02    -0.04   0.01  -0.02    -0.01  -0.00  -0.01
                     28                     29                     30
                      A                      A                      A
 Frequencies --   1409.0738              1432.5872              1470.0764
 Red. masses --      1.2886                 1.0623                 1.1650
 Frc consts  --      1.5074                 1.2845                 1.4834
 IR Inten    --     26.7785                43.9881                 9.2724
  Atom  AN      X      Y      Z        X      Y      Z        X      Y      Z
     1   6     0.00  -0.01  -0.00     0.00  -0.00   0.00    -0.00  -0.00   0.00
     2   1     0.01  -0.02   0.00     0.00  -0.00   0.00     0.00  -0.00  -0.00
     3   6    -0.00  -0.00  -0.00    -0.00  -0.00   0.00    -0.00   0.00  -0.00
     4   6     0.03   0.06   0.01     0.01   0.02   0.00     0.00   0.01  -0.00
     5   8     0.01  -0.01   0.00     0.00  -0.00   0.00     0.00  -0.00   0.00
     6   8    -0.05  -0.02  -0.03    -0.01  -0.01  -0.01    -0.01  -0.00  -0.01
     7   6    -0.07   0.04   0.07    -0.03   0.01   0.01    -0.05   0.02   0.03
     8   6     0.03  -0.00   0.04     0.01  -0.02   0.01     0.03  -0.01  -0.10
     9   1     0.42  -0.24  -0.23     0.09  -0.06  -0.06     0.19  -0.09  -0.08
    10   1     0.59  -0.18  -0.26     0.17  -0.05  -0.10     0.18  -0.07  -0.07
    11   1    -0.16  -0.13  -0.23     0.17  -0.02   0.04     0.08   0.40   0.53
    12   1     0.02   0.16  -0.22    -0.12   0.03   0.04    -0.14  -0.35   0.54
    13   1    -0.05  -0.16   0.14     0.38   0.60  -0.42    -0.07  -0.10   0.05
    14   8    -0.00   0.01  -0.01     0.01  -0.03   0.03    -0.00   0.00  -0.00
    15   1     0.11  -0.03   0.06    -0.40   0.12  -0.21     0.06  -0.01   0.04
                     31                     32                     33
                      A                      A                      A
 Frequencies --   1515.6995              1869.6459              2252.1260
 Red. masses --      1.0918                13.0297                 5.7236
 Frc consts  --      1.4778                26.8351                17.1041
 IR Inten    --     21.2179               531.9828                57.1199
  Atom  AN      X      Y      Z        X      Y      Z        X      Y      Z
     1   6     0.00  -0.01   0.00    -0.00   0.05  -0.00     0.03  -0.38   0.01
     2   1     0.00  -0.01   0.00     0.02   0.08   0.01     0.05  -0.75   0.01
     3   6    -0.00  -0.00  -0.00    -0.01  -0.03  -0.00    -0.04   0.53  -0.01
     4   6     0.01   0.03   0.00     0.72  -0.35   0.20     0.01  -0.08   0.00
     5   8     0.00  -0.00   0.00    -0.48   0.24  -0.13    -0.00   0.00  -0.00
     6   8    -0.02  -0.01  -0.01    -0.03   0.02  -0.01    -0.00  -0.00  -0.00
     7   6    -0.02   0.01  -0.07    -0.03  -0.01  -0.00     0.00  -0.00  -0.00
     8   6    -0.00  -0.00   0.00     0.00  -0.00  -0.00    -0.00   0.00   0.00
     9   1     0.41   0.32   0.48     0.09  -0.01   0.00    -0.01  -0.00   0.00
    10   1     0.08  -0.48   0.51    -0.01  -0.04  -0.01    -0.00   0.00  -0.00
    11   1    -0.00  -0.00  -0.00    -0.00   0.00   0.01    -0.00  -0.00  -0.00
    12   1     0.00   0.01  -0.01    -0.01  -0.00   0.01    -0.00   0.00   0.00
    13   1     0.01   0.01  -0.01     0.03   0.00   0.00    -0.00   0.00  -0.00
    14   8     0.00  -0.00   0.00     0.00  -0.00   0.00     0.00   0.00   0.00
    15   1    -0.01   0.00  -0.01    -0.01   0.00  -0.00     0.00  -0.00   0.00
                     34                     35                     36
                      A                      A                      A
 Frequencies --   3109.4226              3117.7158              3168.6593
 Red. masses --      1.0591                 1.0558                 1.1068
 Frc consts  --      6.0332                 6.0467                 6.5473
 IR Inten    --      2.5992                 8.0629                 2.8187
  Atom  AN      X      Y      Z        X      Y      Z        X      Y      Z
     1   6    -0.00  -0.00  -0.00     0.00   0.00   0.00    -0.00   0.00  -0.00
     2   1    -0.00  -0.00  -0.00     0.00   0.00   0.00    -0.00  -0.00  -0.00
     3   6    -0.00  -0.00   0.00     0.00  -0.00   0.00     0.00   0.00  -0.00
     4   6    -0.00  -0.00  -0.00     0.00   0.00   0.00     0.00  -0.00   0.00
     5   8     0.00  -0.00   0.00    -0.00  -0.00  -0.00    -0.00   0.00  -0.00
     6   8     0.00  -0.00   0.00    -0.00   0.00  -0.00    -0.00   0.00   0.00
     7   6     0.01  -0.02   0.05    -0.01   0.02  -0.04    -0.04  -0.08  -0.01
     8   6    -0.01   0.00  -0.04    -0.01  -0.00  -0.05     0.01   0.03  -0.00
     9   1     0.08   0.55  -0.37    -0.06  -0.44   0.30     0.05   0.38  -0.27
    10   1    -0.20  -0.29  -0.21     0.15   0.22   0.15     0.40   0.58   0.43
    11   1    -0.08  -0.36   0.24    -0.10  -0.43   0.29    -0.04  -0.19   0.13
    12   1     0.17   0.34   0.22     0.22   0.45   0.29    -0.08  -0.15  -0.10
    13   1    -0.00  -0.00  -0.00     0.00  -0.00  -0.01     0.00   0.00  -0.00
    14   8     0.00  -0.00   0.00     0.00  -0.00   0.00     0.00  -0.00   0.00
    15   1    -0.00  -0.00   0.00    -0.00   0.00  -0.00    -0.00  -0.00  -0.00
                     37                     38                     39
                      A                      A                      A
 Frequencies --   3201.5714              3486.9057              3833.8260
 Red. masses --      1.1114                 1.1702                 1.0668
 Frc consts  --      6.7119                 8.3830                 9.2382
 IR Inten    --      4.4509                61.1463                74.7780
  Atom  AN      X      Y      Z        X      Y      Z        X      Y      Z
     1   6    -0.00   0.00   0.00     0.01  -0.12   0.00     0.00   0.00   0.00
     2   1     0.00  -0.00  -0.00    -0.07   0.99  -0.01     0.00  -0.00   0.00
     3   6    -0.00  -0.00   0.00    -0.00   0.04  -0.00     0.00   0.00   0.00
     4   6     0.00  -0.00  -0.00    -0.00  -0.00  -0.00    -0.00  -0.00  -0.00
     5   8    -0.00   0.00  -0.00     0.00   0.00   0.00     0.00  -0.00   0.00
     6   8    -0.00   0.00  -0.00     0.00  -0.00   0.00     0.00   0.00  -0.00
     7   6    -0.01  -0.03  -0.00    -0.00  -0.00   0.00    -0.00  -0.00   0.00
     8   6    -0.03  -0.09   0.00    -0.00  -0.00  -0.00    -0.00   0.00  -0.00
     9   1     0.02   0.14  -0.10    -0.00   0.00  -0.00     0.00   0.00  -0.00
    10   1     0.12   0.18   0.14     0.00   0.00   0.00    -0.00  -0.00  -0.00
    11   1     0.12   0.55  -0.39     0.00   0.00  -0.00     0.00   0.00  -0.00
    12   1     0.25   0.50   0.35    -0.00  -0.00   0.00     0.00  -0.00  -0.00
    13   1    -0.00  -0.01  -0.00     0.00  -0.00   0.00     0.01  -0.01   0.01
    14   8    -0.00   0.00  -0.00    -0.00  -0.00   0.00    -0.03  -0.04   0.03
    15   1     0.00  -0.00   0.00     0.00   0.00  -0.00     0.53   0.69  -0.49

 -------------------
 - Thermochemistry -
 -------------------
 Temperature   298.150 Kelvin.  Pressure   1.00000 Atm.
 Atom     1 has atomic number  6 and mass  12.00000
 Atom     2 has atomic number  1 and mass   1.00783
 Atom     3 has atomic number  6 and mass  12.00000
 Atom     4 has atomic number  6 and mass  12.00000
 Atom     5 has atomic number  8 and mass  15.99491
 Atom     6 has atomic number  8 and mass  15.99491
 Atom     7 has atomic number  6 and mass  12.00000
 Atom     8 has atomic number  6 and mass  12.00000
 Atom     9 has atomic number  1 and mass   1.00783
 Atom    10 has atomic number  1 and mass   1.00783
 Atom    11 has atomic number  1 and mass   1.00783
 Atom    12 has atomic number  1 and mass   1.00783
 Atom    13 has atomic number  1 and mass   1.00783
 Atom    14 has atomic number  8 and mass  15.99491
 Atom    15 has atomic number  1 and mass   1.00783
 Molecular mass:   115.03952 amu.
 Principal axes and moments of inertia in atomic units:
                           1         2         3
     Eigenvalues --   540.756041789.700932188.95836
           X            0.99973   0.02173  -0.00838
           Y           -0.02174   0.99976  -0.00042
           Z            0.00837   0.00060   0.99996
 This molecule is an asymmetric top.
 Rotational symmetry number  1.
 Warning -- assumption of classical behavior for rotation
           may cause significant error
 Rotational temperatures (Kelvin)      0.16017     0.04840     0.03957
 Rotational constants (GHZ):           3.33744     1.00840     0.82447
    1 imaginary frequencies ignored.
 Zero-point vibrational energy     278975.5 (Joules/Mol)
                                   66.67675 (Kcal/Mol)
 Warning -- explicit consideration of  12 degrees of freedom as
           vibrations may cause significant error
 Vibrational temperatures:     84.30   104.93   156.97   210.96   254.91
          (Kelvin)            263.52   371.77   457.17   529.10   662.06
                              795.87   862.29   908.72  1061.30  1095.88
                             1107.04  1120.55  1138.74  1222.61  1446.93
                             1557.24  1583.76  1685.17  1716.80  1806.79
                             1928.31  2027.34  2061.17  2115.11  2180.75
                             2690.00  3240.31  4473.77  4485.70  4558.99
                             4606.35  5016.88  5516.02
 
 Zero-point correction=                           0.106256 (Hartree/Particle)
 Thermal correction to Energy=                    0.115886
 Thermal correction to Enthalpy=                  0.116830
 Thermal correction to Gibbs Free Energy=         0.070317
 Sum of electronic and zero-point Energies=           -420.085034
 Sum of electronic and thermal Energies=              -420.075404
 Sum of electronic and thermal Enthalpies=            -420.074460
 Sum of electronic and thermal Free Energies=         -420.120973
 
                     E (Thermal)             CV                S
                      KCal/Mol        Cal/Mol-Kelvin    Cal/Mol-Kelvin
 Total                   72.719             33.037             97.894
 Electronic               0.000              0.000              1.377
 Translational            0.889              2.981             40.136
 Rotational               0.889              2.981             29.139
 Vibrational             70.942             27.076             27.242
 Vibration     1          0.596              1.974              4.504
 Vibration     2          0.599              1.967              4.073
 Vibration     3          0.606              1.942              3.285
 Vibration     4          0.617              1.906              2.716
 Vibration     5          0.628              1.870              2.358
 Vibration     6          0.631              1.863              2.296
 Vibration     7          0.667              1.749              1.673
 Vibration     8          0.704              1.640              1.322
 Vibration     9          0.740              1.539              1.089
 Vibration    10          0.818              1.338              0.766
 Vibration    11          0.909              1.133              0.538
 Vibration    12          0.957              1.033              0.451
                       Q            Log10(Q)             Ln(Q)
 Total Bot       0.453302D-32        -32.343613        -74.473920
 Total V=0       0.339458D+17         16.530786         38.063542
 Vib (Bot)       0.896969D-46        -46.047222       -106.027648
 Vib (Bot)    1  0.352511D+01          0.547172          1.259911
 Vib (Bot)    2  0.282671D+01          0.451282          1.039115
 Vib (Bot)    3  0.187762D+01          0.273609          0.630007
 Vib (Bot)    4  0.138426D+01          0.141216          0.325163
 Vib (Bot)    5  0.113473D+01          0.054893          0.126395
 Vib (Bot)    6  0.109540D+01          0.039573          0.091120
 Vib (Bot)    7  0.752274D+00         -0.123624         -0.284655
 Vib (Bot)    8  0.592403D+00         -0.227383         -0.523568
 Vib (Bot)    9  0.495829D+00         -0.304668         -0.701524
 Vib (Bot)   10  0.369583D+00         -0.432288         -0.995379
 Vib (Bot)   11  0.282840D+00         -0.548460         -1.262875
 Vib (Bot)   12  0.249323D+00         -0.603237         -1.389004
 Vib (V=0)       0.671702D+03          2.827176          6.509814
 Vib (V=0)    1  0.406039D+01          0.608568          1.401279
 Vib (V=0)    2  0.337059D+01          0.527706          1.215089
 Vib (V=0)    3  0.244306D+01          0.387934          0.893250
 Vib (V=0)    4  0.197179D+01          0.294861          0.678942
 Vib (V=0)    5  0.174001D+01          0.240551          0.553888
 Vib (V=0)    6  0.170412D+01          0.231500          0.533048
 Vib (V=0)    7  0.140328D+01          0.147144          0.338813
 Vib (V=0)    8  0.127520D+01          0.105580          0.243106
 Vib (V=0)    9  0.120416D+01          0.080686          0.185785
 Vib (V=0)   10  0.112177D+01          0.049902          0.114903
 Vib (V=0)   11  0.107445D+01          0.031188          0.071813
 Vib (V=0)   12  0.105871D+01          0.024779          0.057056
 Electronic      0.200000D+01          0.301030          0.693147
 Translational   0.484981D+08          7.685724         17.697035
 Rotational      0.521021D+06          5.716855         13.163546
 ***** Axes restored to original set *****
 -------------------------------------------------------------------
 Center     Atomic                   Forces (Hartrees/Bohr)
 Number     Number              X              Y              Z
 -------------------------------------------------------------------
      1        6          -0.000036991    0.000045872    0.000012119
      2        1          -0.000016631    0.000079973   -0.000028398
      3        6          -0.000090118   -0.000363034    0.000059102
      4        6           0.000427385    0.000994758    0.000186524
      5        8          -0.000119766   -0.000272691   -0.000090996
      6        8          -0.001040542   -0.000312917    0.000788783
      7        6          -0.002560887    0.001038004   -0.001484400
      8        6           0.009438246   -0.003984243    0.001541672
      9        1          -0.000038660   -0.000088468    0.000051800
     10        1          -0.000026918    0.000084545   -0.000060691
     11        1          -0.002407498    0.000380523   -0.000191700
     12        1          -0.003092333    0.001780743   -0.000517598
     13        1          -0.020411613    0.004584054   -0.008872289
     14        8           0.020241729   -0.004651048    0.009206925
     15        1          -0.000265404    0.000683929   -0.000600853
 -------------------------------------------------------------------
 Cartesian Forces:  Max     0.020411613 RMS     0.005105174

 GradGradGradGradGradGradGradGradGradGradGradGradGradGradGradGradGradGrad
 Berny optimization.
 Search for a local minimum.
 Step number   1 out of a maximum of    2
 All quantities printed in internal units (Hartrees-Bohrs-Radians)
 Second derivative matrix not updated -- analytic derivatives used.
 ITU=  0
     Eigenvalues ---   -0.16725   0.00072   0.00092   0.00143   0.00241
     Eigenvalues ---    0.00449   0.00649   0.01029   0.01538   0.02058
     Eigenvalues ---    0.02592   0.03035   0.03919   0.05000   0.05910
     Eigenvalues ---    0.06601   0.07202   0.08533   0.08730   0.08989
     Eigenvalues ---    0.10386   0.13383   0.14382   0.16857   0.21933
     Eigenvalues ---    0.23778   0.26348   0.27929   0.40850   0.54283
     Eigenvalues ---    0.62994   0.71408   0.79996   0.83561   0.85821
     Eigenvalues ---    0.95718   0.98159   1.78776   2.70719
 Eigenvalue     1 is  -1.67D-01 should be greater than     0.000000 Eigenvector:
                          X13       X14       Z13       X8        Y13
   1                    0.78562  -0.33461   0.31059  -0.26341  -0.19491
                          Z14       Y8        Y12       Y15       Z15
   1                   -0.11008   0.08717  -0.07105  -0.06926   0.06787
 Angle between quadratic step and forces=  36.88 degrees.
 Linear search not attempted -- first point.
 B after Tr=     0.005716   -0.003618    0.004616
         Rot=    1.000000   -0.000253   -0.000445   -0.000115 Ang=  -0.06 deg.
 Variable       Old X    -DE/DX   Delta X   Delta X   Delta X     New X
                                 (Linear)    (Quad)   (Total)
    X1        2.38346  -0.00004   0.00000  -0.03110  -0.02647   2.35699
    Y1        4.25101   0.00005   0.00000   0.00218  -0.00083   4.25017
    Z1       -0.11205   0.00001   0.00000  -0.00537  -0.00070  -0.11275
    X2        2.24112  -0.00002   0.00000  -0.02203  -0.01789   2.22323
    Y2        6.25900   0.00008   0.00000   0.00262  -0.00041   6.25858
    Z2       -0.14047  -0.00003   0.00000  -0.00926  -0.00345  -0.14392
    X3        2.55673  -0.00009   0.00000  -0.03656  -0.03137   2.52536
    Y3        1.99206  -0.00036   0.00000   0.00182  -0.00118   1.99088
    Z3       -0.07991   0.00006   0.00000   0.00252   0.00590  -0.07401
    X4        2.92154   0.00043   0.00000  -0.03975  -0.03384   2.88770
    Y4       -0.74971   0.00099   0.00000   0.00273  -0.00024  -0.74995
    Z4        0.01521   0.00019   0.00000   0.00948   0.01115   0.02636
    X5        4.90489  -0.00012   0.00000  -0.04844  -0.04181   4.86308
    Y5       -1.66967  -0.00027   0.00000  -0.00170  -0.00449  -1.67416
    Z5        0.56536  -0.00009   0.00000   0.02984   0.02929   0.59465
    X6        0.92050  -0.00104   0.00000  -0.03240  -0.02670   0.89380
    Y6       -2.19229  -0.00031   0.00000  -0.00063  -0.00375  -2.19603
    Z6       -0.56791   0.00079   0.00000  -0.01158  -0.00886  -0.57677
    X7       -1.51068  -0.00256   0.00000  -0.02676  -0.02177  -1.53245
    Y7       -1.07781   0.00104   0.00000   0.00702   0.00359  -1.07421
    Z7       -1.06509  -0.00148   0.00000  -0.02366  -0.01822  -1.08331
    X8       -2.85972   0.00944   0.00000   0.06682   0.07389  -2.78582
    Y8       -0.49822  -0.00398   0.00000  -0.02420  -0.02916  -0.52739
    Z8        1.37911   0.00154   0.00000   0.00399   0.01082   1.38994
    X9       -1.29709  -0.00004   0.00000  -0.01863  -0.01505  -1.31214
    Y9        0.60660  -0.00009   0.00000   0.00816   0.00537   0.61197
    Z9       -2.23351   0.00005   0.00000  -0.01644  -0.01035  -2.24385
   X10       -2.51813  -0.00003   0.00000  -0.02738  -0.02301  -2.54113
   Y10       -2.50865   0.00008   0.00000   0.00798   0.00487  -2.50378
   Z10       -2.14405  -0.00006   0.00000  -0.02026  -0.01464  -2.15868
   X11       -3.20105  -0.00241   0.00000  -0.02323  -0.01476  -3.21581
   Y11       -2.16460   0.00038   0.00000   0.00031  -0.00533  -2.16993
   Z11        2.53687  -0.00019   0.00000  -0.00767  -0.00128   2.53560
   X12       -2.05570  -0.00309   0.00000  -0.03495  -0.02732  -2.08302
   Y12        1.06171   0.00178   0.00000   0.02928   0.02395   1.08566
   Z12        2.45513  -0.00052   0.00000  -0.01970  -0.01268   2.44245
   X13       -5.09870  -0.02041   0.00000  -0.07381  -0.06762  -5.16632
   Y13        0.32795   0.00458   0.00000   0.02700   0.02187   0.34983
   Z13        0.66656  -0.00887   0.00000  -0.04773  -0.03833   0.62823
   X14       -7.18008   0.02024   0.00000   0.18145   0.18685  -6.99323
   Y14        0.73083  -0.00465   0.00000  -0.02181  -0.02695   0.70388
   Z14       -0.21601   0.00921   0.00000   0.03979   0.05099  -0.16502
   X15       -8.14227  -0.00027   0.00000   0.08042   0.08686  -8.05541
   Y15       -0.53149   0.00068   0.00000   0.01852   0.01269  -0.51879
   Z15        0.69314  -0.00060   0.00000  -0.01119   0.00034   0.69349
         Item               Value     Threshold  Converged?
 Maximum Force            0.020412     0.000450     NO 
 RMS     Force            0.005105     0.000300     NO 
 Maximum Displacement     0.186853     0.001800     NO 
 RMS     Displacement     0.039251     0.001200     NO 
 Predicted change in Energy=-9.513463D-03
 GradGradGradGradGradGradGradGradGradGradGradGradGradGradGradGradGradGrad


 ----------------------------------------------------------------------

 Electric dipole moment (input orientation):
 (Debye = 10**-18 statcoulomb cm , SI units = C m)
                  (au)            (Debye)         (10**-30 SI)
   Tot        0.119804D+01      0.304512D+01      0.101574D+02
   x         -0.100791D+01     -0.256185D+01     -0.854542D+01
   y          0.600234D+00      0.152564D+01      0.508899D+01
   z          0.243197D+00      0.618144D+00      0.206191D+01

 Dipole polarizability, Alpha (input orientation).
 (esu units = cm**3 , SI units = C**2 m**2 J**-1)
 Alpha(0;0):
               (au)            (10**-24 esu)      (10**-40 SI)
   iso        0.766007D+02      0.113511D+02      0.126298D+02
   aniso      0.449568D+02      0.666192D+01      0.741238D+01
   xx         0.997773D+02      0.147855D+02      0.164510D+02
   yx        -0.550294D+01     -0.815451D+00     -0.907312D+00
   yy         0.786982D+02      0.116619D+02      0.129756D+02
   zx         0.704583D+01      0.104408D+01      0.116170D+01
   zy        -0.190126D+01     -0.281737D+00     -0.313475D+00
   zz         0.513267D+02      0.760583D+01      0.846262D+01

 ----------------------------------------------------------------------

 Dipole orientation:
     6          2.37633636          4.25524843          0.10186128
     1          2.99737883          5.80862829          1.22186329
     6          1.68322375          2.51225395         -1.16914647
     6          0.95277173          0.42273472         -2.83041269
     8          1.90972972          0.11401975         -4.84822582
     8         -0.86697932         -1.12780291         -1.98805606
     6         -1.89557140         -0.84859859          0.51473287
     6         -0.19152716         -2.08719146          2.43620793
     1         -2.20045146          1.14457129          0.94175610
     1         -3.71933516         -1.79329846          0.42640250
     1          0.05812645         -4.10551367          2.12352142
     1          1.59126266         -1.11013308          2.75975868
     1         -1.42320341         -1.86088674          4.58913855
     8         -2.88134905         -1.82915949          6.36288506
     1         -2.95485353         -3.62071022          6.72449428

 Electric dipole moment (dipole orientation):
 (Debye = 10**-18 statcoulomb cm , SI units = C m)
                  (au)            (Debye)         (10**-30 SI)
   Tot        0.119804D+01      0.304512D+01      0.101574D+02
   x          0.000000D+00      0.000000D+00      0.000000D+00
   y          0.000000D+00      0.000000D+00      0.000000D+00
   z          0.119804D+01      0.304512D+01      0.101574D+02

 Dipole polarizability, Alpha (dipole orientation).
 (esu units = cm**3 , SI units = C**2 m**2 J**-1)
 Alpha(0;0):
               (au)            (10**-24 esu)      (10**-40 SI)
   iso        0.766007D+02      0.113511D+02      0.126298D+02
   aniso      0.449568D+02      0.666192D+01      0.741238D+01
   xx         0.650691D+02      0.964225D+01      0.107284D+02
   yx         0.118009D+02      0.174872D+01      0.194571D+01
   yy         0.703977D+02      0.104319D+02      0.116070D+02
   zx        -0.168222D+02     -0.249279D+01     -0.277360D+01
   zy         0.291070D+01      0.431321D+00      0.479909D+00
   zz         0.943354D+02      0.139791D+02      0.155538D+02

 ----------------------------------------------------------------------
 1\1\GINC-AJ\Freq\UM062X\6-311++G(d,p)\C5H7O3(2)\AAYUSH\02-Apr-2025\0\\
 # freq 6-311++g(d,p) m062x\\Title Card Required\\0,2\C,1.261272,2.2495
 36,-0.059292\H,1.185951,3.312118,-0.074334\C,1.352964,1.054153,-0.0422
 85\C,1.546014,-0.396731,0.008049\O,2.595556,-0.883549,0.299176\O,0.487
 107,-1.160108,-0.300525\C,-0.79942,-0.570351,-0.563623\C,-1.513297,-0.
 263649,0.729795\H,-0.686388,0.320997,-1.18192\H,-1.332535,-1.327518,-1
 .13458\H,-1.693925,-1.145456,1.342456\H,-1.087827,0.561834,1.299199\H,
 -2.698116,0.173546,0.352728\O,-3.799534,0.386739,-0.114307\H,-4.308705
 ,-0.28125,0.366796\\Version=ES64L-G16RevA.03\State=2-A\HF=-420.19129\S
 2=0.76074\S2-1=0.\S2A=0.750051\RMSD=5.687e-09\RMSF=5.105e-03\ZeroPoint
 =0.1062562\Thermal=0.1158858\Dipole=-1.0079109,0.6002336,0.2431966\Dip
 oleDeriv=-0.160446,0.0127728,-0.0034049,-0.0076683,-0.2126782,0.006416
 9,0.0029367,-0.0025907,-0.1184945,0.2233076,-0.0042538,0.0049129,0.017
 2696,0.2731332,-0.0003372,0.0031952,-0.0030959,0.2000905,-0.1643902,-0
 .0397823,-0.0094497,-0.0707978,-0.5987865,-0.0019772,-0.0158939,0.0091
 026,-0.1073752,2.4256938,0.0238691,0.3875417,0.5431784,1.7618475,0.035
 9667,0.5655371,-0.0170649,0.5207101,-1.3672877,0.2700828,-0.1854997,0.
 302474,-0.8221153,0.0834631,-0.2841262,0.0779453,-0.4093854,-1.8880338
 ,-0.1679433,-0.1838707,-0.5466908,-0.6670247,-0.1128534,-0.194048,-0.0
 908905,-0.3987548,0.8287979,-0.0147309,-0.0182421,-0.2057189,0.2279023
 ,-0.0111417,-0.2696393,0.0723182,0.2973191,0.7565011,-0.1471778,0.1885
 432,-0.2009311,0.1153061,-0.0803279,0.2851248,-0.0912668,0.0003859,-0.
 0170135,-0.0138049,0.0460705,0.0391809,-0.0031399,0.0689082,0.0424243,
 0.0509588,0.0184928,-0.0144844,-0.0237729,-0.0203519,-0.0353388,0.0015
 573,-0.071473,-0.007507,-0.0363557,0.0397008,-0.0433069,0.0273129,-0.0
 242114,-0.0316699,-0.0122707,0.0666015,0.0379029,0.0290118,0.0157868,-
 0.0189857,-0.0335438,-0.0640415,0.0580185,-0.0000192,-0.0198375,0.0012
 08,-0.0389117,0.0250991,-0.7053114,0.1565533,-0.2224157,0.1719518,0.10
 99997,0.0816658,-0.3477142,0.0936142,0.0553644,-0.2357695,-0.0151151,0
 .0835916,-0.097313,-0.3705464,-0.1561484,0.2300963,-0.1614686,-0.37825
 7,0.3807287,-0.0304662,0.0208277,0.0640554,0.1968349,0.1110742,-0.0494
 967,0.1086937,0.2393175\Polar=99.7772562,-5.5029359,78.6982499,7.04583
 41,-1.9012558,51.3266554\Quadrupole=-7.2196808,4.9574484,2.2622324,9.6
 060272,-4.427506,-0.0537312\PG=C01 [X(C5H7O3)]\NImag=1\\0.06533220,-0.
 11362915,1.55464953,-0.00021188,-0.02153545,0.06132433,-0.02893189,0.0
 2778292,0.00056824,0.01857468,0.02848033,-0.42126783,0.00565406,-0.028
 15220,0.41166728,0.00059734,0.00560146,-0.02996002,-0.00004048,-0.0056
 2912,0.01798954,-0.03807982,0.08568411,0.00012652,0.00471293,-0.000369
 23,-0.00095906,0.12134986,0.08394519,-1.13338752,0.01529918,-0.0005739
 2,0.00993359,-0.00020166,-0.10677019,1.44900016,0.00010838,0.01614305,
 -0.03431827,-0.00099705,-0.00004722,0.00786653,0.01495314,-0.02120036,
 0.06454047,0.00261759,0.00259023,-0.00018675,0.00598407,-0.00013956,-0
 .00009696,-0.06522511,-0.00227782,0.00413235,0.89838903,0.00178256,0.0
 0828765,0.00100372,0.00191052,-0.00123695,0.00041181,0.01045942,-0.240
 67648,0.00299867,-0.19155657,0.64398706,-0.00058454,0.00063156,0.00320
 111,0.00014990,-0.00005095,0.00581667,0.00333544,-0.00057135,-0.074211
 22,0.19136780,-0.05080784,0.25533742,0.00136208,-0.00205206,0.00030145
 ,0.00019895,0.00002685,0.00042521,-0.01782884,0.04555902,-0.01168800,-
 0.61803211,0.26452049,-0.14929826,0.73967831,-0.00034968,-0.00367448,-
 0.00018705,-0.00182109,0.00053431,-0.00048974,0.04981576,-0.03835230,0
 .01361154,0.27306625,-0.23134381,0.07546366,-0.29633394,0.23914433,0.0
 0042979,-0.00056073,0.00014617,0.00035340,0.00001297,-0.00100407,-0.01
 159066,0.01236177,0.02033275,-0.14898882,0.07325276,-0.11782160,0.1961
 9738,-0.08191075,0.08607103,0.00061458,-0.00229153,-0.00019134,-0.0005
 6143,0.00050068,0.00026366,-0.00098207,-0.01779118,-0.00706489,-0.1843
 0502,-0.09638083,-0.03590758,-0.10821565,-0.02080180,-0.03580513,0.532
 48993,0.00176350,-0.00409353,0.00028326,0.00107801,0.00038580,0.000369
 11,-0.03133933,-0.04138729,-0.00871901,-0.06882490,-0.19526843,-0.0218
 6838,-0.00536401,0.03498772,-0.00126897,0.03711020,0.32390231,0.000167
 35,-0.00025369,0.00014906,0.00002165,0.00006848,-0.00079939,-0.0053390
 7,-0.00507915,0.01593009,-0.04006599,-0.03234821,-0.06097530,-0.033343
 11,-0.00484566,0.00716818,0.11903388,0.02033511,0.09210851,-0.00208142
 ,0.00270734,-0.00055504,0.00000250,-0.00025332,-0.00016846,-0.00015703
 ,0.00121051,0.00019530,-0.04744799,-0.00562219,-0.01125849,0.00956310,
 -0.00190239,0.00148276,-0.15981695,0.04054427,-0.02145650,0.44702155,-
 0.00003875,-0.00049626,0.00004821,-0.00005647,0.00000383,-0.00005485,-
 0.00514263,-0.00458090,-0.00245425,-0.00918384,0.02091089,-0.00246652,
 -0.00961593,-0.00175015,-0.00245521,0.05870232,-0.11810257,0.01445107,
 0.09207481,0.61886648,-0.00128243,-0.00006825,-0.00098015,-0.00007616,
 0.00009292,0.00002133,-0.00021634,-0.00082988,0.00083840,-0.00905159,0
 .00116047,-0.01293628,-0.00143517,-0.00110889,0.00567050,-0.03452423,0
 .01383030,-0.06062611,0.02017191,-0.00391160,0.54807687,0.00010751,0.0
 0016681,0.00019031,-0.00002802,-0.00020803,0.00006123,-0.00063592,-0.0
 0014982,-0.00013792,-0.00213983,0.00066896,0.00300231,0.00049400,-0.00
 013348,-0.00099336,-0.03408752,0.01677747,0.02175842,-0.07953230,-0.00
 476763,0.05421550,0.25794361,-0.00011932,0.00012362,-0.00008481,0.0000
 0332,0.00004089,0.00005161,-0.00024733,0.00012212,-0.00028106,-0.00039
 694,-0.00025221,0.00029131,0.00006523,0.00006286,0.00028672,0.01621189
 ,-0.00355098,-0.00991982,-0.00259289,-0.09105575,-0.02159317,0.1171541
 4,0.55811701,0.00040725,-0.00029160,-0.00027702,-0.00007300,-0.0001171
 0,0.00007764,0.00062098,0.00050916,-0.00059771,-0.00042138,0.00204406,
 0.00138645,-0.00046020,-0.00036889,-0.00059561,0.00473392,-0.00397619,
 0.00792093,0.06375547,-0.02613091,-0.19123483,-0.04560510,0.01275871,0
 .49864716,-0.00040934,-0.00054538,-0.00019551,-0.00000113,-0.00006590,
 -0.00002423,-0.00197406,-0.00166473,-0.00055714,0.00598285,0.00651907,
 -0.00003989,-0.00214725,-0.00102484,-0.00004121,-0.01217236,0.03151829
 ,-0.02254052,-0.05478336,-0.03634743,0.02243800,-0.00099059,-0.0136452
 8,0.00934637,0.06670992,-0.00108219,-0.00037547,-0.00063418,-0.0001212
 0,-0.00005794,-0.00007179,-0.00149168,-0.00032731,-0.00038736,-0.00321
 100,-0.00100235,-0.00082170,0.00075834,0.00007835,-0.00006641,0.008870
 04,-0.01121381,0.00735796,-0.02691747,-0.23166880,0.12428607,0.0007843
 2,0.00902889,-0.00512382,0.02512087,0.25038554,0.00045061,-0.00006187,
 0.00015909,-0.00002461,-0.00011000,0.00003895,-0.00081430,-0.00039625,
 -0.00034383,0.00152834,0.00308399,0.00065632,-0.00042762,-0.00068507,-
 0.00007075,-0.00522516,0.00402759,-0.00185747,0.01814142,0.12118419,-0
 .13689614,0.00606577,0.02366950,-0.01574196,-0.02016097,-0.13507359,0.
 14537612,0.00005539,-0.00031039,-0.00002197,-0.00003618,0.00002400,-0.
 00000096,0.00007461,-0.00038104,0.00017150,0.00025863,0.00515077,-0.00
 220695,-0.00303367,-0.00046377,-0.00027040,-0.03342151,-0.01996111,-0.
 01829335,-0.10489668,-0.09191826,-0.06479369,0.00948809,0.01301373,0.0
 0923759,-0.00010869,-0.00319067,-0.00119484,0.13212134,-0.00038342,0.0
 0031177,-0.00016457,-0.00001929,0.00005628,-0.00001041,-0.00006692,-0.
 00008872,-0.00018292,0.00053288,-0.00226086,0.00116425,0.00175617,0.00
 033539,0.00004659,0.01624328,0.01199451,0.01011143,-0.10349128,-0.1951
 8160,-0.10398884,-0.00171534,-0.00313310,-0.00271441,-0.01166307,-0.01
 573321,-0.01388204,0.09804420,0.20173423,0.00034761,-0.00000829,0.0002
 1688,0.00001982,-0.00002508,-0.00000376,0.00003842,0.00032552,-0.00003
 955,0.00157808,0.00178715,0.00016953,-0.00072037,-0.00012164,-0.000087
 43,-0.00816976,-0.00306667,-0.00169315,-0.06785374,-0.09914369,-0.1257
 6546,-0.01179639,-0.02276026,-0.01584554,0.00961548,0.01236044,0.01158
 568,0.07451770,0.11021800,0.13437037,-0.00017225,0.00013427,0.00003821
 ,0.00001064,0.00003984,-0.00001291,-0.00004644,-0.00006047,0.00004430,
 -0.00017027,-0.00081539,-0.00010333,-0.00003028,0.00019886,0.00001138,
 0.00260013,-0.00043568,-0.00154998,-0.00196115,-0.01312288,0.01129482,
 -0.03651378,-0.03623588,0.02438816,-0.00094156,0.00144917,0.00254121,0
 .00032657,0.00051584,-0.00042874,0.04000657,-0.00013037,0.00014677,0.0
 0008262,0.00004628,0.00003699,-0.00001533,-0.00014644,-0.00010102,0.00
 016031,0.00023902,-0.00046870,0.00023343,-0.00014745,0.00020622,-0.000
 13047,-0.00128693,0.00044064,0.00009771,0.00274098,0.00815210,-0.00597
 033,-0.04599753,-0.24011210,0.12717806,0.00138144,0.00037581,-0.001855
 61,-0.00047941,0.00069492,0.00057756,0.04600924,0.24856464,-0.00009344
 ,0.00010600,0.00014755,0.00003286,0.00000205,-0.00002900,-0.00017347,-
 0.00018211,0.00005315,-0.00018142,-0.00037624,-0.00019364,0.00024640,0
 .00006426,0.00005688,-0.00039689,-0.00073564,0.00205275,0.00291189,0.0
 2521822,-0.01499995,0.03149842,0.12541075,-0.13696698,0.00290777,-0.00
 236586,-0.00386186,-0.00065235,0.00005357,0.00094384,-0.03370176,-0.13
 629053,0.14418214,-0.00037938,-0.00003578,0.00007860,0.00009339,-0.000
 03330,-0.00003315,-0.00097904,-0.00055306,0.00082885,-0.00006859,0.000
 44275,0.00002405,-0.00005750,-0.00015561,0.00000098,0.00213733,-0.0015
 0389,-0.00215118,0.00847107,0.01409428,0.01155916,-0.07877909,-0.09985
 470,-0.05839162,0.00024531,-0.00041647,-0.00084232,-0.00148333,0.00036
 472,0.00318562,0.00142927,-0.00188152,-0.00229829,0.07960199,-0.000290
 27,-0.00025109,0.00024673,-0.00007301,-0.00004212,0.00001635,-0.000393
 31,-0.00033807,0.00030637,0.00029615,0.00036189,-0.00055439,0.00022113
 ,-0.00025539,0.00016246,-0.00069623,0.00072818,0.00096638,-0.00305199,
 -0.00231748,-0.00389025,-0.09004774,-0.20845247,-0.10860028,0.00065400
 ,0.00033829,-0.00005162,0.00068556,0.00128576,-0.00027719,-0.01026198,
 -0.01388009,-0.01361811,0.09750355,0.22109108,-0.00027693,0.00032566,0
 .00014978,0.00006850,0.00009219,0.00000552,0.00007919,0.00008758,-0.00
 005846,-0.00048196,-0.00236211,-0.00025293,0.00042098,0.00054354,0.000
 06456,0.00162565,0.00177951,0.00147518,-0.01452199,-0.02087273,-0.0121
 7994,-0.05066784,-0.11261439,-0.12527489,-0.00057506,0.00031640,0.0010
 0581,0.00356654,-0.00058509,-0.00391619,0.00722176,0.01367502,0.011083
 40,0.05586877,0.12213905,0.13027266,-0.00003258,-0.00023084,0.00010450
 ,-0.00004666,0.00018250,-0.00003925,-0.00032983,-0.00069974,0.00004660
 ,0.00517427,0.00383982,0.00196470,-0.00242658,-0.00017289,-0.00096804,
 -0.00451727,-0.00235880,0.00432624,-0.01984351,0.00746713,-0.00876124,
 0.07047116,-0.03053084,0.02467856,0.00025493,-0.00048929,-0.00017815,0
 .00050769,0.00000834,-0.00055455,-0.00937228,-0.00075576,-0.00039888,-
 0.01474479,0.00872954,-0.00317919,-0.06744481,0.00009397,-0.00010953,-
 0.00002217,-0.00009816,-0.00003743,0.00002413,0.00002424,0.00003563,0.
 00004917,-0.00058005,-0.00023486,-0.00054926,0.00036690,-0.00014401,0.
 00021727,0.00057126,0.00078480,-0.00094726,0.00613302,-0.00252069,0.00
 149164,-0.01329959,-0.01508662,-0.00146610,-0.00059139,0.00024334,0.00
 042019,0.00021326,-0.00032347,-0.00011355,0.01243392,-0.00472099,0.003
 16925,-0.00761994,0.00059368,-0.00317463,0.03631861,0.04087817,-0.0000
 7621,-0.00006486,0.00001977,0.00000095,0.00009749,0.00001221,-0.000108
 09,-0.00028687,-0.00006810,0.00181125,0.00099076,0.00030916,-0.0007499
 5,-0.00001625,-0.00012664,0.00122037,-0.00185914,-0.00111722,0.0064594
 9,-0.00242108,0.00081476,0.03648589,-0.01056591,-0.00998156,0.00047837
 ,0.00025470,-0.00025458,0.00021814,-0.00057836,-0.00021895,-0.01107039
 ,0.00269724,-0.00287391,-0.00987892,0.00419047,-0.00262363,-0.05079933
 ,0.00567615,0.02663818,-0.00004716,-0.00001849,-0.00003416,0.00003826,
 0.00003106,0.00002039,0.00003835,0.00004325,-0.00001563,0.00015249,-0.
 00030729,-0.00020878,-0.00009938,0.00011346,0.00004314,-0.00113866,0.0
 0067591,-0.00045807,0.00654299,-0.00233255,-0.00001436,-0.10295588,0.0
 3766473,-0.03251730,0.00006087,-0.00004485,0.00031572,0.00023666,-0.00
 016071,0.00010616,0.00415107,-0.00010276,0.00062224,0.00424046,-0.0033
 9401,0.00070875,0.05170320,-0.01758606,0.01454537,0.19860199,-0.000049
 13,0.00011167,0.00003471,0.00009599,0.00000397,-0.00001781,-0.00005289
 ,0.00009227,0.00000940,0.00016431,-0.00037477,0.00015428,-0.00013004,0
 .00018653,-0.00008803,0.00010720,0.00040677,0.00060899,-0.00250388,-0.
 00015565,-0.00128831,0.02612540,-0.00848379,0.00978292,0.00043359,-0.0
 0008810,-0.00024130,-0.00061748,0.00040695,0.00045130,-0.00048667,0.00
 070509,-0.00070056,-0.00074760,0.00174655,0.00059091,-0.03281446,-0.02
 003453,-0.00135608,0.17948000,0.28014733,0.00001921,0.00007759,0.00002
 102,0.00000914,-0.00006724,-0.00004064,0.00007840,0.00026940,0.0000938
 3,-0.00153661,-0.00128279,-0.00067545,0.00081538,0.00008387,0.00031321
 ,0.00100292,0.00114328,0.00010278,0.00269997,-0.00141592,0.00082912,-0
 .04787944,0.01861068,-0.01250637,-0.00060313,0.00005212,0.00026559,-0.
 00045692,0.00058365,0.00042082,0.00167162,-0.00075917,0.00029171,0.003
 07230,-0.00168407,0.00021718,0.04664126,-0.00145865,-0.01269223,-0.120
 05826,-0.19570641,0.16170441,0.00004448,0.00004792,-0.00001118,-0.0000
 1012,-0.00006371,0.00000764,0.00006240,0.00016400,-0.00001977,-0.00117
 001,-0.00061210,-0.00023638,0.00057480,-0.00003485,0.00013878,0.001376
 48,0.00032005,-0.00010977,-0.00108083,0.00018783,0.00047584,-0.0028414
 5,-0.00048985,0.00030029,0.00027445,-0.00001792,-0.00017510,-0.0000889
 2,0.00003460,0.00011467,0.00068376,0.00051121,-0.00032308,0.00027290,0
 .00011863,0.00014283,-0.00935294,-0.01637999,0.01146305,-0.16152524,-0
 .16900434,0.11452418,0.17278025,0.00000673,0.00002471,-0.00002427,-0.0
 0000171,-0.00002066,0.00001625,0.00003643,0.00005584,-0.00000635,-0.00
 071817,-0.00042808,-0.00024810,0.00036931,-0.00001558,0.00014002,0.000
 93163,-0.00001410,-0.00060336,0.00092448,-0.00010345,0.00178811,-0.005
 35793,0.00263165,-0.00348364,-0.00007924,0.00001678,-0.00002811,0.0001
 9061,-0.00009883,-0.00020359,0.00063782,-0.00004028,0.00024495,0.00039
 656,-0.00060872,0.00005910,0.01150667,0.00067652,0.00324174,-0.1940617
 0,-0.25467029,0.18155364,0.18521851,0.25259448,-0.00000210,-0.00004058
 ,0.00000070,-0.00001316,0.00002657,0.00000851,-0.00003111,-0.00010498,
 -0.00001809,0.00059367,0.00044379,0.00018976,-0.00028411,-0.00003295,-
 0.00011718,-0.00059542,-0.00027418,0.00016118,-0.00000399,0.00042507,-
 0.00063211,0.00380221,-0.00325987,0.00099029,-0.00004832,-0.00008298,-
 0.00006097,0.00017996,-0.00007086,-0.00013710,-0.00034434,0.00031947,0
 .00011392,-0.00102285,0.00064811,0.00003195,-0.01288324,-0.00331618,0.
 00216273,0.13694479,0.18776598,-0.13834499,-0.12629199,-0.18244641,0.1
 3565139\\0.00003699,-0.00004587,-0.00001212,0.00001663,-0.00007997,0.0
 0002840,0.00009012,0.00036303,-0.00005910,-0.00042739,-0.00099476,-0.0
 0018652,0.00011977,0.00027269,0.00009100,0.00104054,0.00031292,-0.0007
 8878,0.00256089,-0.00103800,0.00148440,-0.00943825,0.00398424,-0.00154
 167,0.00003866,0.00008847,-0.00005180,0.00002692,-0.00008455,0.0000606
 9,0.00240750,-0.00038052,0.00019170,0.00309233,-0.00178074,0.00051760,
 0.02041161,-0.00458405,0.00887229,-0.02024173,0.00465105,-0.00920692,0
 .00026540,-0.00068393,0.00060085\\\@


 BE LIKE A POSTAGE STAMP.  STICK TO ONE THING UNTIL
 YOU GET THERE -- JOSH BILLINGS
 Job cpu time:       0 days  0 hours 56 minutes 17.4 seconds.
 Elapsed time:       0 days  0 hours  2 minutes 20.8 seconds.
 File lengths (MBytes):  RWF=    153 Int=      0 D2E=      0 Chk=      6 Scr=      1
 Normal termination of Gaussian 16 at Wed Apr  2 01:28:48 2025.
