 Entering Gaussian System, Link 0=g16
 Initial command:
 /opt/g16/l1.exe "/home/aayush/Research/ts10_irc_points/Gau-8832.inp" -scrdir="/home/aayush/Research/ts10_irc_points/"
 Entering Link 1 = /opt/g16/l1.exe PID=      8835.
  
 Copyright (c) 1988,1990,1992,1993,1995,1998,2003,2009,2016,
            Gaussian, Inc.  All Rights Reserved.
  
 This is part of the Gaussian(R) 16 program.  It is based on
 the Gaussian(R) 09 system (copyright 2009, Gaussian, Inc.),
 the Gaussian(R) 03 system (copyright 2003, Gaussian, Inc.),
 the Gaussian(R) 98 system (copyright 1998, Gaussian, Inc.),
 the Gaussian(R) 94 system (copyright 1995, Gaussian, Inc.),
 the Gaussian 92(TM) system (copyright 1992, Gaussian, Inc.),
 the Gaussian 90(TM) system (copyright 1990, Gaussian, Inc.),
 the Gaussian 88(TM) system (copyright 1988, Gaussian, Inc.),
 the Gaussian 86(TM) system (copyright 1986, Carnegie Mellon
 University), and the Gaussian 82(TM) system (copyright 1983,
 Carnegie Mellon University). Gaussian is a federally registered
 trademark of Gaussian, Inc.
  
 This software contains proprietary and confidential information,
 including trade secrets, belonging to Gaussian, Inc.
  
 This software is provided under written license and may be
 used, copied, transmitted, or stored only in accord with that
 written license.
  
 The following legend is applicable only to US Government
 contracts under FAR:
  
                    RESTRICTED RIGHTS LEGEND
  
 Use, reproduction and disclosure by the US Government is
 subject to restrictions as set forth in subparagraphs (a)
 and (c) of the Commercial Computer Software - Restricted
 Rights clause in FAR 52.227-19.
  
 Gaussian, Inc.
 340 Quinnipiac St., Bldg. 40, Wallingford CT 06492
  
  
 ---------------------------------------------------------------
 Warning -- This program may not be used in any manner that
 competes with the business of Gaussian, Inc. or will provide
 assistance to any competitor of Gaussian, Inc.  The licensee
 of this program is prohibited from giving any competitor of
 Gaussian, Inc. access to this program.  By using this program,
 the user acknowledges that Gaussian, Inc. is engaged in the
 business of creating and licensing software in the field of
 computational chemistry and represents and warrants to the
 licensee that it is not a competitor of Gaussian, Inc. and that
 it will not use this program in any manner prohibited above.
 ---------------------------------------------------------------
  

 Cite this work as:
 Gaussian 16, Revision A.03,
 M. J. Frisch, G. W. Trucks, H. B. Schlegel, G. E. Scuseria, 
 M. A. Robb, J. R. Cheeseman, G. Scalmani, V. Barone, 
 G. A. Petersson, H. Nakatsuji, X. Li, M. Caricato, A. V. Marenich, 
 J. Bloino, B. G. Janesko, R. Gomperts, B. Mennucci, H. P. Hratchian, 
 J. V. Ortiz, A. F. Izmaylov, J. L. Sonnenberg, D. Williams-Young, 
 F. Ding, F. Lipparini, F. Egidi, J. Goings, B. Peng, A. Petrone, 
 T. Henderson, D. Ranasinghe, V. G. Zakrzewski, J. Gao, N. Rega, 
 G. Zheng, W. Liang, M. Hada, M. Ehara, K. Toyota, R. Fukuda, 
 J. Hasegawa, M. Ishida, T. Nakajima, Y. Honda, O. Kitao, H. Nakai, 
 T. Vreven, K. Throssell, J. A. Montgomery, Jr., J. E. Peralta, 
 F. Ogliaro, M. J. Bearpark, J. J. Heyd, E. N. Brothers, K. N. Kudin, 
 V. N. Staroverov, T. A. Keith, R. Kobayashi, J. Normand, 
 K. Raghavachari, A. P. Rendell, J. C. Burant, S. S. Iyengar, 
 J. Tomasi, M. Cossi, J. M. Millam, M. Klene, C. Adamo, R. Cammi, 
 J. W. Ochterski, R. L. Martin, K. Morokuma, O. Farkas, 
 J. B. Foresman, and D. J. Fox, Gaussian, Inc., Wallingford CT, 2016.
 
 ******************************************
 Gaussian 16:  ES64L-G16RevA.03 25-Dec-2016
                 2-Apr-2025 
 ******************************************
 %chk=ethyl_propiolate.chk
 %nprocshared=24
 Will use up to   24 processors via shared memory.
 %mem=12GB
 --------------------------
 # freq 6-311++g(d,p) m062x
 --------------------------
 1/10=4,30=1,38=1/1,3;
 2/12=2,17=6,18=5,40=1/2;
 3/5=4,6=6,7=1111,11=2,25=1,30=1,71=2,74=-55,140=1/1,2,3;
 4//1;
 5/5=2,38=5,98=1/2;
 8/6=4,10=90,11=11/1;
 11/6=1,8=1,9=11,15=111,16=1/1,2,10;
 10/6=1/2;
 6/7=2,8=2,9=2,10=2,28=1/1;
 7/8=1,10=1,25=1/1,2,3,16;
 1/10=4,30=1/3;
 99//99;
 -------------------
 Title Card Required
 -------------------
 Symbolic Z-matrix:
 Charge =  0 Multiplicity = 2
 C                     1.26125   2.24953  -0.05928 
 H                     1.18593   3.31216  -0.07439 
 C                     1.35293   1.05414  -0.04227 
 C                     1.54625  -0.39647   0.00816 
 O                     2.59546  -0.8836    0.29913 
 O                     0.48687  -1.16022  -0.30032 
 C                    -0.80046  -0.56994  -0.56413 
 C                    -1.50813  -0.26563   0.73087 
 H                    -0.68653   0.32126  -1.18222 
 H                    -1.33285  -1.32764  -1.13494 
 H                    -1.70596  -1.14413   1.34164 
 H                    -1.10154   0.57037   1.29698 
 H                    -2.79974   0.19903   0.30942 
 O                    -3.79421   0.3854   -0.11179 
 H                    -4.31139  -0.27725   0.36306 
 

 GradGradGradGradGradGradGradGradGradGradGradGradGradGradGradGradGradGrad
 Berny optimization.
 Initialization pass.
 Trust Radius=3.00D-01 FncErr=1.00D-07 GrdErr=1.00D-07 EigMax=2.50D+02 EigMin=1.00D-04
 Number of steps in this run=      2 maximum allowed number of steps=      2.
 GradGradGradGradGradGradGradGradGradGradGradGradGradGradGradGradGradGrad

                          Input orientation:                          
 ---------------------------------------------------------------------
 Center     Atomic      Atomic             Coordinates (Angstroms)
 Number     Number       Type             X           Y           Z
 ---------------------------------------------------------------------
      1          6           0        1.261249    2.249531   -0.059284
      2          1           0        1.185931    3.312156   -0.074392
      3          6           0        1.352934    1.054144   -0.042273
      4          6           0        1.546248   -0.396467    0.008161
      5          8           0        2.595458   -0.883597    0.299129
      6          8           0        0.486867   -1.160224   -0.300317
      7          6           0       -0.800459   -0.569941   -0.564134
      8          6           0       -1.508126   -0.265629    0.730868
      9          1           0       -0.686534    0.321261   -1.182215
     10          1           0       -1.332845   -1.327638   -1.134944
     11          1           0       -1.705958   -1.144126    1.341637
     12          1           0       -1.101535    0.570367    1.296981
     13          1           0       -2.799743    0.199025    0.309416
     14          8           0       -3.794212    0.385402   -0.111789
     15          1           0       -4.311391   -0.277247    0.363064
 ---------------------------------------------------------------------
                    Distance matrix (angstroms):
                    1          2          3          4          5
     1  C    0.000000
     2  H    1.065398   0.000000
     3  C    1.199019   2.264407   0.000000
     4  C    2.662157   3.727000   1.464304   0.000000
     5  O    3.424188   4.441917   2.327071   1.192812   0.000000
     6  O    3.504881   4.532319   2.391670   1.341928   2.209528
     7  C    3.529155   4.388197   2.747197   2.421704   3.517933
     8  C    3.823586   4.550487   3.244258   3.141437   4.172252
     9  H    2.961935   3.698493   2.448676   2.630103   3.797043
    10  H    4.547802   5.384858   3.752362   3.234648   4.205390
    11  H    4.720573   5.497873   4.013031   3.593605   4.433608
    12  H    3.200280   3.824993   2.837615   3.099448   4.096032
    13  H    4.564227   5.071932   4.254367   4.396931   5.502760
    14  O    5.388452   5.776600   5.190873   5.398724   6.527411
    15  H    6.133295   6.579949   5.832793   5.869591   6.933708
                    6          7          8          9         10
     6  O    0.000000
     7  C    1.440570   0.000000
     8  C    2.417362   1.506794   0.000000
     9  H    2.085524   1.090525   2.163178   0.000000
    10  H    2.008975   1.087825   2.154029   1.771672   0.000000
    11  H    2.739481   2.186682   1.088087   3.091345   2.511243
    12  H    2.840656   2.203338   1.088434   2.526003   3.093572
    13  H    3.608481   2.313338   1.435897   2.589509   2.562941
    14  O    4.555452   3.174878   2.521924   3.287490   3.168545
    15  H    4.923718   3.643077   2.827315   3.985685   3.495581
                   11         12         13         14         15
    11  H    0.000000
    12  H    1.818463   0.000000
    13  H    2.016408   1.999272   0.000000
    14  O    2.968621   3.044561   1.095956   0.000000
    15  H    2.915024   3.448743   1.585810   0.965434   0.000000
 Stoichiometry    C5H7O3(2)
 Framework group  C1[X(C5H7O3)]
 Deg. of freedom    39
 Full point group                 C1      NOp   1
 Largest Abelian subgroup         C1      NOp   1
 Largest concise Abelian subgroup C1      NOp   1
                         Standard orientation:                         
 ---------------------------------------------------------------------
 Center     Atomic      Atomic             Coordinates (Angstroms)
 Number     Number       Type             X           Y           Z
 ---------------------------------------------------------------------
      1          6           0        1.348609    2.236178   -0.068139
      2          1           0        1.273231    3.298787   -0.084077
      3          6           0        1.440361    1.040810   -0.050193
      4          6           0        1.633749   -0.409750    0.001395
      5          8           0        2.682918   -0.896595    0.292988
      6          8           0        0.574488   -1.173806   -0.306754
      7          6           0       -0.712810   -0.583801   -0.571331
      8          6           0       -1.420806   -0.278543    0.723268
      9          1           0       -0.598789    0.306935   -1.190065
     10          1           0       -1.245013   -1.341966   -1.141690
     11          1           0       -1.618733   -1.156585    1.334660
     12          1           0       -1.014401    0.557910    1.288840
     13          1           0       -2.712350    0.185712    0.301150
     14          8           0       -3.706728    0.371708   -0.120436
     15          1           0       -4.223982   -0.290609    0.354799
 ---------------------------------------------------------------------
 Rotational constants (GHZ):           3.3377512           1.0087764           0.8246805
 Standard basis: 6-311++G(d,p) (5D, 7F)
 There are   233 symmetry adapted cartesian basis functions of A   symmetry.
 There are   225 symmetry adapted basis functions of A   symmetry.
   225 basis functions,   351 primitive gaussians,   233 cartesian basis functions
    31 alpha electrons       30 beta electrons
       nuclear repulsion energy       344.0145044395 Hartrees.
 NAtoms=   15 NActive=   15 NUniq=   15 SFac= 1.00D+00 NAtFMM=   60 NAOKFM=F Big=F
 Integral buffers will be    131072 words long.
 Raffenetti 2 integral format.
 Two-electron integral symmetry is turned on.
 One-electron integrals computed using PRISM.
 NBasis=   225 RedAO= T EigKep=  1.52D-06  NBF=   225
 NBsUse=   225 1.00D-06 EigRej= -1.00D+00 NBFU=   225
 ExpMin= 3.60D-02 ExpMax= 8.59D+03 ExpMxC= 1.30D+03 IAcc=3 IRadAn=         5 AccDes= 0.00D+00
 Harris functional with IExCor= 1009 and IRadAn=       5 diagonalized for initial guess.
 HarFok:  IExCor= 1009 AccDes= 0.00D+00 IRadAn=         5 IDoV= 1 UseB2=F ITyADJ=14
 ICtDFT=  3500011 ScaDFX=  1.000000  1.000000  1.000000  1.000000
 FoFCou: FMM=F IPFlag=           0 FMFlag=      100000 FMFlg1=           0
         NFxFlg=           0 DoJE=T BraDBF=F KetDBF=T FulRan=T
         wScrn=  0.000000 ICntrl=       500 IOpCl=  0 I1Cent=   200000004 NGrid=           0
         NMat0=    1 NMatS0=      1 NMatT0=    0 NMatD0=    1 NMtDS0=    0 NMtDT0=    0
 Petite list used in FoFCou.
 Initial guess <Sx>= 0.0000 <Sy>= 0.0000 <Sz>= 0.5000 <S**2>= 0.7500 S= 0.5000
 Requested convergence on RMS density matrix=1.00D-08 within 128 cycles.
 Requested convergence on MAX density matrix=1.00D-06.
 Requested convergence on             energy=1.00D-06.
 No special actions if energy rises.
 SCF Done:  E(UM062X) =  -420.199074340     A.U. after   18 cycles
            NFock= 18  Conv=0.74D-08     -V/T= 2.0033
 <Sx>= 0.0000 <Sy>= 0.0000 <Sz>= 0.5000 <S**2>= 0.7586 S= 0.5043
 <L.S>=  0.00000000000    
 Annihilation of the first spin contaminant:
 S**2 before annihilation     0.7586,   after     0.7500
 DoSCS=F DFT=T ScalE2(SS,OS)=  1.000000  1.000000
 Range of M.O.s used for correlation:     1   225
 NBasis=   225 NAE=    31 NBE=    30 NFC=     0 NFV=     0
 NROrb=    225 NOA=    31 NOB=    30 NVA=   194 NVB=   195

 **** Warning!!: The largest alpha MO coefficient is  0.31860356D+03


 **** Warning!!: The largest beta MO coefficient is  0.31034711D+03

 Symmetrizing basis deriv contribution to polar:
 IMax=3 JMax=2 DiffMx= 0.00D+00
 G2DrvN: will do    16 centers at a time, making    1 passes.
 Calling FoFCou, ICntrl=  3107 FMM=F I1Cent=   0 AccDes= 0.00D+00.
 End of G2Drv F.D. properties file   721 does not exist.
 End of G2Drv F.D. properties file   722 does not exist.
 End of G2Drv F.D. properties file   788 does not exist.
          IDoAtm=111111111111111
          Differentiating once with respect to electric field.
                with respect to dipole field.
          Differentiating once with respect to nuclear coordinates.
 Keep R1 and R2 ints in memory in canonical form, NReq=671901977.
          There are    48 degrees of freedom in the 1st order CPHF.  IDoFFX=6 NUNeed=     3.
     45 vectors produced by pass  0 Test12= 2.47D-14 2.08D-09 XBig12= 9.42D+01 3.47D+00.
 AX will form    45 AO Fock derivatives at one time.
     45 vectors produced by pass  1 Test12= 2.47D-14 2.08D-09 XBig12= 2.03D+01 8.18D-01.
     45 vectors produced by pass  2 Test12= 2.47D-14 2.08D-09 XBig12= 6.32D-01 7.74D-02.
     45 vectors produced by pass  3 Test12= 2.47D-14 2.08D-09 XBig12= 6.91D-03 9.53D-03.
     45 vectors produced by pass  4 Test12= 2.47D-14 2.08D-09 XBig12= 7.57D-05 1.19D-03.
     45 vectors produced by pass  5 Test12= 2.47D-14 2.08D-09 XBig12= 7.03D-07 1.25D-04.
     45 vectors produced by pass  6 Test12= 2.47D-14 2.08D-09 XBig12= 5.53D-09 6.83D-06.
     23 vectors produced by pass  7 Test12= 2.47D-14 2.08D-09 XBig12= 3.09D-11 5.52D-07.
      3 vectors produced by pass  8 Test12= 2.47D-14 2.08D-09 XBig12= 2.44D-13 4.39D-08.
      3 vectors produced by pass  9 Test12= 2.47D-14 2.08D-09 XBig12= 3.51D-15 8.16D-09.
      1 vectors produced by pass 10 Test12= 2.47D-14 2.08D-09 XBig12= 2.10D-16 2.23D-09.
 InvSVY:  IOpt=1 It=  1 EMax= 3.55D-15
 Solved reduced A of dimension   345 with    48 vectors.
 Isotropic polarizability for W=    0.000000       74.04 Bohr**3.
 End of Minotr F.D. properties file   721 does not exist.
 End of Minotr F.D. properties file   722 does not exist.
 End of Minotr F.D. properties file   788 does not exist.

 **********************************************************************

            Population analysis using the SCF density.

 **********************************************************************

 Orbital symmetries:
 Alpha Orbitals:
       Occupied  (A) (A) (A) (A) (A) (A) (A) (A) (A) (A) (A) (A)
                 (A) (A) (A) (A) (A) (A) (A) (A) (A) (A) (A) (A)
                 (A) (A) (A) (A) (A) (A) (A)
       Virtual   (A) (A) (A) (A) (A) (A) (A) (A) (A) (A) (A) (A)
                 (A) (A) (A) (A) (A) (A) (A) (A) (A) (A) (A) (A)
                 (A) (A) (A) (A) (A) (A) (A) (A) (A) (A) (A) (A)
                 (A) (A) (A) (A) (A) (A) (A) (A) (A) (A) (A) (A)
                 (A) (A) (A) (A) (A) (A) (A) (A) (A) (A) (A) (A)
                 (A) (A) (A) (A) (A) (A) (A) (A) (A) (A) (A) (A)
                 (A) (A) (A) (A) (A) (A) (A) (A) (A) (A) (A) (A)
                 (A) (A) (A) (A) (A) (A) (A) (A) (A) (A) (A) (A)
                 (A) (A) (A) (A) (A) (A) (A) (A) (A) (A) (A) (A)
                 (A) (A) (A) (A) (A) (A) (A) (A) (A) (A) (A) (A)
                 (A) (A) (A) (A) (A) (A) (A) (A) (A) (A) (A) (A)
                 (A) (A) (A) (A) (A) (A) (A) (A) (A) (A) (A) (A)
                 (A) (A) (A) (A) (A) (A) (A) (A) (A) (A) (A) (A)
                 (A) (A) (A) (A) (A) (A) (A) (A) (A) (A) (A) (A)
                 (A) (A) (A) (A) (A) (A) (A) (A) (A) (A) (A) (A)
                 (A) (A) (A) (A) (A) (A) (A) (A) (A) (A) (A) (A)
                 (A) (A)
 Beta  Orbitals:
       Occupied  (A) (A) (A) (A) (A) (A) (A) (A) (A) (A) (A) (A)
                 (A) (A) (A) (A) (A) (A) (A) (A) (A) (A) (A) (A)
                 (A) (A) (A) (A) (A) (A)
       Virtual   (A) (A) (A) (A) (A) (A) (A) (A) (A) (A) (A) (A)
                 (A) (A) (A) (A) (A) (A) (A) (A) (A) (A) (A) (A)
                 (A) (A) (A) (A) (A) (A) (A) (A) (A) (A) (A) (A)
                 (A) (A) (A) (A) (A) (A) (A) (A) (A) (A) (A) (A)
                 (A) (A) (A) (A) (A) (A) (A) (A) (A) (A) (A) (A)
                 (A) (A) (A) (A) (A) (A) (A) (A) (A) (A) (A) (A)
                 (A) (A) (A) (A) (A) (A) (A) (A) (A) (A) (A) (A)
                 (A) (A) (A) (A) (A) (A) (A) (A) (A) (A) (A) (A)
                 (A) (A) (A) (A) (A) (A) (A) (A) (A) (A) (A) (A)
                 (A) (A) (A) (A) (A) (A) (A) (A) (A) (A) (A) (A)
                 (A) (A) (A) (A) (A) (A) (A) (A) (A) (A) (A) (A)
                 (A) (A) (A) (A) (A) (A) (A) (A) (A) (A) (A) (A)
                 (A) (A) (A) (A) (A) (A) (A) (A) (A) (A) (A) (A)
                 (A) (A) (A) (A) (A) (A) (A) (A) (A) (A) (A) (A)
                 (A) (A) (A) (A) (A) (A) (A) (A) (A) (A) (A) (A)
                 (A) (A) (A) (A) (A) (A) (A) (A) (A) (A) (A) (A)
                 (A) (A) (A)
 The electronic state is 2-A.
 Alpha  occ. eigenvalues --  -19.69512 -19.63785 -19.63720 -10.71657 -10.62906
 Alpha  occ. eigenvalues --  -10.59151 -10.58660 -10.58205  -1.26306  -1.17756
 Alpha  occ. eigenvalues --   -1.13085  -0.90645  -0.90155  -0.78774  -0.74802
 Alpha  occ. eigenvalues --   -0.65683  -0.62607  -0.60872  -0.59610  -0.57609
 Alpha  occ. eigenvalues --   -0.54996  -0.50821  -0.49947  -0.49688  -0.44643
 Alpha  occ. eigenvalues --   -0.41253  -0.40473  -0.40133  -0.38511  -0.37285
 Alpha  occ. eigenvalues --   -0.33514
 Alpha virt. eigenvalues --   -0.02980  -0.01139  -0.00071   0.01069   0.01908
 Alpha virt. eigenvalues --    0.02385   0.03625   0.04070   0.05004   0.06643
 Alpha virt. eigenvalues --    0.06775   0.07212   0.07884   0.08917   0.10263
 Alpha virt. eigenvalues --    0.10544   0.10952   0.11416   0.12262   0.13252
 Alpha virt. eigenvalues --    0.13422   0.13797   0.14024   0.15004   0.15639
 Alpha virt. eigenvalues --    0.16018   0.16847   0.17568   0.18235   0.19397
 Alpha virt. eigenvalues --    0.20140   0.21441   0.22516   0.23707   0.23950
 Alpha virt. eigenvalues --    0.25142   0.26066   0.26595   0.28552   0.29187
 Alpha virt. eigenvalues --    0.29962   0.31266   0.31705   0.32363   0.32722
 Alpha virt. eigenvalues --    0.34245   0.34912   0.35278   0.36948   0.37685
 Alpha virt. eigenvalues --    0.39589   0.41312   0.44234   0.45848   0.48876
 Alpha virt. eigenvalues --    0.49921   0.51614   0.51989   0.56261   0.56922
 Alpha virt. eigenvalues --    0.59167   0.59601   0.61251   0.62846   0.65519
 Alpha virt. eigenvalues --    0.65923   0.68660   0.69201   0.70130   0.71857
 Alpha virt. eigenvalues --    0.73285   0.73679   0.74931   0.78056   0.81490
 Alpha virt. eigenvalues --    0.85447   0.86117   0.92317   0.97812   1.00267
 Alpha virt. eigenvalues --    1.04323   1.05934   1.07700   1.09130   1.11143
 Alpha virt. eigenvalues --    1.12726   1.14152   1.17145   1.18173   1.19701
 Alpha virt. eigenvalues --    1.21065   1.23954   1.26630   1.27820   1.28312
 Alpha virt. eigenvalues --    1.30752   1.32851   1.33862   1.35481   1.38788
 Alpha virt. eigenvalues --    1.41593   1.43224   1.46947   1.51042   1.54257
 Alpha virt. eigenvalues --    1.56222   1.56891   1.61174   1.61689   1.62382
 Alpha virt. eigenvalues --    1.64792   1.65235   1.67795   1.68220   1.73627
 Alpha virt. eigenvalues --    1.75922   1.78474   1.79258   1.80196   1.82496
 Alpha virt. eigenvalues --    1.89310   1.92434   1.94576   1.98457   2.01551
 Alpha virt. eigenvalues --    2.06646   2.10366   2.11891   2.16224   2.20659
 Alpha virt. eigenvalues --    2.27190   2.35902   2.41464   2.46628   2.50136
 Alpha virt. eigenvalues --    2.51608   2.53690   2.57453   2.58904   2.60817
 Alpha virt. eigenvalues --    2.66792   2.68220   2.70336   2.72152   2.74957
 Alpha virt. eigenvalues --    2.76722   2.81319   2.82508   2.87932   2.93107
 Alpha virt. eigenvalues --    2.96919   2.99582   3.02543   3.06246   3.07650
 Alpha virt. eigenvalues --    3.08854   3.10967   3.18835   3.20916   3.24749
 Alpha virt. eigenvalues --    3.25826   3.31920   3.33753   3.38975   3.41753
 Alpha virt. eigenvalues --    3.44369   3.53045   3.63768   3.74963   3.77510
 Alpha virt. eigenvalues --    3.79204   3.86618   4.02874   4.04059   4.11493
 Alpha virt. eigenvalues --    4.15344   4.25900   5.10738   5.13641   5.15590
 Alpha virt. eigenvalues --    5.27116   5.41508   5.49786   5.67482   5.72151
 Alpha virt. eigenvalues --    5.96942  23.61208  23.90815  23.91630  23.93966
 Alpha virt. eigenvalues --   25.15009  49.97919  49.99788  50.12184
  Beta  occ. eigenvalues --  -19.69384 -19.63772 -19.63093 -10.71659 -10.62933
  Beta  occ. eigenvalues --  -10.58660 -10.58521 -10.58204  -1.26054  -1.17561
  Beta  occ. eigenvalues --   -1.10676  -0.90242  -0.89044  -0.77596  -0.74062
  Beta  occ. eigenvalues --   -0.65219  -0.62437  -0.59407  -0.58129  -0.56546
  Beta  occ. eigenvalues --   -0.54481  -0.50061  -0.49025  -0.46604  -0.44211
  Beta  occ. eigenvalues --   -0.40799  -0.39869  -0.39171  -0.38355  -0.37188
  Beta virt. eigenvalues --   -0.10647  -0.02931  -0.00980   0.00025   0.01125
  Beta virt. eigenvalues --    0.02009   0.02748   0.03698   0.04144   0.05085
  Beta virt. eigenvalues --    0.06687   0.06754   0.07105   0.07983   0.08943
  Beta virt. eigenvalues --    0.10189   0.10608   0.11125   0.11574   0.12296
  Beta virt. eigenvalues --    0.13134   0.13317   0.13848   0.14120   0.15022
  Beta virt. eigenvalues --    0.15636   0.16197   0.16887   0.17659   0.18364
  Beta virt. eigenvalues --    0.19714   0.20438   0.21625   0.22561   0.23677
  Beta virt. eigenvalues --    0.24353   0.25436   0.26426   0.26610   0.28985
  Beta virt. eigenvalues --    0.29379   0.30244   0.31335   0.31834   0.32435
  Beta virt. eigenvalues --    0.32924   0.34308   0.35428   0.35676   0.37353
  Beta virt. eigenvalues --    0.37978   0.39791   0.42622   0.44329   0.46335
  Beta virt. eigenvalues --    0.49099   0.50351   0.51683   0.52081   0.56747
  Beta virt. eigenvalues --    0.57778   0.59661   0.59926   0.61481   0.63038
  Beta virt. eigenvalues --    0.66364   0.66882   0.68718   0.69754   0.70978
  Beta virt. eigenvalues --    0.71936   0.73490   0.74124   0.76117   0.78480
  Beta virt. eigenvalues --    0.81824   0.85512   0.86176   0.92362   0.98951
  Beta virt. eigenvalues --    1.01466   1.05207   1.06411   1.07906   1.09508
  Beta virt. eigenvalues --    1.11586   1.13360   1.15310   1.17451   1.18241
  Beta virt. eigenvalues --    1.19920   1.21251   1.24310   1.26924   1.28200
  Beta virt. eigenvalues --    1.28482   1.30907   1.33090   1.34205   1.35695
  Beta virt. eigenvalues --    1.39037   1.41874   1.43286   1.47521   1.52272
  Beta virt. eigenvalues --    1.55342   1.56588   1.58107   1.61673   1.62405
  Beta virt. eigenvalues --    1.63181   1.65553   1.65598   1.68100   1.68839
  Beta virt. eigenvalues --    1.73905   1.76122   1.78867   1.79557   1.80861
  Beta virt. eigenvalues --    1.82867   1.89532   1.92564   1.94913   1.99328
  Beta virt. eigenvalues --    2.01856   2.07120   2.11456   2.13325   2.16959
  Beta virt. eigenvalues --    2.21776   2.28722   2.39197   2.41934   2.46950
  Beta virt. eigenvalues --    2.50958   2.51361   2.54405   2.58353   2.59727
  Beta virt. eigenvalues --    2.62133   2.66809   2.68433   2.68998   2.72122
  Beta virt. eigenvalues --    2.75839   2.77125   2.81651   2.82531   2.88294
  Beta virt. eigenvalues --    2.93226   2.96987   2.99655   3.02576   3.06294
  Beta virt. eigenvalues --    3.07785   3.10678   3.11680   3.19413   3.21615
  Beta virt. eigenvalues --    3.25005   3.26657   3.32635   3.34258   3.39169
  Beta virt. eigenvalues --    3.42340   3.46566   3.53081   3.63820   3.75073
  Beta virt. eigenvalues --    3.79305   3.80755   3.86890   4.03104   4.05703
  Beta virt. eigenvalues --    4.12497   4.15371   4.27046   5.11810   5.14028
  Beta virt. eigenvalues --    5.15619   5.27181   5.41733   5.51503   5.67599
  Beta virt. eigenvalues --    5.74022   5.97034  23.61207  23.90926  23.92587
  Beta virt. eigenvalues --   23.94163  25.15009  49.97697  49.99182  50.12161
          Condensed to atoms (all electrons):
               1          2          3          4          5          6
     1  C   24.512897   0.827424 -10.523981  -7.111304  -0.154419   0.052164
     2  H    0.827424   0.436050  -0.364283  -0.083762  -0.005414  -0.003541
     3  C  -10.523981  -0.364283  13.523490   1.857227   0.011409  -0.243573
     4  C   -7.111304  -0.083762   1.857227  11.008815   0.470808   0.089268
     5  O   -0.154419  -0.005414   0.011409   0.470808   7.990957  -0.082392
     6  O    0.052164  -0.003541  -0.243573   0.089268  -0.082392   8.213547
     7  C   -0.467188  -0.009183   0.107825   0.273121  -0.009178   0.180747
     8  C    0.390494   0.005357  -0.059377  -0.351195   0.018050  -0.100052
     9  H   -0.059716   0.000093   0.036727   0.026913  -0.004173   0.006758
    10  H   -0.054144  -0.001456   0.022811   0.024819   0.001901  -0.075018
    11  H   -0.002838   0.000527  -0.008752   0.011706  -0.000836   0.000608
    12  H   -0.040257  -0.004069   0.077336  -0.022499   0.002000  -0.009207
    13  H   -0.028682  -0.000306   0.007611   0.016739   0.000394  -0.001790
    14  O    0.005821   0.000141   0.002365  -0.008489   0.000021   0.000993
    15  H    0.001148   0.000015  -0.001107  -0.000038  -0.000017   0.000535
               7          8          9         10         11         12
     1  C   -0.467188   0.390494  -0.059716  -0.054144  -0.002838  -0.040257
     2  H   -0.009183   0.005357   0.000093  -0.001456   0.000527  -0.004069
     3  C    0.107825  -0.059377   0.036727   0.022811  -0.008752   0.077336
     4  C    0.273121  -0.351195   0.026913   0.024819   0.011706  -0.022499
     5  O   -0.009178   0.018050  -0.004173   0.001901  -0.000836   0.002000
     6  O    0.180747  -0.100052   0.006758  -0.075018   0.000608  -0.009207
     7  C    5.943282  -0.406179   0.404375   0.368917   0.032432  -0.060381
     8  C   -0.406179   6.247860  -0.057652   0.012455   0.328145   0.391914
     9  H    0.404375  -0.057652   0.531617  -0.047215   0.013979  -0.026411
    10  H    0.368917   0.012455  -0.047215   0.529389  -0.031703   0.028113
    11  H    0.032432   0.328145   0.013979  -0.031703   0.535524  -0.070140
    12  H   -0.060381   0.391914  -0.026411   0.028113  -0.070140   0.572010
    13  H    0.018599   0.022942  -0.015344   0.007427  -0.011187  -0.014963
    14  O   -0.072380   0.043902   0.001731   0.004233  -0.012506  -0.003705
    15  H   -0.007615   0.025874  -0.001002   0.003415  -0.008912   0.003316
              13         14         15
     1  C   -0.028682   0.005821   0.001148
     2  H   -0.000306   0.000141   0.000015
     3  C    0.007611   0.002365  -0.001107
     4  C    0.016739  -0.008489  -0.000038
     5  O    0.000394   0.000021  -0.000017
     6  O   -0.001790   0.000993   0.000535
     7  C    0.018599  -0.072380  -0.007615
     8  C    0.022942   0.043902   0.025874
     9  H   -0.015344   0.001731  -0.001002
    10  H    0.007427   0.004233   0.003415
    11  H   -0.011187  -0.012506  -0.008912
    12  H   -0.014963  -0.003705   0.003316
    13  H    0.508922   0.212281  -0.022591
    14  O    0.212281   8.018496   0.280276
    15  H   -0.022591   0.280276   0.478984
          Atomic-Atomic Spin Densities.
               1          2          3          4          5          6
     1  C    0.196535   0.007995  -0.159596  -0.049176   0.000677   0.024888
     2  H    0.007995   0.000659  -0.006957  -0.001681   0.000020   0.000428
     3  C   -0.159596  -0.006957   0.124719   0.042074   0.000256  -0.002903
     4  C   -0.049176  -0.001681   0.042074   0.010203  -0.001038  -0.020216
     5  O    0.000677   0.000020   0.000256  -0.001038   0.007127  -0.000223
     6  O    0.024888   0.000428  -0.002903  -0.020216  -0.000223   0.093317
     7  C   -0.040386  -0.001223   0.021929   0.015347  -0.000560  -0.028405
     8  C    0.033693   0.001291  -0.030478  -0.000852  -0.000766  -0.020066
     9  H    0.006324   0.000024  -0.001222  -0.004751   0.000150  -0.000794
    10  H   -0.003362  -0.000038  -0.001629   0.005284  -0.000343  -0.006615
    11  H   -0.000587  -0.000024   0.000877  -0.000228   0.000068   0.000759
    12  H   -0.030851  -0.000820   0.016711   0.015942  -0.000105  -0.009761
    13  H   -0.005113  -0.000054   0.003542   0.001777  -0.000005  -0.002504
    14  O   -0.002318  -0.000118   0.000624   0.001676  -0.000012  -0.001608
    15  H    0.000776   0.000028  -0.000408  -0.000388   0.000006   0.000448
               7          8          9         10         11         12
     1  C   -0.040386   0.033693   0.006324  -0.003362  -0.000587  -0.030851
     2  H   -0.001223   0.001291   0.000024  -0.000038  -0.000024  -0.000820
     3  C    0.021929  -0.030478  -0.001222  -0.001629   0.000877   0.016711
     4  C    0.015347  -0.000852  -0.004751   0.005284  -0.000228   0.015942
     5  O   -0.000560  -0.000766   0.000150  -0.000343   0.000068  -0.000105
     6  O   -0.028405  -0.020066  -0.000794  -0.006615   0.000759  -0.009761
     7  C   -0.019275  -0.016712   0.000987   0.016283  -0.005364   0.025996
     8  C   -0.016712   0.964417  -0.000880  -0.011786  -0.007048  -0.046150
     9  H    0.000987  -0.000880  -0.000866   0.001329  -0.001497   0.000470
    10  H    0.016283  -0.011786   0.001329   0.000256   0.002920   0.000668
    11  H   -0.005364  -0.007048  -0.001497   0.002920  -0.038111   0.007662
    12  H    0.025996  -0.046150   0.000470   0.000668   0.007662  -0.007070
    13  H    0.015407   0.028910   0.004346  -0.007215   0.017015   0.001383
    14  O    0.003389  -0.106195  -0.001607   0.004427  -0.003314   0.008349
    15  H   -0.000542   0.008836   0.000112  -0.000570   0.000065  -0.001541
              13         14         15
     1  C   -0.005113  -0.002318   0.000776
     2  H   -0.000054  -0.000118   0.000028
     3  C    0.003542   0.000624  -0.000408
     4  C    0.001777   0.001676  -0.000388
     5  O   -0.000005  -0.000012   0.000006
     6  O   -0.002504  -0.001608   0.000448
     7  C    0.015407   0.003389  -0.000542
     8  C    0.028910  -0.106195   0.008836
     9  H    0.004346  -0.001607   0.000112
    10  H   -0.007215   0.004427  -0.000570
    11  H    0.017015  -0.003314   0.000065
    12  H    0.001383   0.008349  -0.001541
    13  H   -0.149533   0.036933  -0.001289
    14  O    0.036933   0.342892   0.001644
    15  H   -0.001289   0.001644  -0.006961
 Mulliken charges and spin densities:
               1          2
     1  C   -1.347418  -0.020501
     2  H    0.202407  -0.000471
     3  C    1.554273   0.007539
     4  C   -0.202131   0.013973
     5  O   -0.239114   0.005253
     6  O   -0.029046   0.026744
     7  C   -0.297195  -0.013131
     8  C   -0.512537   0.796212
     9  H    0.189320   0.002125
    10  H    0.206056  -0.000392
    11  H    0.223952  -0.026809
    12  H    0.176943  -0.019118
    13  H    0.299948  -0.056401
    14  O   -0.473178   0.284761
    15  H    0.247720   0.000216
 Sum of Mulliken charges =  -0.00000   1.00000
 Mulliken charges and spin densities with hydrogens summed into heavy atoms:
               1          2
     1  C   -1.145011  -0.020971
     3  C    1.554273   0.007539
     4  C   -0.202131   0.013973
     5  O   -0.239114   0.005253
     6  O   -0.029046   0.026744
     7  C    0.098181  -0.011398
     8  C   -0.111643   0.750286
    14  O    0.074490   0.228576
 APT charges:
               1
     1  C   -0.162009
     2  H    0.232849
     3  C   -0.291316
     4  C    1.554636
     5  O   -0.857378
     6  O   -0.969127
     7  C    0.457837
     8  C    0.178095
     9  H    0.002955
    10  H    0.013300
    11  H    0.006754
    12  H    0.023075
    13  H    0.034220
    14  O   -0.484389
    15  H    0.260498
 Sum of APT charges =  -0.00000
 APT charges with hydrogens summed into heavy atoms:
               1
     1  C    0.070840
     3  C   -0.291316
     4  C    1.554636
     5  O   -0.857378
     6  O   -0.969127
     7  C    0.474092
     8  C    0.207924
    14  O   -0.189670
 Electronic spatial extent (au):  <R**2>=           1338.2537
 Charge=              0.0000 electrons
 Dipole moment (field-independent basis, Debye):
    X=             -2.2473    Y=              1.4703    Z=              0.7023  Tot=              2.7759
 Quadrupole moment (field-independent basis, Debye-Ang):
   XX=            -61.2268   YY=            -43.1823   ZZ=            -46.8250
   XY=             13.2109   XZ=             -6.3008   YZ=             -0.0134
 Traceless Quadrupole moment (field-independent basis, Debye-Ang):
   XX=            -10.8154   YY=              7.2291   ZZ=              3.5864
   XY=             13.2109   XZ=             -6.3008   YZ=             -0.0134
 Octapole moment (field-independent basis, Debye-Ang**2):
  XXX=            -30.0837  YYY=             25.7345  ZZZ=              0.0196  XYY=              1.8551
  XXY=            -20.3382  XXZ=             14.1174  XZZ=             -3.6762  YZZ=             -5.6505
  YYZ=             -0.8117  XYZ=              1.7386
 Hexadecapole moment (field-independent basis, Debye-Ang**3):
 XXXX=          -1265.9084 YYYY=           -280.3742 ZZZZ=           -107.9417 XXXY=            117.2807
 XXXZ=            -86.0064 YYYX=             38.8440 YYYZ=             -2.4390 ZZZX=             -0.0324
 ZZZY=              0.8908 XXYY=           -275.2126 XXZZ=           -218.9164 YYZZ=            -84.1101
 XXYZ=             -1.2320 YYXZ=             -1.3640 ZZXY=             -3.8176
 N-N= 3.440145044395D+02 E-N=-1.672039318509D+03  KE= 4.188011392276D+02
  Exact polarizability:  92.680  -4.182  78.400   5.407  -1.602  51.048
 Approx polarizability:  92.313  -9.628  99.776   7.893  -3.030  60.346
                          Isotropic Fermi Contact Couplings
        Atom                 a.u.       MegaHertz       Gauss      10(-4) cm-1
     1  C(13)              0.00000       0.00498       0.00178       0.00166
     2  H(1)              -0.00001      -0.04588      -0.01637      -0.01530
     3  C(13)              0.00035       0.39390       0.14055       0.13139
     4  C(13)             -0.00161      -1.81064      -0.64608      -0.60397
     5  O(17)              0.00160      -0.96832      -0.34552      -0.32300
     6  O(17)              0.04706     -28.52568     -10.17867      -9.51514
     7  C(13)             -0.00650      -7.30679      -2.60724      -2.43728
     8  C(13)              0.22024     247.59103      88.34664      82.58748
     9  H(1)               0.00063       2.83434       1.01136       0.94543
    10  H(1)               0.00151       6.76974       2.41561       2.25814
    11  H(1)              -0.00891     -39.80906     -14.20486     -13.27887
    12  H(1)              -0.00739     -33.03514     -11.78776     -11.01934
    13  H(1)              -0.02854    -127.57457     -45.52178     -42.55430
    14  O(17)              0.08074     -48.94630     -17.46526     -16.32673
    15  H(1)              -0.00409     -18.30165      -6.53048      -6.10477
 --------------------------------------------------------
       Center         ----  Spin Dipole Couplings  ----
                      3XX-RR        3YY-RR        3ZZ-RR
 --------------------------------------------------------
     1   Atom        0.002620      0.000307     -0.002927
     2   Atom        0.000319      0.000958     -0.001278
     3   Atom        0.003552     -0.000816     -0.002736
     4   Atom        0.006949     -0.002346     -0.004603
     5   Atom       -0.004576      0.000478      0.004097
     6   Atom        0.099478     -0.057469     -0.042009
     7   Atom       -0.006501     -0.007173      0.013675
     8   Atom        0.654518     -0.312233     -0.342285
     9   Atom       -0.000187     -0.009827      0.010013
    10   Atom       -0.005538     -0.003707      0.009245
    11   Atom       -0.009622      0.024976     -0.015354
    12   Atom       -0.005183      0.026116     -0.020933
    13   Atom        0.180501     -0.100092     -0.080409
    14   Atom        0.810527     -0.485929     -0.324598
    15   Atom        0.017091      0.001912     -0.019003
 --------------------------------------------------------
                        XY            XZ            YZ
 --------------------------------------------------------
     1   Atom        0.003185     -0.000855     -0.000961
     2   Atom        0.001714     -0.000313     -0.000429
     3   Atom        0.003698     -0.001756     -0.001144
     4   Atom        0.002010     -0.000084      0.002733
     5   Atom        0.006714      0.017561      0.026079
     6   Atom       -0.112048     -0.123931      0.063417
     7   Atom       -0.000667     -0.007164      0.002978
     8   Atom       -0.368339      0.325395     -0.111011
     9   Atom        0.001260     -0.009438     -0.004789
    10   Atom       -0.005005     -0.003302      0.010675
    11   Atom        0.009627     -0.003986     -0.056277
    12   Atom        0.015737      0.030424      0.044708
    13   Atom       -0.075830      0.111333     -0.027381
    14   Atom       -0.512140      0.700924     -0.235368
    15   Atom        0.032521     -0.016718     -0.037291
 --------------------------------------------------------


 ---------------------------------------------------------------------------------
              Anisotropic Spin Dipole Couplings in Principal Axis System
 ---------------------------------------------------------------------------------

       Atom             a.u.   MegaHertz   Gauss  10(-4) cm-1        Axes

              Baa    -0.0032    -0.428    -0.153    -0.143 -0.0066  0.2704  0.9627
     1 C(13)  Bbb    -0.0019    -0.249    -0.089    -0.083 -0.5930  0.7741 -0.2215
              Bcc     0.0050     0.678     0.242     0.226  0.8052  0.5724 -0.1552
 
              Baa    -0.0014    -0.724    -0.258    -0.241 -0.0099  0.1892  0.9819
     2 H(1)   Bbb    -0.0011    -0.587    -0.210    -0.196  0.7751 -0.6189  0.1271
              Bcc     0.0025     1.311     0.468     0.437  0.6317  0.7624 -0.1405
 
              Baa    -0.0033    -0.439    -0.157    -0.146  0.0235  0.3930  0.9192
     3 C(13)  Bbb    -0.0029    -0.387    -0.138    -0.129 -0.5361  0.7811 -0.3203
              Bcc     0.0062     0.826     0.295     0.276  0.8438  0.4853 -0.2291
 
              Baa    -0.0065    -0.877    -0.313    -0.293  0.0906 -0.5739  0.8139
     4 C(13)  Bbb    -0.0008    -0.113    -0.040    -0.038 -0.1977  0.7906  0.5795
              Bcc     0.0074     0.991     0.354     0.331  0.9761  0.2134  0.0418
 
              Baa    -0.0268     1.942     0.693     0.648 -0.3856 -0.5858  0.7128
     5 O(17)  Bbb    -0.0092     0.667     0.238     0.223  0.8312 -0.5560 -0.0072
              Bcc     0.0361    -2.609    -0.931    -0.870  0.4006  0.5897  0.7013
 
              Baa    -0.1161     8.399     2.997     2.802  0.5641  0.7775  0.2781
     6 O(17)  Bbb    -0.1132     8.189     2.922     2.732  0.2411 -0.4772  0.8451
              Bcc     0.2292   -16.588    -5.919    -5.533  0.7898 -0.4096 -0.4566
 
              Baa    -0.0088    -1.187    -0.423    -0.396  0.9249 -0.2036  0.3212
     7 C(13)  Bbb    -0.0075    -1.008    -0.360    -0.336  0.2337  0.9706 -0.0575
              Bcc     0.0164     2.194     0.783     0.732 -0.3000  0.1282  0.9453
 
              Baa    -0.4397   -59.001   -21.053   -19.681 -0.1401  0.3885  0.9107
     8 C(13)  Bbb    -0.4362   -58.536   -20.887   -19.526  0.3861  0.8684 -0.3111
              Bcc     0.8759   117.537    41.940    39.206  0.9118 -0.3080  0.2716
 
              Baa    -0.0110    -5.888    -2.101    -1.964  0.1278  0.9531  0.2742
     9 H(1)   Bbb    -0.0055    -2.918    -1.041    -0.973  0.8597 -0.2443  0.4485
              Bcc     0.0165     8.806     3.142     2.937 -0.4945 -0.1784  0.8507
 
              Baa    -0.0113    -6.037    -2.154    -2.014  0.5008  0.7984 -0.3342
    10 H(1)   Bbb    -0.0052    -2.798    -0.998    -0.933  0.8324 -0.3384  0.4390
              Bcc     0.0166     8.835     3.153     2.947 -0.2374  0.4980  0.8341
 
              Baa    -0.0551   -29.392   -10.488    -9.804 -0.0511  0.5784  0.8141
    11 H(1)   Bbb    -0.0109    -5.802    -2.070    -1.935  0.9897 -0.0795  0.1186
              Bcc     0.0660    35.193    12.558    11.739  0.1334  0.8119 -0.5684
 
              Baa    -0.0555   -29.604   -10.563    -9.875 -0.3866 -0.3847  0.8382
    12 H(1)   Bbb    -0.0102    -5.422    -1.935    -1.809  0.8340 -0.5339  0.1396
              Bcc     0.0656    35.026    12.498    11.683  0.3938  0.7530  0.5272
 
              Baa    -0.1216   -64.866   -23.146   -21.637 -0.3839 -0.2084  0.8996
    13 H(1)   Bbb    -0.1191   -63.521   -22.666   -21.188  0.1370  0.9505  0.2787
              Bcc     0.2406   128.387    45.811    42.825  0.9132 -0.2303  0.3363
 
              Baa    -0.6682    48.347    17.251    16.127  0.4815  0.7333 -0.4800
    14 O(17)  Bbb    -0.6525    47.216    16.848    15.750 -0.1576  0.6112  0.7756
              Bcc     1.3207   -95.563   -34.099   -31.876  0.8621 -0.2978  0.4099
 
              Baa    -0.0481   -25.663    -9.157    -8.560 -0.1288  0.6453  0.7530
    15 H(1)   Bbb    -0.0123    -6.561    -2.341    -2.189  0.7556 -0.4279  0.4959
              Bcc     0.0604    32.224    11.498    10.749  0.6422  0.6329 -0.4325
 

 ---------------------------------------------------------------------------------

 Calling FoFJK, ICntrl=    100127 FMM=F ISym2X=0 I1Cent= 0 IOpClX= 1 NMat=1 NMatS=1 NMatT=0.
 Full mass-weighted force constant matrix:
 Low frequencies --- -650.1693  -54.5063  -25.3370  -11.7854   -0.0006    0.0006
 Low frequencies ---    0.0007   18.7766   56.0921
 ******    2 imaginary frequencies (negative Signs) ****** 
 Diagonal vibrational polarizability:
       67.4757411      76.3948341      79.7189086
 Harmonic frequencies (cm**-1), IR intensities (KM/Mole), Raman scattering
 activities (A**4/AMU), depolarization ratios for plane and unpolarized
 incident light, reduced masses (AMU), force constants (mDyne/A),
 and normal coordinates:
                      1                      2                      3
                      A                      A                      A
 Frequencies --   -650.1621               -41.8047                54.5843
 Red. masses --      1.6304                 4.0816                 6.3614
 Frc consts  --      0.4061                 0.0042                 0.0112
 IR Inten    --     62.5436                 4.3361                 4.3338
  Atom  AN      X      Y      Z        X      Y      Z        X      Y      Z
     1   6     0.00   0.00   0.00    -0.17   0.00  -0.05     0.13   0.03  -0.17
     2   1    -0.00   0.00   0.00    -0.24  -0.00  -0.07     0.20   0.04  -0.27
     3   6     0.00   0.00  -0.00    -0.09   0.01  -0.02     0.05   0.03  -0.06
     4   6    -0.00   0.00   0.00    -0.00   0.02   0.00    -0.04   0.02   0.06
     5   8    -0.00  -0.00  -0.00     0.03   0.09   0.02    -0.14  -0.02   0.36
     6   8    -0.01   0.01   0.02     0.05  -0.05   0.01     0.02   0.06  -0.24
     7   6     0.00  -0.00  -0.01     0.01  -0.13   0.02     0.02   0.09  -0.16
     8   6    -0.19   0.05  -0.07    -0.03  -0.27   0.03     0.03  -0.17  -0.09
     9   1     0.01  -0.01  -0.02    -0.04  -0.08   0.08     0.01   0.21   0.00
    10   1     0.02  -0.00  -0.03     0.07  -0.13  -0.05     0.03   0.19  -0.30
    11   1     0.10   0.00  -0.02    -0.28  -0.34  -0.16     0.06  -0.29  -0.27
    12   1     0.03  -0.07  -0.02     0.13  -0.48   0.22     0.06  -0.29   0.07
    13   1     0.83  -0.32   0.28     0.11   0.20   0.01    -0.03  -0.05   0.15
    14   8     0.09  -0.02   0.03     0.14   0.27  -0.00    -0.04  -0.03   0.22
    15   1     0.20  -0.08   0.11     0.09   0.29  -0.03    -0.01  -0.06   0.21
                      4                      5                      6
                      A                      A                      A
 Frequencies --     91.8653               131.1070               177.5871
 Red. masses --      3.2836                 5.7059                 3.4906
 Frc consts  --      0.0163                 0.0578                 0.0649
 IR Inten    --      0.1272                 2.3951                 2.0220
  Atom  AN      X      Y      Z        X      Y      Z        X      Y      Z
     1   6     0.21   0.05  -0.07    -0.04   0.01  -0.02     0.29   0.07   0.11
     2   1     0.32   0.06  -0.10    -0.02   0.01  -0.03     0.60   0.10   0.23
     3   6     0.09   0.04  -0.04    -0.05   0.01  -0.02    -0.12   0.04  -0.05
     4   6     0.01   0.03  -0.01    -0.09  -0.00  -0.04    -0.10   0.04  -0.03
     5   8     0.02  -0.01  -0.09    -0.14  -0.04   0.05    -0.06   0.15   0.01
     6   8    -0.05   0.07   0.10    -0.08   0.04  -0.19    -0.01  -0.08  -0.02
     7   6    -0.03   0.09   0.10    -0.11   0.09   0.14    -0.07  -0.21  -0.01
     8   6    -0.16  -0.20   0.10     0.14   0.02   0.29     0.02  -0.02  -0.01
     9   1     0.00   0.22   0.29    -0.23   0.13   0.18    -0.17  -0.30  -0.17
    10   1     0.03   0.20  -0.11    -0.26   0.15   0.19    -0.07  -0.33   0.15
    11   1    -0.27  -0.33  -0.14     0.20   0.00   0.28     0.04   0.08   0.14
    12   1    -0.16  -0.35   0.34     0.19   0.01   0.26     0.06   0.07  -0.17
    13   1    -0.07  -0.06  -0.03     0.21  -0.04   0.08     0.02  -0.01  -0.01
    14   8    -0.05  -0.05  -0.09     0.31  -0.10  -0.16     0.02   0.00  -0.00
    15   1    -0.08  -0.07  -0.13     0.22  -0.12  -0.28    -0.01   0.10   0.10
                      7                      8                      9
                      A                      A                      A
 Frequencies --    202.6317               257.9500               328.7246
 Red. masses --      1.0790                 5.0230                 3.4059
 Frc consts  --      0.0261                 0.1969                 0.2168
 IR Inten    --    107.9697                 0.6155                 9.1063
  Atom  AN      X      Y      Z        X      Y      Z        X      Y      Z
     1   6    -0.01  -0.00   0.01     0.07   0.01  -0.22    -0.02   0.05  -0.01
     2   1    -0.02  -0.00   0.00     0.24   0.01  -0.76    -0.19   0.04  -0.07
     3   6     0.01   0.00   0.01    -0.14   0.00   0.47     0.19   0.06   0.06
     4   6     0.00   0.00  -0.00    -0.06   0.00   0.15     0.10   0.05  -0.01
     5   8     0.00  -0.01  -0.00     0.03   0.01  -0.14     0.02  -0.10   0.03
     6   8     0.00   0.01  -0.01     0.01  -0.00  -0.06     0.08   0.12  -0.15
     7   6     0.00   0.01   0.00    -0.00  -0.01  -0.03    -0.11  -0.18   0.08
     8   6     0.00  -0.01   0.01     0.03  -0.00  -0.03    -0.12  -0.02   0.06
     9   1     0.00   0.02   0.02    -0.01  -0.02  -0.05    -0.43  -0.28  -0.13
    10   1    -0.01   0.02  -0.00    -0.00  -0.03  -0.01    -0.02  -0.43   0.32
    11   1     0.00  -0.02  -0.01     0.06   0.00  -0.01    -0.03   0.10   0.27
    12   1    -0.00  -0.01   0.02    -0.00   0.03  -0.05    -0.21   0.15  -0.13
    13   1     0.03  -0.08  -0.09     0.01  -0.01   0.00    -0.00  -0.10   0.00
    14   8     0.01  -0.04  -0.05     0.02   0.00   0.01    -0.07   0.04  -0.02
    15   1    -0.17   0.65   0.72     0.01   0.00  -0.00    -0.12   0.03  -0.08
                     10                     11                     12
                      A                      A                      A
 Frequencies --    384.0036               436.3179               561.7034
 Red. masses --      5.6197                 1.1284                 5.5936
 Frc consts  --      0.4882                 0.1266                 1.0398
 IR Inten    --      7.1006                10.1341                20.3379
  Atom  AN      X      Y      Z        X      Y      Z        X      Y      Z
     1   6    -0.03   0.14   0.01    -0.00   0.00  -0.00     0.02  -0.25   0.01
     2   1    -0.17   0.13  -0.00     0.00   0.00   0.00    -0.11  -0.27  -0.03
     3   6     0.15   0.15   0.02    -0.01  -0.00  -0.01     0.16  -0.20   0.04
     4   6    -0.05   0.09   0.05    -0.01   0.00   0.00     0.02  -0.04   0.03
     5   8    -0.15  -0.18  -0.07    -0.01   0.00  -0.00     0.17   0.25   0.04
     6   8    -0.13   0.13   0.25    -0.01  -0.00   0.03    -0.14   0.14   0.03
     7   6    -0.08  -0.10  -0.18     0.01   0.02  -0.01    -0.27   0.05  -0.14
     8   6     0.18  -0.09  -0.12     0.01  -0.08   0.00     0.02  -0.01  -0.01
     9   1    -0.13  -0.19  -0.33     0.03   0.06   0.05    -0.38  -0.01  -0.26
    10   1     0.04  -0.29  -0.05     0.04   0.05  -0.08    -0.18  -0.13   0.02
    11   1     0.18  -0.10  -0.14     0.59  -0.08   0.20     0.14  -0.08  -0.06
    12   1     0.44  -0.19  -0.15    -0.39   0.26  -0.22     0.30  -0.14  -0.02
    13   1    -0.07   0.11   0.06    -0.07  -0.37   0.11    -0.14   0.01   0.26
    14   8     0.13  -0.05   0.03     0.02   0.04   0.01     0.04  -0.02  -0.00
    15   1     0.09   0.00   0.04    -0.30   0.15  -0.20    -0.19   0.09  -0.10
                     13                     14                     15
                      A                      A                      A
 Frequencies --    630.4228               670.4587               738.0778
 Red. masses --      5.5241                 1.1333                 1.3356
 Frc consts  --      1.2935                 0.3002                 0.4287
 IR Inten    --      1.3468                44.5120                16.8666
  Atom  AN      X      Y      Z        X      Y      Z        X      Y      Z
     1   6    -0.02   0.07  -0.01    -0.00  -0.03   0.00    -0.14   0.00  -0.04
     2   1    -0.49   0.03  -0.13     0.04  -0.03   0.01     0.90   0.08   0.28
     3   6     0.42   0.09   0.13     0.00  -0.03  -0.01     0.06   0.02   0.02
     4   6    -0.15  -0.03  -0.06    -0.01   0.00   0.01     0.00  -0.01  -0.01
     5   8    -0.09   0.18  -0.02    -0.00   0.01  -0.00     0.01   0.00   0.01
     6   8    -0.08  -0.29  -0.04    -0.02   0.04   0.01    -0.00  -0.01   0.00
     7   6     0.02  -0.04   0.02    -0.02   0.01   0.00    -0.02   0.00  -0.00
     8   6    -0.01   0.00   0.00    -0.02  -0.06  -0.02    -0.02   0.01  -0.02
     9   1     0.31   0.09   0.27    -0.05   0.05   0.06     0.01   0.01   0.01
    10   1    -0.16   0.27  -0.23     0.03   0.02  -0.06    -0.01   0.01  -0.02
    11   1    -0.02   0.08   0.11     0.04   0.04   0.12    -0.17   0.04  -0.02
    12   1    -0.06   0.09  -0.09    -0.44   0.26  -0.21    -0.09   0.04  -0.03
    13   1     0.03   0.03  -0.07     0.01   0.36  -0.36    -0.10   0.01   0.08
    14   8    -0.00   0.00  -0.00     0.04  -0.00   0.01     0.04  -0.01   0.02
    15   1     0.08  -0.03   0.04     0.52  -0.18   0.29    -0.10   0.05  -0.05
                     16                     17                     18
                      A                      A                      A
 Frequencies --    740.6064               766.3544               770.5186
 Red. masses --      1.5308                 8.8398                 4.0926
 Frc consts  --      0.4947                 3.0588                 1.4316
 IR Inten    --     63.2173                16.1774                 5.4411
  Atom  AN      X      Y      Z        X      Y      Z        X      Y      Z
     1   6    -0.04  -0.02  -0.02    -0.04  -0.12   0.05    -0.01   0.18   0.03
     2   1     0.29   0.00   0.10     0.14  -0.11   0.01     0.02   0.19  -0.10
     3   6     0.02  -0.01   0.02     0.15  -0.08  -0.26    -0.05   0.13  -0.11
     4   6    -0.01   0.01  -0.01    -0.27   0.07   0.62     0.07  -0.12   0.23
     5   8    -0.01   0.01   0.00    -0.08   0.05  -0.21     0.20  -0.07  -0.00
     6   8    -0.00   0.01   0.01     0.06   0.07  -0.13    -0.04  -0.13  -0.05
     7   6     0.02  -0.01  -0.01     0.15  -0.02   0.06    -0.20   0.01  -0.08
     8   6     0.05  -0.02   0.07     0.03   0.02  -0.02    -0.03  -0.02   0.02
     9   1     0.00  -0.00   0.00     0.03  -0.12  -0.11    -0.04   0.20   0.23
    10   1     0.01  -0.01  -0.00     0.13  -0.12   0.21    -0.18   0.22  -0.36
    11   1     0.58  -0.12   0.12    -0.13  -0.04  -0.16     0.18   0.10   0.27
    12   1     0.41  -0.18   0.06    -0.09  -0.05   0.17     0.32   0.01  -0.26
    13   1     0.35  -0.04  -0.21     0.07  -0.25  -0.09    -0.02   0.26   0.16
    14   8    -0.14   0.05  -0.06    -0.01   0.01   0.01    -0.02  -0.00  -0.02
    15   1     0.28  -0.15   0.15    -0.12   0.03  -0.08     0.11  -0.03   0.08
                     19                     20                     21
                      A                      A                      A
 Frequencies --    779.3599               813.0499               907.2981
 Red. masses --      1.2873                 1.2226                 1.1412
 Frc consts  --      0.4607                 0.4762                 0.5535
 IR Inten    --     41.3540                 3.2173                69.5861
  Atom  AN      X      Y      Z        X      Y      Z        X      Y      Z
     1   6     0.04   0.01  -0.14     0.01  -0.05  -0.00     0.00  -0.02   0.00
     2   1    -0.29   0.00   0.94    -0.00  -0.05   0.01    -0.00  -0.02   0.01
     3   6    -0.02   0.00   0.04    -0.01  -0.04   0.00     0.01  -0.01   0.00
     4   6    -0.01  -0.00   0.04    -0.01   0.04  -0.01    -0.01   0.02  -0.00
     5   8     0.01  -0.00  -0.01    -0.04   0.00  -0.01    -0.03  -0.00  -0.01
     6   8    -0.00  -0.00  -0.01     0.02   0.06   0.00     0.04  -0.01  -0.00
     7   6    -0.01   0.00  -0.00     0.02  -0.07   0.02     0.03   0.00   0.00
     8   6    -0.00  -0.00   0.00    -0.01  -0.02  -0.00    -0.06   0.00   0.00
     9   1    -0.00   0.00   0.00     0.06   0.20   0.41     0.06  -0.05  -0.06
    10   1    -0.01   0.00  -0.01     0.16   0.15  -0.40     0.05  -0.03   0.04
    11   1    -0.00   0.00   0.00    -0.21   0.28   0.36     0.33  -0.09   0.01
    12   1     0.00   0.00  -0.00     0.38   0.04  -0.37    -0.01  -0.02   0.03
    13   1    -0.00   0.01   0.00    -0.02   0.01   0.11    -0.18   0.63   0.65
    14   8     0.00  -0.00  -0.00    -0.00  -0.01  -0.00    -0.00  -0.02  -0.03
    15   1     0.00  -0.00   0.00    -0.09   0.04  -0.04     0.02   0.04   0.07
                     22                     23                     24
                      A                      A                      A
 Frequencies --   1057.4274              1088.2128              1169.8586
 Red. masses --      3.7822                 6.4556                 1.9130
 Frc consts  --      2.4917                 4.5042                 1.5425
 IR Inten    --      9.5491                75.3539               116.1166
  Atom  AN      X      Y      Z        X      Y      Z        X      Y      Z
     1   6    -0.00   0.03  -0.00     0.01  -0.10   0.00    -0.00   0.03  -0.00
     2   1    -0.01   0.04  -0.00     0.02  -0.11   0.01    -0.02   0.04  -0.01
     3   6    -0.00   0.02   0.00     0.00  -0.05  -0.00     0.01   0.01   0.00
     4   6    -0.01  -0.09  -0.01     0.04   0.27   0.02    -0.08  -0.13  -0.02
     5   8     0.04   0.01   0.01    -0.13  -0.04  -0.04    -0.02   0.02  -0.01
     6   8    -0.10   0.04  -0.04     0.34  -0.16   0.08     0.09  -0.03   0.03
     7   6     0.00   0.02   0.34    -0.37   0.12   0.07     0.01   0.19  -0.01
     8   6     0.11  -0.06  -0.30     0.03   0.02  -0.13    -0.03  -0.09   0.01
     9   1    -0.18   0.04   0.35    -0.20   0.20   0.23    -0.34   0.02  -0.32
    10   1    -0.13   0.04   0.44    -0.36   0.17   0.01     0.39  -0.30   0.31
    11   1     0.21  -0.09  -0.32     0.21  -0.15  -0.33    -0.19   0.16   0.31
    12   1     0.24  -0.08  -0.36     0.10  -0.06  -0.08     0.27   0.02  -0.36
    13   1     0.05   0.07   0.18     0.00  -0.15  -0.21     0.02  -0.03  -0.03
    14   8    -0.02   0.00  -0.01     0.01   0.00   0.01    -0.00   0.00   0.00
    15   1    -0.02   0.01   0.00     0.04  -0.02   0.00    -0.00  -0.00   0.00
                     25                     26                     27
                      A                      A                      A
 Frequencies --   1247.1297              1269.6067              1339.2385
 Red. masses --      2.2903                 1.6452                 1.2158
 Frc consts  --      2.0988                 1.5625                 1.2848
 IR Inten    --    289.7262                92.8193               105.6139
  Atom  AN      X      Y      Z        X      Y      Z        X      Y      Z
     1   6     0.00  -0.05   0.00    -0.00   0.02  -0.00    -0.00   0.01  -0.00
     2   1     0.03  -0.05   0.01    -0.01   0.02  -0.00    -0.01   0.01  -0.00
     3   6    -0.01  -0.01  -0.00     0.01   0.00   0.00    -0.00   0.00  -0.00
     4   6     0.11   0.21   0.03    -0.05  -0.09  -0.01    -0.03  -0.06  -0.01
     5   8     0.01  -0.02   0.00    -0.00   0.01  -0.00    -0.00   0.00  -0.00
     6   8    -0.11  -0.09  -0.01     0.06   0.03   0.03     0.05   0.06   0.01
     7   6     0.09   0.07  -0.03    -0.04  -0.03  -0.04    -0.04   0.01   0.00
     8   6     0.05  -0.10  -0.00     0.15  -0.01   0.01    -0.00  -0.05   0.01
     9   1    -0.21  -0.03  -0.25    -0.19   0.16   0.20     0.69  -0.26  -0.22
    10   1    -0.42   0.15   0.33    -0.03  -0.01  -0.08    -0.51   0.21   0.16
    11   1    -0.34   0.21   0.32    -0.32   0.03  -0.10    -0.10   0.03   0.10
    12   1    -0.04   0.07  -0.20    -0.42   0.17   0.15     0.06   0.04  -0.18
    13   1     0.22  -0.03   0.32     0.39  -0.10   0.56     0.05  -0.02   0.03
    14   8    -0.04   0.01  -0.03    -0.07   0.02  -0.05    -0.01   0.00  -0.00
    15   1     0.04  -0.02   0.05     0.11  -0.05   0.09     0.00  -0.01   0.00
                     28                     29                     30
                      A                      A                      A
 Frequencies --   1412.5881              1466.7512              1514.7950
 Red. masses --      1.3124                 1.1727                 1.0920
 Frc consts  --      1.5429                 1.4865                 1.4763
 IR Inten    --     24.2573                 8.1301                21.5224
  Atom  AN      X      Y      Z        X      Y      Z        X      Y      Z
     1   6     0.00  -0.01   0.00     0.00  -0.00   0.00     0.00  -0.01   0.00
     2   1     0.01  -0.02   0.00     0.00  -0.00   0.00     0.00  -0.01   0.00
     3   6    -0.00  -0.00  -0.00    -0.00   0.00  -0.00    -0.00  -0.00  -0.00
     4   6     0.03   0.06   0.01     0.00   0.01  -0.00     0.01   0.03   0.00
     5   8     0.01  -0.01   0.00     0.00  -0.00   0.00     0.00  -0.00   0.00
     6   8    -0.05  -0.02  -0.03    -0.01  -0.00  -0.01    -0.02  -0.01  -0.01
     7   6    -0.08   0.04   0.07    -0.05   0.02   0.03    -0.02   0.01  -0.07
     8   6     0.04  -0.01   0.04     0.03  -0.02  -0.10    -0.01   0.00   0.01
     9   1     0.43  -0.24  -0.23     0.22  -0.08  -0.07     0.40   0.32   0.48
    10   1     0.60  -0.19  -0.26     0.20  -0.09  -0.06     0.06  -0.47   0.52
    11   1    -0.13  -0.14  -0.22     0.07   0.40   0.53    -0.01  -0.01  -0.02
    12   1    -0.01   0.17  -0.21    -0.19  -0.32   0.54     0.01   0.02  -0.03
    13   1     0.08  -0.10   0.18     0.02   0.02  -0.01    -0.00   0.00  -0.00
    14   8    -0.02   0.01  -0.02    -0.00  -0.00   0.00     0.00  -0.00   0.00
    15   1     0.08  -0.03   0.05    -0.03   0.01  -0.01     0.00  -0.00  -0.00
                     31                     32                     33
                      A                      A                      A
 Frequencies --   1578.1661              1870.4608              2252.2011
 Red. masses --      1.0545                13.0389                 5.7225
 Frc consts  --      1.5474                26.8774                17.1021
 IR Inten    --     45.0540               520.1374                58.0110
  Atom  AN      X      Y      Z        X      Y      Z        X      Y      Z
     1   6     0.00  -0.00   0.00    -0.00   0.05  -0.00     0.03  -0.38   0.01
     2   1    -0.00  -0.00   0.00     0.02   0.08   0.01     0.05  -0.75   0.01
     3   6     0.00  -0.00   0.00    -0.01  -0.03  -0.00    -0.04   0.53  -0.01
     4   6     0.00   0.00   0.00     0.72  -0.35   0.20     0.01  -0.08   0.00
     5   8     0.00  -0.00   0.00    -0.48   0.24  -0.13    -0.00   0.00  -0.00
     6   8    -0.00  -0.00   0.00    -0.03   0.02  -0.01    -0.00  -0.00  -0.00
     7   6    -0.01   0.00   0.00    -0.03  -0.01  -0.00     0.00  -0.00  -0.00
     8   6     0.03  -0.02   0.02     0.00  -0.00  -0.00    -0.00   0.00   0.00
     9   1     0.01  -0.00  -0.01     0.08  -0.01   0.00    -0.01  -0.00   0.00
    10   1     0.04  -0.01  -0.02    -0.01  -0.04  -0.01    -0.00   0.00  -0.00
    11   1    -0.00  -0.03  -0.04    -0.01   0.00   0.00     0.00  -0.00  -0.00
    12   1    -0.06   0.07  -0.04    -0.01   0.00   0.01    -0.00   0.00   0.00
    13   1     0.56   0.52  -0.28     0.02   0.00   0.01    -0.00  -0.00  -0.00
    14   8    -0.01  -0.03   0.03    -0.00  -0.00  -0.00     0.00   0.00   0.00
    15   1    -0.48   0.15  -0.26    -0.01   0.00  -0.00     0.00  -0.00   0.00
                     34                     35                     36
                      A                      A                      A
 Frequencies --   3111.4469              3120.7891              3170.4283
 Red. masses --      1.0595                 1.0538                 1.1070
 Frc consts  --      6.0436                 6.0471                 6.5557
 IR Inten    --      4.4939                 6.6858                 2.8639
  Atom  AN      X      Y      Z        X      Y      Z        X      Y      Z
     1   6    -0.00  -0.00  -0.00     0.00   0.00   0.00    -0.00   0.00  -0.00
     2   1    -0.00  -0.00  -0.00     0.00   0.00   0.00    -0.00  -0.00  -0.00
     3   6    -0.00   0.00   0.00    -0.00  -0.00   0.00    -0.00   0.00  -0.00
     4   6    -0.00  -0.00  -0.00     0.00   0.00   0.00     0.00  -0.00   0.00
     5   8     0.00  -0.00   0.00    -0.00  -0.00  -0.00    -0.00   0.00  -0.00
     6   8     0.00  -0.00   0.00    -0.00   0.00  -0.00    -0.00   0.00   0.00
     7   6     0.01  -0.02   0.06    -0.01   0.01  -0.03    -0.04  -0.08  -0.01
     8   6    -0.00   0.00  -0.03    -0.01  -0.00  -0.05     0.01   0.02  -0.00
     9   1     0.09   0.61  -0.41    -0.05  -0.35   0.23     0.06   0.40  -0.28
    10   1    -0.22  -0.33  -0.23     0.12   0.17   0.12     0.40   0.58   0.44
    11   1    -0.07  -0.29   0.19    -0.13  -0.49   0.33    -0.03  -0.15   0.10
    12   1     0.12   0.26   0.17     0.23   0.50   0.32    -0.06  -0.12  -0.08
    13   1    -0.01   0.00  -0.00    -0.01   0.00  -0.01     0.00   0.00  -0.00
    14   8     0.00  -0.00   0.00     0.00  -0.00   0.00     0.00  -0.00   0.00
    15   1    -0.00   0.00  -0.00     0.00   0.00  -0.00    -0.00  -0.00  -0.00
                     37                     38                     39
                      A                      A                      A
 Frequencies --   3210.9319              3486.5337              3863.5129
 Red. masses --      1.1125                 1.1703                 1.0660
 Frc consts  --      6.7578                 8.3817                 9.3746
 IR Inten    --      3.3899                61.6572                64.9401
  Atom  AN      X      Y      Z        X      Y      Z        X      Y      Z
     1   6    -0.00   0.00   0.00     0.01  -0.12   0.00     0.00   0.00   0.00
     2   1     0.00  -0.00   0.00    -0.07   0.99  -0.01     0.00  -0.00   0.00
     3   6    -0.00  -0.00   0.00    -0.00   0.04  -0.00     0.00   0.00   0.00
     4   6     0.00  -0.00  -0.00    -0.00  -0.00  -0.00    -0.00  -0.00  -0.00
     5   8    -0.00   0.00  -0.00     0.00   0.00   0.00     0.00  -0.00   0.00
     6   8    -0.00   0.00  -0.00     0.00  -0.00   0.00     0.00   0.00  -0.00
     7   6    -0.01  -0.02  -0.00    -0.00  -0.00   0.00    -0.00  -0.00   0.00
     8   6    -0.03  -0.09   0.00    -0.00  -0.00   0.00    -0.00   0.00  -0.00
     9   1     0.02   0.11  -0.08    -0.00   0.00  -0.00     0.00   0.00  -0.00
    10   1     0.09   0.14   0.11     0.00   0.00   0.00    -0.00  -0.00  -0.00
    11   1     0.13   0.55  -0.39     0.00   0.00  -0.00     0.00   0.00  -0.00
    12   1     0.25   0.52   0.35    -0.00  -0.00   0.00     0.00  -0.00  -0.00
    13   1    -0.01  -0.01  -0.00     0.00   0.00   0.00     0.01  -0.01   0.02
    14   8     0.00   0.00  -0.00    -0.00  -0.00   0.00    -0.04  -0.04   0.03
    15   1     0.00  -0.00   0.00     0.00   0.00  -0.00     0.55   0.68  -0.48

 -------------------
 - Thermochemistry -
 -------------------
 Temperature   298.150 Kelvin.  Pressure   1.00000 Atm.
 Atom     1 has atomic number  6 and mass  12.00000
 Atom     2 has atomic number  1 and mass   1.00783
 Atom     3 has atomic number  6 and mass  12.00000
 Atom     4 has atomic number  6 and mass  12.00000
 Atom     5 has atomic number  8 and mass  15.99491
 Atom     6 has atomic number  8 and mass  15.99491
 Atom     7 has atomic number  6 and mass  12.00000
 Atom     8 has atomic number  6 and mass  12.00000
 Atom     9 has atomic number  1 and mass   1.00783
 Atom    10 has atomic number  1 and mass   1.00783
 Atom    11 has atomic number  1 and mass   1.00783
 Atom    12 has atomic number  1 and mass   1.00783
 Atom    13 has atomic number  1 and mass   1.00783
 Atom    14 has atomic number  8 and mass  15.99491
 Atom    15 has atomic number  1 and mass   1.00783
 Molecular mass:   115.03952 amu.
 Principal axes and moments of inertia in atomic units:
                           1         2         3
     Eigenvalues --   540.705731789.039802188.41250
           X            0.99974   0.02146  -0.00824
           Y           -0.02146   0.99977  -0.00029
           Z            0.00823   0.00047   0.99997
 This molecule is an asymmetric top.
 Rotational symmetry number  1.
 Warning -- assumption of classical behavior for rotation
           may cause significant error
 Rotational temperatures (Kelvin)      0.16019     0.04841     0.03958
 Rotational constants (GHZ):           3.33775     1.00878     0.82468
    2 imaginary frequencies ignored.
 Zero-point vibrational energy     279164.7 (Joules/Mol)
                                   66.72197 (Kcal/Mol)
 Warning -- explicit consideration of  10 degrees of freedom as
           vibrations may cause significant error
 Vibrational temperatures:     78.53   132.17   188.63   255.51   291.54
          (Kelvin)            371.13   472.96   552.50   627.76   808.17
                              907.04   964.64  1061.93  1065.57  1102.61
                             1108.60  1121.33  1169.80  1305.40  1521.40
                             1565.70  1683.17  1794.34  1826.68  1926.87
                             2032.40  2110.33  2179.45  2270.63  2691.18
                             3240.41  4476.68  4490.12  4561.54  4619.81
                             5016.34  5558.73
 
 Zero-point correction=                           0.106328 (Hartree/Particle)
 Thermal correction to Energy=                    0.115196
 Thermal correction to Enthalpy=                  0.116140
 Thermal correction to Gibbs Free Energy=         0.071356
 Sum of electronic and zero-point Energies=           -420.092746
 Sum of electronic and thermal Energies=              -420.083879
 Sum of electronic and thermal Enthalpies=            -420.082934
 Sum of electronic and thermal Free Energies=         -420.127718
 
                     E (Thermal)             CV                S
                      KCal/Mol        Cal/Mol-Kelvin    Cal/Mol-Kelvin
 Total                   72.286             31.119             94.255
 Electronic               0.000              0.000              1.377
 Translational            0.889              2.981             40.136
 Rotational               0.889              2.981             29.139
 Vibrational             70.509             25.157             23.603
 Vibration     1          0.596              1.976              4.644
 Vibration     2          0.602              1.955              3.620
 Vibration     3          0.612              1.922              2.930
 Vibration     4          0.628              1.870              2.354
 Vibration     5          0.639              1.836              2.109
 Vibration     6          0.667              1.749              1.676
 Vibration     7          0.712              1.618              1.266
 Vibration     8          0.753              1.504              1.023
 Vibration     9          0.797              1.391              0.838
 Vibration    10          0.917              1.114              0.520
                       Q            Log10(Q)             Ln(Q)
 Total Bot       0.150787D-32        -32.821637        -75.574612
 Total V=0       0.121874D+17         16.085913         37.039183
 Vib (Bot)       0.298475D-46        -46.525092       -107.127983
 Vib (Bot)    1  0.378546D+01          0.578119          1.331168
 Vib (Bot)    2  0.223738D+01          0.349740          0.805305
 Vib (Bot)    3  0.155452D+01          0.191596          0.441166
 Vib (Bot)    4  0.113193D+01          0.053821          0.123927
 Vib (Bot)    5  0.983031D+00         -0.007433         -0.017114
 Vib (Bot)    6  0.753738D+00         -0.122780         -0.282711
 Vib (Bot)    7  0.568842D+00         -0.245008         -0.564153
 Vib (Bot)    8  0.469521D+00         -0.328345         -0.756043
 Vib (Bot)    9  0.397363D+00         -0.400813         -0.922906
 Vib (Bot)   10  0.276239D+00         -0.558715         -1.286490
 Vib (V=0)       0.241245D+03          2.382457          5.485811
 Vib (V=0)    1  0.431834D+01          0.635317          1.462871
 Vib (V=0)    2  0.279257D+01          0.446004          1.026961
 Vib (V=0)    3  0.213295D+01          0.328981          0.757506
 Vib (V=0)    4  0.173745D+01          0.239911          0.552416
 Vib (V=0)    5  0.160288D+01          0.204902          0.471804
 Vib (V=0)    6  0.140450D+01          0.147522          0.339681
 Vib (V=0)    7  0.125735D+01          0.099457          0.229007
 Vib (V=0)    8  0.118589D+01          0.074046          0.170496
 Vib (V=0)    9  0.113867D+01          0.056397          0.129859
 Vib (V=0)   10  0.107123D+01          0.029884          0.068811
 Electronic      0.200000D+01          0.301030          0.693147
 Translational   0.484981D+08          7.685724         17.697035
 Rotational      0.520836D+06          5.716701         13.163190
 ***** Axes restored to original set *****
 -------------------------------------------------------------------
 Center     Atomic                   Forces (Hartrees/Bohr)
 Number     Number              X              Y              Z
 -------------------------------------------------------------------
      1        6          -0.000068342    0.000052369    0.000017966
      2        1          -0.000014228    0.000079488   -0.000033889
      3        6          -0.000132144   -0.000352619    0.000082723
      4        6           0.000590338    0.001247704    0.000305863
      5        8          -0.000211253   -0.000344746   -0.000146347
      6        8          -0.001040550   -0.000685524    0.000879391
      7        6          -0.004456093    0.001838299   -0.001773970
      8        6           0.026955621   -0.009780202    0.006291946
      9        1          -0.000047958   -0.000043509   -0.000008665
     10        1          -0.000057377    0.000052832   -0.000129110
     11        1          -0.004237356    0.000602288   -0.000371913
     12        1          -0.004757337    0.002799308   -0.000841333
     13        1          -0.034208392    0.009452488   -0.014363151
     14        8           0.023193630   -0.006418076    0.011660722
     15        1          -0.001508559    0.001499899   -0.001570235
 -------------------------------------------------------------------
 Cartesian Forces:  Max     0.034208392 RMS     0.008340698

 GradGradGradGradGradGradGradGradGradGradGradGradGradGradGradGradGradGrad
 Berny optimization.
 Search for a local minimum.
 Step number   1 out of a maximum of    2
 All quantities printed in internal units (Hartrees-Bohrs-Radians)
 Second derivative matrix not updated -- analytic derivatives used.
 ITU=  0
     Eigenvalues ---   -0.03644  -0.00028   0.00069   0.00138   0.00214
     Eigenvalues ---    0.00427   0.00503   0.00976   0.01530   0.01908
     Eigenvalues ---    0.02049   0.02921   0.03523   0.04267   0.06202
     Eigenvalues ---    0.07023   0.07686   0.08509   0.08667   0.09013
     Eigenvalues ---    0.12193   0.13436   0.15412   0.16671   0.22484
     Eigenvalues ---    0.24536   0.27678   0.28990   0.40636   0.53882
     Eigenvalues ---    0.62733   0.70868   0.79962   0.83238   0.85631
     Eigenvalues ---    0.95870   1.00045   1.78961   2.70732
 Eigenvalue     1 is  -3.64D-02 should be greater than     0.000000 Eigenvector:
                          X13       X8        Z13       Y13       X15
   1                    0.76502  -0.38500   0.27315  -0.25747   0.14980
                          Z8        Z6        Y8        Z15       Z11
   1                   -0.14864   0.13483   0.10761   0.07732  -0.07394
 Eigenvalue     2 is  -2.81D-04 should be greater than     0.000000 Eigenvector:
                          Y12       Y15       Y14       Y11       X2
   1                    0.41656  -0.32143  -0.32086   0.27907   0.26785
                          X11       Y13       Y8        Z12       X1
   1                    0.26111  -0.24093   0.23275  -0.19561   0.18678
 Quadratic step=2.217D+00 exceeds max=3.000D-01 adjusted using Lamda=-1.269D-01.
 Angle between NR and scaled steps=  54.37 degrees.
 Angle between quadratic step and forces=  18.62 degrees.
 Linear search not attempted -- first point.
 B after Tr=     0.011998   -0.004006    0.002790
         Rot=    0.999999   -0.000440   -0.000963   -0.000455 Ang=  -0.13 deg.
 Variable       Old X    -DE/DX   Delta X   Delta X   Delta X     New X
                                 (Linear)    (Quad)   (Total)
    X1        2.38342  -0.00007   0.00000  -0.01082  -0.00292   2.38049
    Y1        4.25100   0.00005   0.00000   0.00293   0.00119   4.25219
    Z1       -0.11203   0.00002   0.00000  -0.00392  -0.00196  -0.11399
    X2        2.24108  -0.00001   0.00000  -0.00257   0.00345   2.24454
    Y2        6.25907   0.00008   0.00000   0.00340   0.00155   6.26062
    Z2       -0.14058  -0.00003   0.00000  -0.00334   0.00066  -0.13992
    X3        2.55667  -0.00013   0.00000  -0.01665  -0.00663   2.55005
    Y3        1.99204  -0.00035   0.00000   0.00239   0.00076   1.99281
    Z3       -0.07988   0.00008   0.00000  -0.00010  -0.00045  -0.08033
    X4        2.92199   0.00059   0.00000  -0.01949  -0.00678   2.91521
    Y4       -0.74921   0.00125   0.00000   0.00253   0.00115  -0.74806
    Z4        0.01542   0.00031   0.00000   0.00409   0.00063   0.01605
    X5        4.90470  -0.00021   0.00000  -0.02438  -0.00976   4.89494
    Y5       -1.66976  -0.00034   0.00000  -0.00118  -0.00124  -1.67100
    Z5        0.56527  -0.00015   0.00000   0.01275   0.00466   0.56994
    X6        0.92005  -0.00104   0.00000  -0.01199   0.00089   0.92094
    Y6       -2.19251  -0.00069   0.00000  -0.00303  -0.00570  -2.19820
    Z6       -0.56752   0.00088   0.00000  -0.00726  -0.00815  -0.57567
    X7       -1.51265  -0.00446   0.00000  -0.01251  -0.00161  -1.51426
    Y7       -1.07703   0.00184   0.00000   0.00584   0.00139  -1.07564
    Z7       -1.06606  -0.00177   0.00000  -0.01085  -0.00607  -1.07213
    X8       -2.84995   0.02696   0.00000   0.13900   0.15423  -2.69571
    Y8       -0.50197  -0.00978   0.00000  -0.04531  -0.05303  -0.55499
    Z8        1.38114   0.00629   0.00000   0.03340   0.04093   1.42207
    X9       -1.29736  -0.00005   0.00000  -0.00765  -0.00052  -1.29789
    Y9        0.60710  -0.00004   0.00000   0.00675   0.00353   0.61062
    Z9       -2.23406  -0.00001   0.00000  -0.00632  -0.00047  -2.23454
   X10       -2.51871  -0.00006   0.00000  -0.01304  -0.00291  -2.52162
   Y10       -2.50887   0.00005   0.00000   0.00433  -0.00009  -2.50896
   Z10       -2.14473  -0.00013   0.00000  -0.00717  -0.00171  -2.14644
   X11       -3.22379  -0.00424   0.00000  -0.03355  -0.01469  -3.23848
   Y11       -2.16208   0.00060   0.00000  -0.00707  -0.01628  -2.17836
   Z11        2.53533  -0.00037   0.00000  -0.00017   0.00697   2.54230
   X12       -2.08160  -0.00476   0.00000  -0.02754  -0.01184  -2.09343
   Y12        1.07784   0.00280   0.00000   0.03410   0.02602   1.10386
   Z12        2.45094  -0.00084   0.00000  -0.00351   0.00431   2.45525
   X13       -5.29075  -0.03421   0.00000  -0.20938  -0.19681  -5.48756
   Y13        0.37610   0.00945   0.00000   0.06426   0.05481   0.43091
   Z13        0.58471  -0.01436   0.00000  -0.08717  -0.07339   0.51132
   X14       -7.17002   0.02319   0.00000   0.07145   0.08245  -7.08757
   Y14        0.72830  -0.00642   0.00000  -0.01350  -0.02381   0.70450
   Z14       -0.21125   0.01166   0.00000   0.02072   0.03781  -0.17344
   X15       -8.14735  -0.00151   0.00000  -0.00032   0.01343  -8.13392
   Y15       -0.52392   0.00150   0.00000   0.02175   0.00974  -0.51418
   Z15        0.68609  -0.00157   0.00000  -0.02182  -0.00378   0.68231
         Item               Value     Threshold  Converged?
 Maximum Force            0.034208     0.000450     NO 
 RMS     Force            0.008341     0.000300     NO 
 Maximum Displacement     0.196809     0.001800     NO 
 RMS     Displacement     0.043780     0.001200     NO 
 Predicted change in Energy=-1.623577D-02
 GradGradGradGradGradGradGradGradGradGradGradGradGradGradGradGradGradGrad


 ----------------------------------------------------------------------

 Electric dipole moment (input orientation):
 (Debye = 10**-18 statcoulomb cm , SI units = C m)
                  (au)            (Debye)         (10**-30 SI)
   Tot        0.109212D+01      0.277589D+01      0.925939D+01
   x         -0.884061D+00     -0.224706D+01     -0.749538D+01
   y          0.578320D+00      0.146994D+01      0.490320D+01
   z          0.276967D+00      0.703979D+00      0.234822D+01

 Dipole polarizability, Alpha (input orientation).
 (esu units = cm**3 , SI units = C**2 m**2 J**-1)
 Alpha(0;0):
               (au)            (10**-24 esu)      (10**-40 SI)
   iso        0.740426D+02      0.109720D+02      0.122080D+02
   aniso      0.386063D+02      0.572086D+01      0.636531D+01
   xx         0.926817D+02      0.137340D+02      0.152811D+02
   yx        -0.418696D+01     -0.620444D+00     -0.690337D+00
   yy         0.784026D+02      0.116181D+02      0.129268D+02
   zx         0.539369D+01      0.799263D+00      0.889300D+00
   zy        -0.158059D+01     -0.234219D+00     -0.260604D+00
   zz         0.510434D+02      0.756386D+01      0.841593D+01

 ----------------------------------------------------------------------

 Dipole orientation:
     6          2.50046822          4.17442578          0.29330290
     1          3.09606170          5.69977381          1.46462731
     6          1.83676099          2.46298409         -1.03499890
     6          1.15092678          0.40934615         -2.75814440
     8          2.22758368          0.08151615         -4.71115417
     8         -0.76997542         -1.08695727         -2.04970761
     6         -1.95321175         -0.78883226          0.38378694
     6         -0.41386641         -2.09555762          2.39145532
     1         -2.22007688          1.21070136          0.80511323
     1         -3.79617162         -1.67320593          0.16641523
     1         -0.22565632         -4.12335393          2.10769224
     1          1.35904293         -1.17290214          2.87735888
     1         -1.92328729         -1.82676376          4.63025377
     8         -3.34413408         -1.77444824          6.13615217
     1         -3.51239495         -3.55593395          6.49175731

 Electric dipole moment (dipole orientation):
 (Debye = 10**-18 statcoulomb cm , SI units = C m)
                  (au)            (Debye)         (10**-30 SI)
   Tot        0.109212D+01      0.277589D+01      0.925939D+01
   x          0.000000D+00      0.000000D+00      0.000000D+00
   y          0.000000D+00      0.000000D+00      0.000000D+00
   z          0.109212D+01      0.277589D+01      0.925939D+01

 Dipole polarizability, Alpha (dipole orientation).
 (esu units = cm**3 , SI units = C**2 m**2 J**-1)
 Alpha(0;0):
               (au)            (10**-24 esu)      (10**-40 SI)
   iso        0.740426D+02      0.109720D+02      0.122080D+02
   aniso      0.386063D+02      0.572086D+01      0.636531D+01
   xx         0.656538D+02      0.972890D+01      0.108249D+02
   yx         0.114398D+02      0.169520D+01      0.188617D+01
   yy         0.695237D+02      0.103024D+02      0.114629D+02
   zx        -0.147288D+02     -0.218258D+01     -0.242845D+01
   zy         0.450659D+01      0.667808D+00      0.743037D+00
   zz         0.869502D+02      0.128847D+02      0.143361D+02

 ----------------------------------------------------------------------
 1\1\GINC-AJ\Freq\UM062X\6-311++G(d,p)\C5H7O3(2)\AAYUSH\02-Apr-2025\0\\
 # freq 6-311++g(d,p) m062x\\Title Card Required\\0,2\C,1.261249,2.2495
 31,-0.059284\H,1.185931,3.312156,-0.074392\C,1.352934,1.054144,-0.0422
 73\C,1.546248,-0.396467,0.008161\O,2.595458,-0.883597,0.299129\O,0.486
 867,-1.160224,-0.300317\C,-0.800459,-0.569941,-0.564134\C,-1.508126,-0
 .265629,0.730868\H,-0.686534,0.321261,-1.182215\H,-1.332845,-1.327638,
 -1.134944\H,-1.705958,-1.144126,1.341637\H,-1.101535,0.570367,1.296981
 \H,-2.799743,0.199025,0.309416\O,-3.794212,0.385402,-0.111789\H,-4.311
 391,-0.277247,0.363064\\Version=ES64L-G16RevA.03\State=2-A\HF=-420.199
 0743\S2=0.758559\S2-1=0.\S2A=0.750045\RMSD=7.408e-09\RMSF=8.341e-03\Ze
 roPoint=0.1063282\Thermal=0.1151958\Dipole=-0.8840612,0.5783198,0.2769
 666\DipoleDeriv=-0.1583428,0.0135135,-0.0033287,-0.0056943,-0.2102843,
 0.0069995,0.0017529,-0.0026616,-0.1174013,0.2236365,-0.004524,0.005067
 4,0.0153514,0.2747308,-0.0008578,0.0036544,-0.0031335,0.2001804,-0.163
 2442,-0.0412936,-0.0088552,-0.0653017,-0.6030152,-0.0000926,-0.0166804
 ,0.0090419,-0.1076895,2.3814255,0.0324487,0.3733814,0.5204918,1.767438
 6,0.025829,0.5563683,-0.0148025,0.5150437,-1.3459779,0.2660975,-0.1780
 73,0.3004545,-0.8210646,0.083616,-0.2785845,0.0766704,-0.4050908,-1.83
 57698,-0.1789661,-0.1637247,-0.5386822,-0.6658425,-0.1106696,-0.212534
 1,-0.0861631,-0.4057698,0.8302276,-0.0202181,-0.0118872,-0.2068067,0.2
 225618,-0.0116985,-0.2018375,0.0560653,0.320721,0.4541356,-0.0904388,0
 .1307793,-0.0778778,0.0956817,-0.0506025,0.2001394,-0.0683001,-0.01553
 09,-0.0097312,-0.0143659,0.0467213,0.0400085,-0.0014358,0.0683785,0.03
 72173,0.0508254,0.0200321,-0.006503,-0.0237564,-0.0188164,-0.0397505,0
 .0051747,-0.0713604,-0.0115601,-0.0339322,0.0412281,0.0118073,0.020800
 2,-0.0190769,-0.039238,-0.0079265,0.0628448,0.0468998,0.0250614,0.0163
 801,0.03496,-0.0443235,-0.052961,0.0216785,0.0091013,-0.0247402,0.0103
 495,-0.0374265,0.0251642,-0.1717265,0.067527,-0.1338609,0.0496648,0.15
 80809,0.0694474,-0.2050361,0.0742278,0.116307,-0.5892026,0.0228417,0.0
 387942,-0.0086941,-0.4233847,-0.1563123,0.1045043,-0.1595435,-0.440578
 8,0.3443054,-0.0053424,-0.0041597,0.0343958,0.2001838,0.1092186,-0.034
 6532,0.1140709,0.2370046\Polar=92.6817051,-4.1869619,78.4026172,5.3936
 92,-1.580587,51.0434383\Quadrupole=-8.0420816,5.3734662,2.6686154,9.82
 63274,-4.6744254,-0.010007\PG=C01 [X(C5H7O3)]\NImag=2\\0.06537954,-0.1
 1363497,1.55458961,-0.00020590,-0.02156608,0.06139107,-0.02897812,0.02
 778095,0.00056676,0.01860401,0.02846733,-0.42118820,0.00567360,-0.0281
 3585,0.41156893,0.00059665,0.00562805,-0.03000187,-0.00004166,-0.00565
 108,0.01801421,-0.03809045,0.08571764,0.00012695,0.00472849,-0.0003673
 3,-0.00095922,0.12130301,0.08395925,-1.13334682,0.01531201,-0.00058285
 ,0.00996119,-0.00020548,-0.10694528,1.44934643,0.00011097,0.01613689,-
 0.03433458,-0.00099677,-0.00004575,0.00788111,0.01499515,-0.02123548,0
 .06450672,0.00259091,0.00262071,-0.00016706,0.00597783,-0.00012774,-0.
 00010022,-0.06524392,-0.00219310,0.00412506,0.89804551,0.00175482,0.00
 817843,0.00101351,0.00191196,-0.00124812,0.00040731,0.01054857,-0.2410
 2897,0.00305046,-0.19269044,0.64431448,-0.00058642,0.00064586,0.003191
 39,0.00014756,-0.00004787,0.00581625,0.00331853,-0.00053751,-0.0741632
 1,0.19116210,-0.05117760,0.25488299,0.00136377,-0.00210250,0.00029150,
 0.00020059,0.00001871,0.00042620,-0.01781933,0.04561611,-0.01169204,-0
 .61868606,0.26519338,-0.14934114,0.74016549,-0.00033795,-0.00363110,-0
 .00018657,-0.00182176,0.00054008,-0.00048874,0.04983661,-0.03840966,0.
 01361157,0.27358932,-0.23166660,0.07558906,-0.29697942,0.23954152,0.00
 043014,-0.00057105,0.00014442,0.00035445,0.00001064,-0.00100366,-0.011
 59450,0.01236282,0.02033981,-0.14912613,0.07347746,-0.11772764,0.19621
 692,-0.08208802,0.08602544,0.00062110,-0.00227576,-0.00021060,-0.00055
 650,0.00049231,0.00026860,-0.00097488,-0.01782328,-0.00706420,-0.18315
 590,-0.09603803,-0.03559338,-0.10815696,-0.02060425,-0.03573255,0.5277
 1571,0.00176241,-0.00406560,0.00027798,0.00107836,0.00038672,0.0003681
 5,-0.03135549,-0.04139267,-0.00871312,-0.06863042,-0.19488352,-0.02169
 258,-0.00535535,0.03489724,-0.00131436,0.03793233,0.32252178,0.0001472
 6,-0.00022443,0.00016476,0.00002471,0.00007495,-0.00080246,-0.00535092
 ,-0.00508242,0.01591115,-0.03999891,-0.03254346,-0.06084547,-0.0332290
 5,-0.00476584,0.00720862,0.11878895,0.02039300,0.09124425,-0.00203414,
 0.00263366,-0.00055400,-0.00000316,-0.00025724,-0.00016517,-0.00015002
 ,0.00118709,0.00014139,-0.04677689,-0.00476973,-0.01075785,0.00930798,
 -0.00207779,0.00129298,-0.15716696,0.03916135,-0.02017940,0.43643070,-
 0.00006295,-0.00045909,0.00004501,-0.00005423,0.00000751,-0.00005439,-
 0.00513445,-0.00457210,-0.00243663,-0.00914638,0.02054589,-0.00269675,
 -0.00951426,-0.00166701,-0.00236442,0.05774664,-0.11661042,0.01414999,
 0.09594183,0.61747206,-0.00125097,-0.00009677,-0.00099535,-0.00007892,
 0.00007521,0.00002781,-0.00018983,-0.00079661,0.00082255,-0.00870524,0
 .00138138,-0.01261777,-0.00152199,-0.00107211,0.00553160,-0.03710672,0
 .01482639,-0.05934256,0.01954606,-0.00443011,0.54614518,0.00006757,0.0
 0005797,0.00024367,-0.00005105,-0.00012238,0.00004361,-0.00072812,-0.0
 0037565,-0.00014236,-0.00027346,0.00179285,0.00346175,-0.00034686,-0.0
 0017561,-0.00125831,-0.03637582,0.01688055,0.02300209,-0.07784357,-0.0
 0637549,0.04985370,0.23073964,-0.00011507,0.00015085,-0.00007989,0.000
 00272,0.00001300,0.00005773,-0.00022164,0.00025379,-0.00025919,-0.0011
 3920,-0.00086820,-0.00001482,0.00042905,0.00010307,0.00042328,0.017435
 89,-0.00326137,-0.01049039,-0.00385509,-0.09226989,-0.01975302,0.12334
 019,0.55097312,0.00038723,-0.00029171,-0.00025674,-0.00007835,-0.00009
 535,0.00007212,0.00057933,0.00046257,-0.00057594,-0.00037083,0.0020278
 5,0.00110651,-0.00038080,-0.00042603,-0.00047746,0.00822636,-0.0055195
 1,0.00715678,0.06492632,-0.02609435,-0.19071029,-0.05606727,0.01692456
 ,0.48479039,-0.00040745,-0.00053919,-0.00019613,0.00000058,-0.00006851
 ,-0.00002346,-0.00197281,-0.00165078,-0.00054797,0.00588714,0.00642527
 ,-0.00009450,-0.00210191,-0.00101857,-0.00002361,-0.01210021,0.0314931
 9,-0.02255520,-0.05446575,-0.03666531,0.02276257,-0.00119898,-0.013483
 60,0.00928363,0.06661885,-0.00107337,-0.00039284,-0.00062887,-0.000123
 02,-0.00005895,-0.00007324,-0.00148340,-0.00032261,-0.00038443,-0.0031
 4285,-0.00092018,-0.00076923,0.00072480,0.00007148,-0.00008222,0.00866
 408,-0.01125469,0.00742607,-0.02722316,-0.23187705,0.12409093,0.000649
 81,0.00909940,-0.00484896,0.02537565,0.25051268,0.00044616,-0.00006403
 ,0.00015669,-0.00002473,-0.00010888,0.00004002,-0.00081013,-0.00039681
 ,-0.00034343,0.00154626,0.00307695,0.00064098,-0.00042741,-0.00068430,
 -0.00006832,-0.00527628,0.00417263,-0.00180102,0.01820020,0.12118829,-
 0.13722520,0.00646362,0.02363118,-0.01550069,-0.02040908,-0.13522631,0
 .14554164,0.00005288,-0.00030159,-0.00002196,-0.00003520,0.00002201,-0
 .00000107,0.00007996,-0.00036748,0.00017944,0.00013657,0.00505924,-0.0
 0225361,-0.00298531,-0.00045505,-0.00024707,-0.03327529,-0.01995737,-0
 .01845064,-0.10430853,-0.09202154,-0.06422187,0.00932805,0.01302834,0.
 00892089,-0.00011583,-0.00316025,-0.00117546,0.13175638,-0.00037975,0.
 00031481,-0.00016212,-0.00001912,0.00005695,-0.00001075,-0.00008016,-0
 .00009710,-0.00018059,0.00052343,-0.00224131,0.00117379,0.00174725,0.0
 0032555,0.00004023,0.01629586,0.01184866,0.01006064,-0.10368404,-0.195
 34989,-0.10393368,-0.00132969,-0.00323440,-0.00293731,-0.01157603,-0.0
 1564315,-0.01386608,0.09804769,0.20200401,0.00034897,-0.00001250,0.000
 21546,0.00001974,-0.00002467,-0.00000338,0.00004077,0.00032360,-0.0000
 3907,0.00158334,0.00181366,0.00020336,-0.00073918,-0.00012316,-0.00010
 344,-0.00837699,-0.00313534,-0.00165668,-0.06775706,-0.09911586,-0.126
 08935,-0.01136392,-0.02301516,-0.01552811,0.00960891,0.01233151,0.0116
 5372,0.07439569,0.11043816,0.13448097,-0.00016180,0.00015341,0.0000251
 8,0.00001596,0.00002097,-0.00001003,-0.00002802,-0.00002277,0.00003253
 ,-0.00060041,-0.00105385,-0.00027260,0.00020464,0.00018701,0.00011106,
 0.00343167,-0.00041933,-0.00189075,-0.00129834,-0.01245519,0.01246384,
 -0.03582826,-0.03754590,0.02553271,-0.00086301,0.00156805,0.00232288,0
 .00037757,0.00049904,-0.00032366,0.03597337,-0.00012981,0.00014935,0.0
 0008569,0.00004476,0.00003887,-0.00001614,-0.00015027,-0.00010149,0.00
 016181,0.00023892,-0.00048032,0.00021603,-0.00014058,0.00020339,-0.000
 12316,-0.00117476,0.00036656,0.00008656,0.00323199,0.00807970,-0.00594
 316,-0.05297942,-0.24088147,0.12652792,0.00132879,0.00037680,-0.001831
 80,-0.00050247,0.00067337,0.00059296,0.05240007,0.24753643,-0.00010400
 ,0.00012455,0.00015268,0.00003531,0.00000034,-0.00002992,-0.00018040,-
 0.00016867,0.00006193,-0.00035979,-0.00055767,-0.00029584,0.00032883,0
 .00007757,0.00010196,0.00004430,-0.00071437,0.00179719,0.00365699,0.02
 506291,-0.01387973,0.03666127,0.12519385,-0.13796668,0.00288807,-0.002
 29128,-0.00388678,-0.00069940,0.00005893,0.00099185,-0.03855315,-0.135
 54113,0.14358579,-0.00037201,0.00000844,0.00007575,0.00009249,-0.00004
 673,-0.00002950,-0.00096801,-0.00050063,0.00084852,-0.00052772,0.00008
 280,-0.00012120,0.00014182,-0.00012474,0.00007159,0.00268856,-0.001586
 98,-0.00252946,0.00832808,0.01364094,0.01264112,-0.07426539,-0.1017990
 9,-0.05655570,0.00025185,-0.00042768,-0.00079075,-0.00149178,0.0001983
 7,0.00295359,0.00312691,-0.00271250,-0.00303465,0.06955103,-0.00027659
 ,-0.00028375,0.00023222,-0.00007562,-0.00003401,0.00001767,-0.00036674
 ,-0.00039294,0.00028197,0.00065503,0.00070962,-0.00037918,0.00004249,-
 0.00027935,0.00008756,-0.00137446,0.00078409,0.00127195,-0.00347555,-0
 .00162120,-0.00477692,-0.08604700,-0.21441533,-0.10889207,0.00062695,0
 .00031645,-0.00011229,0.00074102,0.00135626,-0.00014856,-0.01024759,-0
 .01315509,-0.01330506,0.09722453,0.22666941,-0.00028057,0.00034645,0.0
 0014922,0.00007227,0.00008955,0.00000597,0.00006130,0.00009025,-0.0000
 4779,-0.00067314,-0.00248473,-0.00032242,0.00048817,0.00054744,0.00010
 092,0.00200995,0.00165045,0.00117088,-0.01363991,-0.02120308,-0.010942
 98,-0.04625272,-0.11577834,-0.12596393,-0.00062223,0.00035765,0.001049
 32,0.00347128,-0.00063321,-0.00393188,0.00638367,0.01391190,0.01093318
 ,0.05113719,0.12463943,0.12926478,0.00000637,-0.00002945,0.00002726,-0
 .00001064,0.00003343,-0.00001716,-0.00011082,-0.00019107,0.00004874,0.
 00123365,0.00110225,0.00064340,-0.00061457,-0.00003988,-0.00028062,-0.
 00045180,-0.00137764,0.00149024,-0.01442069,0.00601471,-0.00073076,0.0
 7773390,-0.02676467,0.02403285,0.00024979,-0.00021751,-0.00034737,0.00
 050931,-0.00030171,-0.00077813,-0.00722855,0.00047762,-0.00116803,-0.0
 0936096,0.00371714,-0.00327470,0.03224909,0.00011240,-0.00018649,-0.00
 002382,-0.00011605,-0.00000847,0.00002194,-0.00000772,-0.00012122,0.00
 001344,0.00045055,0.00076895,-0.00007509,-0.00013536,-0.00023984,0.000
 01649,-0.00078658,0.00009340,-0.00016861,0.00453626,-0.00130381,-0.000
 70577,-0.01338661,-0.00168067,-0.00212248,-0.00065436,0.00015399,0.000
 53406,0.00031984,-0.00033679,-0.00020228,0.00659752,-0.00366658,0.0026
 4552,-0.00401781,-0.00046295,-0.00215315,0.02379346,0.03947378,-0.0000
 5108,-0.00005391,-0.00001584,0.00000850,0.00006085,0.00002603,-0.00004
 238,-0.00020194,-0.00010758,0.00129499,0.00085057,0.00038389,-0.000605
 34,-0.00001618,-0.00014230,0.00046181,-0.00134403,-0.00103645,0.003131
 94,-0.00111476,0.00068858,0.03372506,-0.00932001,0.00309756,0.00066957
 ,0.00018390,-0.00054789,0.00048291,-0.00070769,-0.00058006,-0.00662101
 ,0.00258550,-0.00211375,-0.00614919,0.00128510,-0.00187128,-0.00972941
 ,-0.00582184,0.03822333,-0.00007760,-0.00012163,0.00000003,0.00003153,
 0.00012176,0.00001011,-0.00007397,-0.00023215,-0.00002005,0.00228679,0
 .00111735,0.00046464,-0.00112594,0.00006088,-0.00031778,-0.00330475,0.
 00014094,0.00068840,0.00538957,-0.00211217,-0.00351266,-0.08958739,0.0
 3114259,-0.02857845,-0.00001246,-0.00010398,0.00041598,0.00009561,-0.0
 0001020,0.00025067,0.00262397,-0.00052019,0.00087229,0.00272354,-0.001
 40138,0.00103340,-0.06173089,0.00647076,-0.03239068,0.31340280,-0.0000
 5086,0.00015753,0.00002741,0.00011273,-0.00002255,-0.00001634,-0.00001
 666,0.00019456,0.00000658,-0.00049498,-0.00090211,-0.00006230,0.000185
 22,0.00023597,0.00002371,0.00081304,0.00062615,0.00026437,-0.00199494,
 -0.00033021,-0.00020569,0.02261070,-0.00594353,0.00800685,0.00049609,-
 0.00006167,-0.00029838,-0.00063722,0.00039319,0.00046084,-0.00026413,0
 .00091846,-0.00085280,-0.00015711,0.00123782,0.00052538,-0.01735834,-0
 .03376958,0.01054791,0.16530566,0.29193984,0.00001168,0.00003661,0.000
 03940,0.00000498,-0.00003494,-0.00005033,0.00002950,0.00016857,0.00010
 840,-0.00072231,-0.00073155,-0.00041678,0.00042946,0.00005670,0.000172
 41,0.00010046,0.00101271,0.00071498,0.00203405,-0.00135146,-0.00090321
 ,-0.04182861,0.01478557,-0.01009135,-0.00067975,-0.00000750,0.00034940
 ,-0.00055457,0.00072969,0.00053298,0.00122731,-0.00108117,0.00044393,0
 .00227960,-0.00063786,0.00039036,0.00498042,0.01352460,-0.03971148,-0.
 07912609,-0.20590238,0.18706810,0.00003945,0.00003233,-0.00000146,-0.0
 0001682,-0.00005076,0.00000232,0.00004890,0.00012258,-0.00001842,-0.00
 089403,-0.00043645,-0.00017726,0.00045265,-0.00003881,0.00010341,0.001
 06205,0.00023346,0.00004268,-0.00098828,0.00019785,0.00005169,-0.00137
 025,-0.00045450,0.00014207,0.00023021,-0.00002718,-0.00013390,-0.00012
 438,0.00006906,0.00013725,0.00025430,0.00058784,-0.00038762,0.00008159
 ,0.00025776,0.00008604,-0.01805318,-0.02317630,0.01581432,-0.17064082,
 -0.16854918,0.11181386,0.18991862,0.00000511,0.00001331,-0.00002008,-0
 .00000298,-0.00001296,0.00001532,0.00002632,0.00002960,-0.00000753,-0.
 00051284,-0.00027805,-0.00017181,0.00027046,-0.00002473,0.00010103,0.0
 0069697,-0.00005631,-0.00045236,0.00064536,-0.00004449,0.00133995,-0.0
 0454021,0.00196161,-0.00272199,-0.00008960,0.00000033,-0.00001424,0.00
 018482,-0.00007016,-0.00018320,0.00058270,-0.00005798,0.00026731,0.000
 21821,-0.00042903,0.00009400,0.01114165,0.00128628,0.00306653,-0.19985
 825,-0.25467388,0.17943240,0.19123228,0.25235646,-0.00000013,-0.000037
 92,-0.00000072,-0.00001385,0.00002340,0.00000810,-0.00002415,-0.000094
 88,-0.00002007,0.00051188,0.00039586,0.00016376,-0.00024414,-0.0000313
 9,-0.00010235,-0.00053971,-0.00026801,0.00011603,0.00012346,0.00041560
 ,-0.00050930,0.00345842,-0.00230536,0.00084786,-0.00006082,-0.00007800
 ,-0.00005843,0.00017545,-0.00007002,-0.00014637,-0.00042799,0.00036818
 ,0.00010420,-0.00079690,0.00043605,0.00001564,-0.01489673,-0.00548301,
 0.00370727,0.14021018,0.18747483,-0.13864682,-0.12747500,-0.18074534,0
 .13452121\\0.00006834,-0.00005237,-0.00001797,0.00001423,-0.00007949,0
 .00003389,0.00013214,0.00035262,-0.00008272,-0.00059034,-0.00124770,-0
 .00030586,0.00021125,0.00034475,0.00014635,0.00104055,0.00068552,-0.00
 087939,0.00445609,-0.00183830,0.00177397,-0.02695562,0.00978020,-0.006
 29195,0.00004796,0.00004351,0.00000867,0.00005738,-0.00005283,0.000129
 11,0.00423736,-0.00060229,0.00037191,0.00475734,-0.00279931,0.00084133
 ,0.03420839,-0.00945249,0.01436315,-0.02319363,0.00641808,-0.01166072,
 0.00150856,-0.00149990,0.00157023\\\@


 YOU CANNOT THROW TO THE GROUND THE LETTERS OF
 THE GREEK ALPHABET AND PICK UP THE ILIAD.
        - RUFUS CHOATE, 1799-1859
 Job cpu time:       0 days  0 hours 55 minutes 58.6 seconds.
 Elapsed time:       0 days  0 hours  2 minutes 20.2 seconds.
 File lengths (MBytes):  RWF=    153 Int=      0 D2E=      0 Chk=      6 Scr=      1
 Normal termination of Gaussian 16 at Wed Apr  2 01:38:07 2025.
