 Entering Gaussian System, Link 0=g16
 Initial command:
 /opt/g16/l1.exe "/home/aayush/scratches/g16/Gau-13616.inp" -scrdir="/home/aayush/scratches/g16/"
 Entering Link 1 = /opt/g16/l1.exe PID=     13619.
  
 Copyright (c) 1988,1990,1992,1993,1995,1998,2003,2009,2016,
            Gaussian, Inc.  All Rights Reserved.
  
 This is part of the Gaussian(R) 16 program.  It is based on
 the Gaussian(R) 09 system (copyright 2009, Gaussian, Inc.),
 the Gaussian(R) 03 system (copyright 2003, Gaussian, Inc.),
 the Gaussian(R) 98 system (copyright 1998, Gaussian, Inc.),
 the Gaussian(R) 94 system (copyright 1995, Gaussian, Inc.),
 the Gaussian 92(TM) system (copyright 1992, Gaussian, Inc.),
 the Gaussian 90(TM) system (copyright 1990, Gaussian, Inc.),
 the Gaussian 88(TM) system (copyright 1988, Gaussian, Inc.),
 the Gaussian 86(TM) system (copyright 1986, Carnegie Mellon
 University), and the Gaussian 82(TM) system (copyright 1983,
 Carnegie Mellon University). Gaussian is a federally registered
 trademark of Gaussian, Inc.
  
 This software contains proprietary and confidential information,
 including trade secrets, belonging to Gaussian, Inc.
  
 This software is provided under written license and may be
 used, copied, transmitted, or stored only in accord with that
 written license.
  
 The following legend is applicable only to US Government
 contracts under FAR:
  
                    RESTRICTED RIGHTS LEGEND
  
 Use, reproduction and disclosure by the US Government is
 subject to restrictions as set forth in subparagraphs (a)
 and (c) of the Commercial Computer Software - Restricted
 Rights clause in FAR 52.227-19.
  
 Gaussian, Inc.
 340 Quinnipiac St., Bldg. 40, Wallingford CT 06492
  
  
 ---------------------------------------------------------------
 Warning -- This program may not be used in any manner that
 competes with the business of Gaussian, Inc. or will provide
 assistance to any competitor of Gaussian, Inc.  The licensee
 of this program is prohibited from giving any competitor of
 Gaussian, Inc. access to this program.  By using this program,
 the user acknowledges that Gaussian, Inc. is engaged in the
 business of creating and licensing software in the field of
 computational chemistry and represents and warrants to the
 licensee that it is not a competitor of Gaussian, Inc. and that
 it will not use this program in any manner prohibited above.
 ---------------------------------------------------------------
  

 Cite this work as:
 Gaussian 16, Revision A.03,
 M. J. Frisch, G. W. Trucks, H. B. Schlegel, G. E. Scuseria, 
 M. A. Robb, J. R. Cheeseman, G. Scalmani, V. Barone, 
 G. A. Petersson, H. Nakatsuji, X. Li, M. Caricato, A. V. Marenich, 
 J. Bloino, B. G. Janesko, R. Gomperts, B. Mennucci, H. P. Hratchian, 
 J. V. Ortiz, A. F. Izmaylov, J. L. Sonnenberg, D. Williams-Young, 
 F. Ding, F. Lipparini, F. Egidi, J. Goings, B. Peng, A. Petrone, 
 T. Henderson, D. Ranasinghe, V. G. Zakrzewski, J. Gao, N. Rega, 
 G. Zheng, W. Liang, M. Hada, M. Ehara, K. Toyota, R. Fukuda, 
 J. Hasegawa, M. Ishida, T. Nakajima, Y. Honda, O. Kitao, H. Nakai, 
 T. Vreven, K. Throssell, J. A. Montgomery, Jr., J. E. Peralta, 
 F. Ogliaro, M. J. Bearpark, J. J. Heyd, E. N. Brothers, K. N. Kudin, 
 V. N. Staroverov, T. A. Keith, R. Kobayashi, J. Normand, 
 K. Raghavachari, A. P. Rendell, J. C. Burant, S. S. Iyengar, 
 J. Tomasi, M. Cossi, J. M. Millam, M. Klene, C. Adamo, R. Cammi, 
 J. W. Ochterski, R. L. Martin, K. Morokuma, O. Farkas, 
 J. B. Foresman, and D. J. Fox, Gaussian, Inc., Wallingford CT, 2016.
 
 ******************************************
 Gaussian 16:  ES64L-G16RevA.03 25-Dec-2016
                 4-May-2025 
 ******************************************
 %chk=ethyl_propiolate.chk
 %nprocshared=24
 Will use up to   24 processors via shared memory.
 %mem=12GB
 --------------------------
 # ccsd(t)/6-311++g(d,p) sp
 --------------------------
 1/38=1,172=1/1;
 2/12=2,17=6,18=5,40=1/2;
 3/5=4,6=6,7=1111,11=9,25=1,30=1/1,2,3;
 4//1;
 5/5=2,38=5/2;
 8/6=4,9=120000,10=2/1,4;
 9/5=7,14=2/13;
 6/7=2,8=2,9=2,10=2/1;
 99/5=1,9=1/99;
 -------------------
 Title Card Required
 -------------------
 Symbolic Z-matrix:
 Charge =  0 Multiplicity = 2
 C                     1.26125   2.24953  -0.05928 
 H                     1.18593   3.31216  -0.07439 
 C                     1.35293   1.05414  -0.04227 
 C                     1.54625  -0.39647   0.00816 
 O                     2.59546  -0.8836    0.29913 
 O                     0.48687  -1.16022  -0.30032 
 C                    -0.80046  -0.56994  -0.56413 
 C                    -1.50813  -0.26563   0.73087 
 H                    -0.68653   0.32126  -1.18222 
 H                    -1.33285  -1.32764  -1.13494 
 H                    -1.70596  -1.14413   1.34164 
 H                    -1.10154   0.57037   1.29698 
 H                    -2.79974   0.19903   0.30942 
 O                    -3.79421   0.3854   -0.11179 
 H                    -4.31139  -0.27725   0.36306 
 
                          Input orientation:                          
 ---------------------------------------------------------------------
 Center     Atomic      Atomic             Coordinates (Angstroms)
 Number     Number       Type             X           Y           Z
 ---------------------------------------------------------------------
      1          6           0        1.261249    2.249531   -0.059284
      2          1           0        1.185931    3.312156   -0.074392
      3          6           0        1.352934    1.054144   -0.042273
      4          6           0        1.546248   -0.396467    0.008161
      5          8           0        2.595458   -0.883597    0.299129
      6          8           0        0.486867   -1.160224   -0.300317
      7          6           0       -0.800459   -0.569941   -0.564134
      8          6           0       -1.508126   -0.265629    0.730868
      9          1           0       -0.686534    0.321261   -1.182215
     10          1           0       -1.332845   -1.327638   -1.134944
     11          1           0       -1.705958   -1.144126    1.341637
     12          1           0       -1.101535    0.570367    1.296981
     13          1           0       -2.799743    0.199025    0.309416
     14          8           0       -3.794212    0.385402   -0.111789
     15          1           0       -4.311391   -0.277247    0.363064
 ---------------------------------------------------------------------
                    Distance matrix (angstroms):
                    1          2          3          4          5
     1  C    0.000000
     2  H    1.065398   0.000000
     3  C    1.199019   2.264407   0.000000
     4  C    2.662157   3.727000   1.464304   0.000000
     5  O    3.424188   4.441917   2.327071   1.192812   0.000000
     6  O    3.504881   4.532319   2.391670   1.341928   2.209528
     7  C    3.529155   4.388197   2.747197   2.421704   3.517933
     8  C    3.823586   4.550487   3.244258   3.141437   4.172252
     9  H    2.961935   3.698493   2.448676   2.630103   3.797043
    10  H    4.547802   5.384858   3.752362   3.234648   4.205390
    11  H    4.720573   5.497873   4.013031   3.593605   4.433608
    12  H    3.200280   3.824993   2.837615   3.099448   4.096032
    13  H    4.564227   5.071932   4.254367   4.396931   5.502760
    14  O    5.388452   5.776600   5.190873   5.398724   6.527411
    15  H    6.133295   6.579949   5.832793   5.869591   6.933708
                    6          7          8          9         10
     6  O    0.000000
     7  C    1.440570   0.000000
     8  C    2.417362   1.506794   0.000000
     9  H    2.085524   1.090525   2.163178   0.000000
    10  H    2.008975   1.087825   2.154029   1.771672   0.000000
    11  H    2.739481   2.186682   1.088087   3.091345   2.511243
    12  H    2.840656   2.203338   1.088434   2.526003   3.093572
    13  H    3.608481   2.313338   1.435897   2.589509   2.562941
    14  O    4.555452   3.174878   2.521924   3.287490   3.168545
    15  H    4.923718   3.643077   2.827315   3.985685   3.495581
                   11         12         13         14         15
    11  H    0.000000
    12  H    1.818463   0.000000
    13  H    2.016408   1.999272   0.000000
    14  O    2.968621   3.044561   1.095956   0.000000
    15  H    2.915024   3.448743   1.585810   0.965434   0.000000
 Stoichiometry    C5H7O3(2)
 Framework group  C1[X(C5H7O3)]
 Deg. of freedom    39
 Full point group                 C1      NOp   1
 Largest Abelian subgroup         C1      NOp   1
 Largest concise Abelian subgroup C1      NOp   1
                         Standard orientation:                         
 ---------------------------------------------------------------------
 Center     Atomic      Atomic             Coordinates (Angstroms)
 Number     Number       Type             X           Y           Z
 ---------------------------------------------------------------------
      1          6           0        1.348609    2.236178   -0.068139
      2          1           0        1.273231    3.298787   -0.084077
      3          6           0        1.440361    1.040810   -0.050193
      4          6           0        1.633749   -0.409750    0.001395
      5          8           0        2.682918   -0.896595    0.292988
      6          8           0        0.574488   -1.173806   -0.306754
      7          6           0       -0.712810   -0.583801   -0.571331
      8          6           0       -1.420806   -0.278543    0.723268
      9          1           0       -0.598789    0.306935   -1.190065
     10          1           0       -1.245013   -1.341966   -1.141690
     11          1           0       -1.618733   -1.156585    1.334660
     12          1           0       -1.014401    0.557910    1.288840
     13          1           0       -2.712350    0.185712    0.301150
     14          8           0       -3.706728    0.371708   -0.120436
     15          1           0       -4.223982   -0.290609    0.354799
 ---------------------------------------------------------------------
 Rotational constants (GHZ):           3.3377512           1.0087764           0.8246805
 Standard basis: 6-311++G(d,p) (5D, 7F)
 There are   233 symmetry adapted cartesian basis functions of A   symmetry.
 There are   225 symmetry adapted basis functions of A   symmetry.
   225 basis functions,   351 primitive gaussians,   233 cartesian basis functions
    31 alpha electrons       30 beta electrons
       nuclear repulsion energy       344.0145044395 Hartrees.
 NAtoms=   15 NActive=   15 NUniq=   15 SFac= 1.00D+00 NAtFMM=   60 NAOKFM=F Big=F
 Integral buffers will be    131072 words long.
 Raffenetti 2 integral format.
 Two-electron integral symmetry is turned on.
 One-electron integrals computed using PRISM.
 NBasis=   225 RedAO= T EigKep=  1.52D-06  NBF=   225
 NBsUse=   225 1.00D-06 EigRej= -1.00D+00 NBFU=   225
 ExpMin= 3.60D-02 ExpMax= 8.59D+03 ExpMxC= 1.30D+03 IAcc=3 IRadAn=         5 AccDes= 0.00D+00
 Harris functional with IExCor=  205 and IRadAn=       5 diagonalized for initial guess.
 HarFok:  IExCor=  205 AccDes= 0.00D+00 IRadAn=         5 IDoV= 1 UseB2=F ITyADJ=14
 ICtDFT=  3500011 ScaDFX=  1.000000  1.000000  1.000000  1.000000
 FoFCou: FMM=F IPFlag=           0 FMFlag=      100000 FMFlg1=           0
         NFxFlg=           0 DoJE=T BraDBF=F KetDBF=T FulRan=T
         wScrn=  0.000000 ICntrl=       500 IOpCl=  0 I1Cent=   200000004 NGrid=           0
         NMat0=    1 NMatS0=      1 NMatT0=    0 NMatD0=    1 NMtDS0=    0 NMtDT0=    0
 Petite list used in FoFCou.
 Initial guess <Sx>= 0.0000 <Sy>= 0.0000 <Sz>= 0.5000 <S**2>= 0.7500 S= 0.5000
 Requested convergence on RMS density matrix=1.00D-08 within 128 cycles.
 Requested convergence on MAX density matrix=1.00D-06.
 Requested convergence on             energy=1.00D-06.
 No special actions if energy rises.
 Initial convergence to 1.0D-05 achieved.  Increase integral accuracy.
 Restarting incremental Fock formation.
 SCF Done:  E(UHF) =  -417.956614609     A.U. after   32 cycles
            NFock= 32  Conv=0.12D-08     -V/T= 2.0010
 <Sx>= 0.0000 <Sy>= 0.0000 <Sz>= 0.5000 <S**2>= 0.7792 S= 0.5145
 <L.S>=  0.00000000000    
 Annihilation of the first spin contaminant:
 S**2 before annihilation     0.7792,   after     0.7505
 ExpMin= 3.60D-02 ExpMax= 8.59D+03 ExpMxC= 1.30D+03 IAcc=3 IRadAn=         5 AccDes= 0.00D+00
 HarFok:  IExCor=  205 AccDes= 0.00D+00 IRadAn=         5 IDoV=-2 UseB2=F ITyADJ=14
 ICtDFT= 12500011 ScaDFX=  1.000000  1.000000  1.000000  1.000000
 Range of M.O.s used for correlation:     9   225
 NBasis=   225 NAE=    31 NBE=    30 NFC=     8 NFV=     0
 NROrb=    217 NOA=    23 NOB=    22 NVA=   194 NVB=   195

 **** Warning!!: The largest alpha MO coefficient is  0.20378942D+03


 **** Warning!!: The largest beta MO coefficient is  0.22191610D+03

 Semi-Direct transformation.
 ModeAB=           4 MOrb=            23 LenV=    1609175857
 LASXX=    109339976 LTotXX=   109339976 LenRXX=   221407890
 LTotAB=   112067914 MaxLAS=   126711508 LenRXY=           0
 NonZer=   330747866 LenScr=   498067456 LnRSAI=   126711508
 LnScr1=   190834176 LExtra=           0 Total=   1037021030
 MaxDsk=          -1 SrtSym=           T ITran=            4
 JobTyp=1 Pass  1:  I=   1 to  23.
 (rs|ai) integrals will be sorted in core.
 ModeAB=           4 MOrb=            22 LenV=    1609175857
 LASXX=    104936601 LTotXX=   104936601 LenRXX=   190867446
 LTotAB=    85930845 MaxLAS=   121202312 LenRXY=           0
 NonZer=   295804047 LenScr=   445446144 LnRSAI=   121202312
 LnScr1=   182577152 LExtra=           0 Total=    940093054
 MaxDsk=          -1 SrtSym=           T ITran=            4
 JobTyp=2 Pass  1:  I=   1 to  22.
 (rs|ai) integrals will be sorted in core.
 SymMOI:  orbitals are not symmetric.
 Spin components of T(2) and E(2):
     alpha-alpha T2 =       0.5479380919D-01 E2=     -0.1747647560D+00
     alpha-beta  T2 =       0.2970912392D+00 E2=     -0.9577659683D+00
     beta-beta   T2 =       0.5296301790D-01 E2=     -0.1639950613D+00
 ANorm=    0.1185262868D+01
 E2 =    -0.1296525786D+01 EUMP2 =    -0.41925314039475D+03
 (S**2,0)=  0.77915D+00           (S**2,1)=  0.75953D+00
 E(PUHF)=      -0.41796332569D+03        E(PMP2)=      -0.41925761307D+03
 Keep R2 and R3 ints in memory in canonical form, NReq=652884060.
 CIDS: In Core Option IDoMem=           1.
 Iterations=  50 Convergence= 0.100D-06
 Produce multiple copies of IABC intergrals
 Iteration Nr.   1
 **********************
 DD1Dir will call FoFMem   1 times, MxPair=      1496
 NAB=   506 NAA=   253 NBB=   231.
 E(PMP3)=      -0.41927158056D+03
 MP4(R+Q)=  0.25866575D-01
 E3=       -0.15955523D-01        EUMP3=      -0.41926909592D+03
 E4(DQ)=   -0.66535882D-02        UMP4(DQ)=   -0.41927574951D+03
 E4(SDQ)=  -0.26727121D-01        UMP4(SDQ)=  -0.41929582304D+03
 DE(Corr)=  -1.2857980     E(Corr)=     -419.24241266    
 NORM(A)=   0.11883932D+01
 Iteration Nr.   2
 **********************
 DD1Dir will call FoFMem   1 times, MxPair=      1496
 NAB=   506 NAA=   253 NBB=   231.
 DE(Corr)=  -1.3300011     E(CORR)=     -419.28661576     Delta=-4.42D-02
 NORM(A)=   0.12062976D+01
 Iteration Nr.   3
 **********************
 DD1Dir will call FoFMem   1 times, MxPair=      1496
 NAB=   506 NAA=   253 NBB=   231.
 DE(Corr)=  -1.3308920     E(CORR)=     -419.28750665     Delta=-8.91D-04
 NORM(A)=   0.12120407D+01
 Iteration Nr.   4
 **********************
 DD1Dir will call FoFMem   1 times, MxPair=      1496
 NAB=   506 NAA=   253 NBB=   231.
 DE(Corr)=  -1.3356513     E(CORR)=     -419.29226590     Delta=-4.76D-03
 NORM(A)=   0.12138736D+01
 Iteration Nr.   5
 **********************
 DD1Dir will call FoFMem   1 times, MxPair=      1496
 NAB=   506 NAA=   253 NBB=   231.
 DE(Corr)=  -1.3363140     E(CORR)=     -419.29292864     Delta=-6.63D-04
 NORM(A)=   0.12146291D+01
 Iteration Nr.   6
 **********************
 DD1Dir will call FoFMem   1 times, MxPair=      1496
 NAB=   506 NAA=   253 NBB=   231.
 DE(Corr)=  -1.3364306     E(CORR)=     -419.29304521     Delta=-1.17D-04
 NORM(A)=   0.12147883D+01
 Iteration Nr.   7
 **********************
 DD1Dir will call FoFMem   1 times, MxPair=      1496
 NAB=   506 NAA=   253 NBB=   231.
 DE(Corr)=  -1.3364476     E(CORR)=     -419.29306225     Delta=-1.70D-05
 NORM(A)=   0.12147983D+01
 Iteration Nr.   8
 **********************
 DD1Dir will call FoFMem   1 times, MxPair=      1496
 NAB=   506 NAA=   253 NBB=   231.
 DE(Corr)=  -1.3364462     E(CORR)=     -419.29306085     Delta= 1.40D-06
 NORM(A)=   0.12148279D+01
 Iteration Nr.   9
 **********************
 DD1Dir will call FoFMem   1 times, MxPair=      1496
 NAB=   506 NAA=   253 NBB=   231.
 DE(Corr)=  -1.3364387     E(CORR)=     -419.29305334     Delta= 7.51D-06
 NORM(A)=   0.12148333D+01
 Iteration Nr.  10
 **********************
 DD1Dir will call FoFMem   1 times, MxPair=      1496
 NAB=   506 NAA=   253 NBB=   231.
 DE(Corr)=  -1.3364446     E(CORR)=     -419.29305924     Delta=-5.89D-06
 NORM(A)=   0.12148378D+01
 Iteration Nr.  11
 **********************
 DD1Dir will call FoFMem   1 times, MxPair=      1496
 NAB=   506 NAA=   253 NBB=   231.
 DE(Corr)=  -1.3364450     E(CORR)=     -419.29305956     Delta=-3.25D-07
 NORM(A)=   0.12148433D+01
 Iteration Nr.  12
 **********************
 DD1Dir will call FoFMem   1 times, MxPair=      1496
 NAB=   506 NAA=   253 NBB=   231.
 DE(Corr)=  -1.3364483     E(CORR)=     -419.29306295     Delta=-3.38D-06
 NORM(A)=   0.12148464D+01
 Iteration Nr.  13
 **********************
 DD1Dir will call FoFMem   1 times, MxPair=      1496
 NAB=   506 NAA=   253 NBB=   231.
 DE(Corr)=  -1.3364487     E(CORR)=     -419.29306329     Delta=-3.43D-07
 NORM(A)=   0.12148485D+01
 Iteration Nr.  14
 **********************
 DD1Dir will call FoFMem   1 times, MxPair=      1496
 NAB=   506 NAA=   253 NBB=   231.
 DE(Corr)=  -1.3364498     E(CORR)=     -419.29306443     Delta=-1.14D-06
 NORM(A)=   0.12148493D+01
 Iteration Nr.  15
 **********************
 DD1Dir will call FoFMem   1 times, MxPair=      1496
 NAB=   506 NAA=   253 NBB=   231.
 DE(Corr)=  -1.3364497     E(CORR)=     -419.29306435     Delta= 7.62D-08
 NORM(A)=   0.12148494D+01
 Wavefunction amplitudes converged. E(Corr)=     -419.29306435    
 Largest amplitude= 3.02D-02
 Time for triples=    37091.03 seconds.
 T4(CCSD)= -0.58766935D-01
 T5(CCSD)=  0.37060414D-02
 CCSD(T)= -0.41934812524D+03

 S**2, projected HF & approx projected MPn energies after annihilation of
 unwanted spin states (see manual for definitions):

 spins       (S**2,0) (S**2,1)    PUHF        PMP2        PMP3        PMP4
 annihilated
 s+1         0.74973  0.75010 -417.963326 -419.257613 -419.271581
 s+1,s+2     0.75000  0.75000 -417.963276 -419.257567 -419.271540
 s+1 to s+3  0.75000  0.75000 -417.963276 -419.257567 -419.271540
 s+1 to s+4  0.75000  0.75000 -417.963276 -419.257567 -419.271539
 s+1 to s+5  0.75000  0.75000 -417.963276
 s+1 to s+6  0.75000  0.75000 -417.963276

 Discarding MO integrals.

 **********************************************************************

            Population analysis using the SCF density.

 **********************************************************************

 Orbital symmetries:
 Alpha Orbitals:
       Occupied  (A) (A) (A) (A) (A) (A) (A) (A) (A) (A) (A) (A)
                 (A) (A) (A) (A) (A) (A) (A) (A) (A) (A) (A) (A)
                 (A) (A) (A) (A) (A) (A) (A)
       Virtual   (A) (A) (A) (A) (A) (A) (A) (A) (A) (A) (A) (A)
                 (A) (A) (A) (A) (A) (A) (A) (A) (A) (A) (A) (A)
                 (A) (A) (A) (A) (A) (A) (A) (A) (A) (A) (A) (A)
                 (A) (A) (A) (A) (A) (A) (A) (A) (A) (A) (A) (A)
                 (A) (A) (A) (A) (A) (A) (A) (A) (A) (A) (A) (A)
                 (A) (A) (A) (A) (A) (A) (A) (A) (A) (A) (A) (A)
                 (A) (A) (A) (A) (A) (A) (A) (A) (A) (A) (A) (A)
                 (A) (A) (A) (A) (A) (A) (A) (A) (A) (A) (A) (A)
                 (A) (A) (A) (A) (A) (A) (A) (A) (A) (A) (A) (A)
                 (A) (A) (A) (A) (A) (A) (A) (A) (A) (A) (A) (A)
                 (A) (A) (A) (A) (A) (A) (A) (A) (A) (A) (A) (A)
                 (A) (A) (A) (A) (A) (A) (A) (A) (A) (A) (A) (A)
                 (A) (A) (A) (A) (A) (A) (A) (A) (A) (A) (A) (A)
                 (A) (A) (A) (A) (A) (A) (A) (A) (A) (A) (A) (A)
                 (A) (A) (A) (A) (A) (A) (A) (A) (A) (A) (A) (A)
                 (A) (A) (A) (A) (A) (A) (A) (A) (A) (A) (A) (A)
                 (A) (A)
 Beta  Orbitals:
       Occupied  (A) (A) (A) (A) (A) (A) (A) (A) (A) (A) (A) (A)
                 (A) (A) (A) (A) (A) (A) (A) (A) (A) (A) (A) (A)
                 (A) (A) (A) (A) (A) (A)
       Virtual   (A) (A) (A) (A) (A) (A) (A) (A) (A) (A) (A) (A)
                 (A) (A) (A) (A) (A) (A) (A) (A) (A) (A) (A) (A)
                 (A) (A) (A) (A) (A) (A) (A) (A) (A) (A) (A) (A)
                 (A) (A) (A) (A) (A) (A) (A) (A) (A) (A) (A) (A)
                 (A) (A) (A) (A) (A) (A) (A) (A) (A) (A) (A) (A)
                 (A) (A) (A) (A) (A) (A) (A) (A) (A) (A) (A) (A)
                 (A) (A) (A) (A) (A) (A) (A) (A) (A) (A) (A) (A)
                 (A) (A) (A) (A) (A) (A) (A) (A) (A) (A) (A) (A)
                 (A) (A) (A) (A) (A) (A) (A) (A) (A) (A) (A) (A)
                 (A) (A) (A) (A) (A) (A) (A) (A) (A) (A) (A) (A)
                 (A) (A) (A) (A) (A) (A) (A) (A) (A) (A) (A) (A)
                 (A) (A) (A) (A) (A) (A) (A) (A) (A) (A) (A) (A)
                 (A) (A) (A) (A) (A) (A) (A) (A) (A) (A) (A) (A)
                 (A) (A) (A) (A) (A) (A) (A) (A) (A) (A) (A) (A)
                 (A) (A) (A) (A) (A) (A) (A) (A) (A) (A) (A) (A)
                 (A) (A) (A) (A) (A) (A) (A) (A) (A) (A) (A) (A)
                 (A) (A) (A)
 The electronic state is 2-A.
 Alpha  occ. eigenvalues --  -20.62818 -20.57651 -20.56800 -11.42718 -11.32389
 Alpha  occ. eigenvalues --  -11.28764 -11.28501 -11.27674  -1.49091  -1.39625
 Alpha  occ. eigenvalues --   -1.35307  -1.08653  -1.08438  -0.93768  -0.89179
 Alpha  occ. eigenvalues --   -0.77343  -0.74517  -0.72472  -0.70922  -0.67809
 Alpha  occ. eigenvalues --   -0.65812  -0.61225  -0.60094  -0.58545  -0.53912
 Alpha  occ. eigenvalues --   -0.51231  -0.49902  -0.48677  -0.44562  -0.44095
 Alpha  occ. eigenvalues --   -0.43266
 Alpha virt. eigenvalues --    0.03191   0.03902   0.05363   0.06663   0.07108
 Alpha virt. eigenvalues --    0.07511   0.08487   0.09218   0.11186   0.12126
 Alpha virt. eigenvalues --    0.12379   0.13037   0.14169   0.14910   0.15871
 Alpha virt. eigenvalues --    0.15957   0.16903   0.17263   0.18371   0.18844
 Alpha virt. eigenvalues --    0.19701   0.20344   0.20863   0.21502   0.22479
 Alpha virt. eigenvalues --    0.22581   0.23810   0.25544   0.27660   0.29247
 Alpha virt. eigenvalues --    0.29906   0.30717   0.31318   0.32264   0.33845
 Alpha virt. eigenvalues --    0.33979   0.34896   0.35096   0.37553   0.37754
 Alpha virt. eigenvalues --    0.38834   0.40256   0.40976   0.41366   0.41387
 Alpha virt. eigenvalues --    0.43825   0.44829   0.45635   0.46265   0.47687
 Alpha virt. eigenvalues --    0.49855   0.52412   0.56899   0.58755   0.61152
 Alpha virt. eigenvalues --    0.62153   0.64117   0.65535   0.70568   0.71028
 Alpha virt. eigenvalues --    0.73548   0.74901   0.76640   0.77722   0.81258
 Alpha virt. eigenvalues --    0.82271   0.84450   0.84614   0.85630   0.86917
 Alpha virt. eigenvalues --    0.87870   0.90100   0.91304   0.93465   0.98300
 Alpha virt. eigenvalues --    1.01609   1.03019   1.09335   1.15134   1.18089
 Alpha virt. eigenvalues --    1.22039   1.24729   1.27407   1.27880   1.29671
 Alpha virt. eigenvalues --    1.31481   1.32460   1.36222   1.37031   1.39428
 Alpha virt. eigenvalues --    1.39928   1.43031   1.45707   1.47447   1.48529
 Alpha virt. eigenvalues --    1.50711   1.52516   1.54159   1.55852   1.59421
 Alpha virt. eigenvalues --    1.61635   1.63735   1.67862   1.72733   1.76140
 Alpha virt. eigenvalues --    1.78790   1.79319   1.83688   1.84564   1.85788
 Alpha virt. eigenvalues --    1.88051   1.88258   1.90637   1.92057   1.97187
 Alpha virt. eigenvalues --    1.99276   2.02732   2.03588   2.04621   2.07181
 Alpha virt. eigenvalues --    2.14220   2.17703   2.19607   2.24572   2.28937
 Alpha virt. eigenvalues --    2.33990   2.37113   2.39266   2.43588   2.48875
 Alpha virt. eigenvalues --    2.55205   2.65417   2.70554   2.76566   2.80872
 Alpha virt. eigenvalues --    2.81276   2.82689   2.88262   2.89807   2.91774
 Alpha virt. eigenvalues --    2.95274   2.97901   3.02218   3.03190   3.06278
 Alpha virt. eigenvalues --    3.06586   3.13435   3.15389   3.20818   3.25074
 Alpha virt. eigenvalues --    3.28621   3.32376   3.35411   3.39225   3.40282
 Alpha virt. eigenvalues --    3.41116   3.42998   3.51108   3.55524   3.58556
 Alpha virt. eigenvalues --    3.59268   3.65172   3.67986   3.73048   3.76285
 Alpha virt. eigenvalues --    3.79143   3.89682   3.99150   4.11561   4.13513
 Alpha virt. eigenvalues --    4.15381   4.22529   4.40945   4.42701   4.49537
 Alpha virt. eigenvalues --    4.52452   4.64780   5.54736   5.58042   5.61468
 Alpha virt. eigenvalues --    5.71724   5.86916   5.95335   6.15379   6.19737
 Alpha virt. eigenvalues --    6.45243  24.67621  24.98207  24.99251  25.00877
 Alpha virt. eigenvalues --   26.26474  51.57377  51.58722  51.72400
  Beta  occ. eigenvalues --  -20.62534 -20.56809 -20.55992 -11.42718 -11.32565
  Beta  occ. eigenvalues --  -11.28489 -11.27687 -11.26527  -1.48667  -1.39324
  Beta  occ. eigenvalues --   -1.30051  -1.08590  -1.04855  -0.91684  -0.87025
  Beta  occ. eigenvalues --   -0.76802  -0.74150  -0.70761  -0.67684  -0.65905
  Beta  occ. eigenvalues --   -0.65134  -0.59208  -0.57872  -0.54785  -0.53263
  Beta  occ. eigenvalues --   -0.49517  -0.49155  -0.47949  -0.44210  -0.43984
  Beta virt. eigenvalues --    0.03117   0.03361   0.04125   0.05397   0.06688
  Beta virt. eigenvalues --    0.07505   0.08350   0.08539   0.09535   0.11220
  Beta virt. eigenvalues --    0.12297   0.12482   0.13118   0.14229   0.14945
  Beta virt. eigenvalues --    0.15980   0.16123   0.17112   0.17481   0.18509
  Beta virt. eigenvalues --    0.19114   0.19741   0.20399   0.21090   0.21573
  Beta virt. eigenvalues --    0.22550   0.22749   0.24011   0.25691   0.28074
  Beta virt. eigenvalues --    0.29616   0.29990   0.30982   0.31548   0.32777
  Beta virt. eigenvalues --    0.34098   0.34870   0.35430   0.35600   0.37993
  Beta virt. eigenvalues --    0.38517   0.39163   0.40455   0.41001   0.41435
  Beta virt. eigenvalues --    0.41758   0.44040   0.44981   0.46503   0.46804
  Beta virt. eigenvalues --    0.48646   0.49965   0.55114   0.57978   0.59438
  Beta virt. eigenvalues --    0.61636   0.62874   0.64367   0.65617   0.70820
  Beta virt. eigenvalues --    0.72592   0.74448   0.75270   0.77047   0.78045
  Beta virt. eigenvalues --    0.81937   0.84236   0.84591   0.84879   0.86157
  Beta virt. eigenvalues --    0.87384   0.88439   0.90355   0.93789   0.93998
  Beta virt. eigenvalues --    0.98928   1.01694   1.03113   1.09541   1.16364
  Beta virt. eigenvalues --    1.19560   1.23342   1.25188   1.27637   1.28545
  Beta virt. eigenvalues --    1.30307   1.32422   1.35494   1.36396   1.37345
  Beta virt. eigenvalues --    1.39737   1.40282   1.43614   1.45968   1.48062
  Beta virt. eigenvalues --    1.48730   1.50840   1.52795   1.54491   1.56113
  Beta virt. eigenvalues --    1.59656   1.61931   1.63783   1.68319   1.74195
  Beta virt. eigenvalues --    1.77360   1.78982   1.81034   1.84708   1.85889
  Beta virt. eigenvalues --    1.86600   1.88592   1.89095   1.90768   1.92983
  Beta virt. eigenvalues --    1.97421   1.99426   2.02883   2.03767   2.05255
  Beta virt. eigenvalues --    2.07591   2.14413   2.17935   2.19871   2.25694
  Beta virt. eigenvalues --    2.29119   2.34365   2.37776   2.40624   2.44135
  Beta virt. eigenvalues --    2.49720   2.56513   2.68361   2.70928   2.76731
  Beta virt. eigenvalues --    2.80979   2.81485   2.82872   2.88691   2.90191
  Beta virt. eigenvalues --    2.92601   2.95296   2.97971   3.01981   3.02880
  Beta virt. eigenvalues --    3.06497   3.07018   3.13566   3.15367   3.20958
  Beta virt. eigenvalues --    3.25087   3.28682   3.32510   3.35423   3.39273
  Beta virt. eigenvalues --    3.41094   3.43136   3.44364   3.52019   3.56125
  Beta virt. eigenvalues --    3.58743   3.60695   3.67052   3.68980   3.73475
  Beta virt. eigenvalues --    3.76883   3.82017   3.89713   3.99234   4.11698
  Beta virt. eigenvalues --    4.15101   4.16610   4.22605   4.41273   4.45498
  Beta virt. eigenvalues --    4.50583   4.52538   4.65463   5.55744   5.58399
  Beta virt. eigenvalues --    5.61421   5.71770   5.87216   5.97562   6.15596
  Beta virt. eigenvalues --    6.22473   6.45416  24.67619  24.98250  25.00108
  Beta virt. eigenvalues --   25.01440  26.26474  51.57733  51.59512  51.72415
          Condensed to atoms (all electrons):
               1          2          3          4          5          6
     1  C   27.751809   0.885346 -12.383177  -8.310566  -0.129064   0.039974
     2  H    0.885346   0.405343  -0.416129  -0.088723  -0.005023  -0.003246
     3  C  -12.383177  -0.416129  14.967067   1.966783   0.024143  -0.199436
     4  C   -8.310566  -0.088723   1.966783  12.047189   0.436819   0.111880
     5  O   -0.129064  -0.005023   0.024143   0.436819   8.045895  -0.057042
     6  O    0.039974  -0.003246  -0.199436   0.111880  -0.057042   8.233067
     7  C   -0.343645  -0.005888   0.029078   0.159609  -0.005249   0.231764
     8  C    0.344018   0.004354  -0.015285  -0.296430   0.013581  -0.129903
     9  H   -0.033346  -0.001098   0.025066   0.018085  -0.002550  -0.003877
    10  H   -0.042734  -0.001075   0.013909   0.026189   0.000961  -0.074152
    11  H    0.004609   0.000462  -0.005590  -0.001237  -0.000118   0.000608
    12  H   -0.012850  -0.003128   0.047199  -0.018171   0.000728  -0.008024
    13  H   -0.027128  -0.000247   0.011772   0.007818   0.000339  -0.001164
    14  O    0.005333   0.000155   0.000849  -0.005421   0.000001   0.000704
    15  H    0.001062  -0.000001  -0.001036   0.000104  -0.000010   0.000368
               7          8          9         10         11         12
     1  C   -0.343645   0.344018  -0.033346  -0.042734   0.004609  -0.012850
     2  H   -0.005888   0.004354  -0.001098  -0.001075   0.000462  -0.003128
     3  C    0.029078  -0.015285   0.025066   0.013909  -0.005590   0.047199
     4  C    0.159609  -0.296430   0.018085   0.026189  -0.001237  -0.018171
     5  O   -0.005249   0.013581  -0.002550   0.000961  -0.000118   0.000728
     6  O    0.231764  -0.129903  -0.003877  -0.074152   0.000608  -0.008024
     7  C    5.762363  -0.377693   0.427213   0.398493   0.009824  -0.066369
     8  C   -0.377693   6.229585  -0.055347  -0.012720   0.355507   0.394439
     9  H    0.427213  -0.055347   0.520987  -0.044437   0.006168  -0.011196
    10  H    0.398493  -0.012720  -0.044437   0.528640  -0.019812   0.018481
    11  H    0.009824   0.355507   0.006168  -0.019812   0.532728  -0.059048
    12  H   -0.066369   0.394439  -0.011196   0.018481  -0.059048   0.563174
    13  H    0.001698   0.002399  -0.015764   0.011414  -0.015520  -0.010813
    14  O   -0.062330   0.061011   0.002896  -0.002591  -0.009574  -0.008938
    15  H   -0.006366   0.021089  -0.000732   0.002785  -0.007486   0.003360
              13         14         15
     1  C   -0.027128   0.005333   0.001062
     2  H   -0.000247   0.000155  -0.000001
     3  C    0.011772   0.000849  -0.001036
     4  C    0.007818  -0.005421   0.000104
     5  O    0.000339   0.000001  -0.000010
     6  O   -0.001164   0.000704   0.000368
     7  C    0.001698  -0.062330  -0.006366
     8  C    0.002399   0.061011   0.021089
     9  H   -0.015764   0.002896  -0.000732
    10  H    0.011414  -0.002591   0.002785
    11  H   -0.015520  -0.009574  -0.007486
    12  H   -0.010813  -0.008938   0.003360
    13  H    0.549338   0.188035  -0.024238
    14  O    0.188035   8.050010   0.297159
    15  H   -0.024238   0.297159   0.466997
          Atomic-Atomic Spin Densities.
               1          2          3          4          5          6
     1  C    0.009505  -0.001151   0.020836  -0.018578   0.003855   0.023265
     2  H   -0.001151  -0.000082   0.001034  -0.000076   0.000045   0.000459
     3  C    0.020836   0.001034  -0.025378  -0.010321   0.001568  -0.000360
     4  C   -0.018578  -0.000076  -0.010321   0.035104  -0.005242  -0.025089
     5  O    0.003855   0.000045   0.001568  -0.005242  -0.002521   0.000526
     6  O    0.023265   0.000459  -0.000360  -0.025089   0.000526   0.092254
     7  C   -0.055936  -0.001427   0.022407   0.031217  -0.000862  -0.027614
     8  C    0.037323   0.001264  -0.017563  -0.014865  -0.000142  -0.014457
     9  H    0.011025   0.000154  -0.005564  -0.006515   0.000174  -0.000044
    10  H   -0.005069  -0.000078  -0.000725   0.005904  -0.000265  -0.006641
    11  H   -0.002147   0.000008  -0.002305   0.004305  -0.000002   0.000498
    12  H   -0.002809  -0.000602   0.001538   0.001759  -0.000163  -0.010379
    13  H   -0.006535  -0.000060   0.004702   0.002053  -0.000002  -0.003697
    14  O   -0.000411  -0.000072  -0.000786   0.001161  -0.000005  -0.000747
    15  H    0.000473   0.000018  -0.000207  -0.000263   0.000004   0.000337
               7          8          9         10         11         12
     1  C   -0.055936   0.037323   0.011025  -0.005069  -0.002147  -0.002809
     2  H   -0.001427   0.001264   0.000154  -0.000078   0.000008  -0.000602
     3  C    0.022407  -0.017563  -0.005564  -0.000725  -0.002305   0.001538
     4  C    0.031217  -0.014865  -0.006515   0.005904   0.004305   0.001759
     5  O   -0.000862  -0.000142   0.000174  -0.000265  -0.000002  -0.000163
     6  O   -0.027614  -0.014457  -0.000044  -0.006641   0.000498  -0.010379
     7  C   -0.031025  -0.079104   0.001282   0.019154  -0.002123   0.027379
     8  C   -0.079104   1.178168   0.003585  -0.015178  -0.017813  -0.051298
     9  H    0.001282   0.003585  -0.002881   0.001621  -0.002926   0.000453
    10  H    0.019154  -0.015178   0.001621   0.004441   0.004495   0.000851
    11  H   -0.002123  -0.017813  -0.002926   0.004495  -0.062870   0.005514
    12  H    0.027379  -0.051298   0.000453   0.000851   0.005514  -0.030519
    13  H    0.022049   0.032754   0.006516  -0.010901   0.024735   0.000353
    14  O   -0.001316  -0.072129  -0.002410   0.005128  -0.004793   0.006500
    15  H    0.000057   0.005247   0.000144  -0.000451  -0.000023  -0.001062
              13         14         15
     1  C   -0.006535  -0.000411   0.000473
     2  H   -0.000060  -0.000072   0.000018
     3  C    0.004702  -0.000786  -0.000207
     4  C    0.002053   0.001161  -0.000263
     5  O   -0.000002  -0.000005   0.000004
     6  O   -0.003697  -0.000747   0.000337
     7  C    0.022049  -0.001316   0.000057
     8  C    0.032754  -0.072129   0.005247
     9  H    0.006516  -0.002410   0.000144
    10  H   -0.010901   0.005128  -0.000451
    11  H    0.024735  -0.004793  -0.000023
    12  H    0.000353   0.006500  -0.001062
    13  H   -0.276905   0.063061  -0.000191
    14  O    0.063061   0.330735   0.001022
    15  H   -0.000191   0.001022  -0.014658
 Mulliken charges and spin densities:
               1          2
     1  C   -1.749641   0.013646
     2  H    0.228899  -0.000567
     3  C    1.934786  -0.011123
     4  C   -0.053930   0.000553
     5  O   -0.323410  -0.003031
     6  O   -0.141521   0.028310
     7  C   -0.152500  -0.075863
     8  C   -0.538603   0.975791
     9  H    0.167932   0.004614
    10  H    0.196648   0.002286
    11  H    0.208479  -0.055448
    12  H    0.171156  -0.052486
    13  H    0.322060  -0.142067
    14  O   -0.517301   0.324939
    15  H    0.246946  -0.009555
 Sum of Mulliken charges =  -0.00000   1.00000
 Mulliken charges and spin densities with hydrogens summed into heavy atoms:
               1          2
     1  C   -1.520742   0.013080
     3  C    1.934786  -0.011123
     4  C   -0.053930   0.000553
     5  O   -0.323410  -0.003031
     6  O   -0.141521   0.028310
     7  C    0.212080  -0.068963
     8  C   -0.158969   0.867857
    14  O    0.051705   0.173317
 Electronic spatial extent (au):  <R**2>=           1339.7887
 Charge=             -0.0000 electrons
 Dipole moment (field-independent basis, Debye):
    X=             -2.3770    Y=              1.7258    Z=              0.7465  Tot=              3.0308
 Quadrupole moment (field-independent basis, Debye-Ang):
   XX=            -63.6141   YY=            -42.9953   ZZ=            -46.6894
   XY=             14.2662   XZ=             -6.7509   YZ=             -0.0237
 Traceless Quadrupole moment (field-independent basis, Debye-Ang):
   XX=            -12.5145   YY=              8.1043   ZZ=              4.4102
   XY=             14.2662   XZ=             -6.7509   YZ=             -0.0237
 Octapole moment (field-independent basis, Debye-Ang**2):
  XXX=            -30.8635  YYY=             27.6369  ZZZ=              0.1053  XYY=              1.0762
  XXY=            -20.6641  XXZ=             14.5186  XZZ=             -4.5815  YZZ=             -5.8848
  YYZ=             -0.7560  XYZ=              1.7669
 Hexadecapole moment (field-independent basis, Debye-Ang**3):
 XXXX=          -1294.2215 YYYY=           -272.2759 ZZZZ=           -105.9693 XXXY=            126.4116
 XXXZ=            -91.4640 YYYX=             41.6019 YYYZ=             -2.6869 ZZZX=             -0.5687
 ZZZY=              0.9980 XXYY=           -275.2755 XXZZ=           -217.5478 YYZZ=            -83.8295
 XXYZ=             -0.5636 YYXZ=             -1.7365 ZZXY=             -4.0206
 N-N= 3.440145044395D+02 E-N=-1.670203057227D+03  KE= 4.175573493067D+02
 1\1\GINC-AJ\SP\UCCSD(T)-FC\6-311++G(d,p)\C5H7O3(2)\AAYUSH\04-May-2025\
 0\\# ccsd(t)/6-311++g(d,p) sp\\Title Card Required\\0,2\C,0,1.261249,2
 .249531,-0.059284\H,0,1.185931,3.312156,-0.074392\C,0,1.352934,1.05414
 4,-0.042273\C,0,1.546248,-0.396467,0.008161\O,0,2.595458,-0.883597,0.2
 99129\O,0,0.486867,-1.160224,-0.300317\C,0,-0.800459,-0.569941,-0.5641
 34\C,0,-1.508126,-0.265629,0.730868\H,0,-0.686534,0.321261,-1.182215\H
 ,0,-1.332845,-1.327638,-1.134944\H,0,-1.705958,-1.144126,1.341637\H,0,
 -1.101535,0.570367,1.296981\H,0,-2.799743,0.199025,0.309416\O,0,-3.794
 212,0.385402,-0.111789\H,0,-4.311391,-0.277247,0.363064\\Version=ES64L
 -G16RevA.03\State=2-A\HF=-417.9566146\MP2=-419.2531404\MP3=-419.269095
 9\MP4D=-419.3016161\MP4DQ=-419.2757495\PUHF=-417.9633257\PMP2-0=-419.2
 576131\PMP3-0=-419.2715806\MP4SDQ=-419.295823\CCSD=-419.2930643\CCSD(T
 )=-419.3481252\S2=0.779155\S2-1=0.759526\S2A=0.750452\RMSD=1.192e-09\P
 G=C01 [X(C5H7O3)]\\@


 THOSE WHO TRY TO PASS CHEMISTRY OFF AS A NEW SCIENCE
 SHOW HOW LITTLE KNOWLEDGE THEY HAVE OF THE CHARACTER
 AND LITERATURE OF THE ANCIENTS.
   -- NICOLAS LEFEVRE
 "COURS DE CHYMIE" J.-N.LELOUP, PARIS, 1751
 Job cpu time:       0 days 15 hours 57 minutes 20.2 seconds.
 Elapsed time:       0 days  0 hours 40 minutes  8.2 seconds.
 File lengths (MBytes):  RWF=  44733 Int=      0 D2E=      0 Chk=      5 Scr=      1
 Normal termination of Gaussian 16 at Sun May  4 12:11:39 2025.
