 Entering Link 1 = C:\G09W\l1.exe PID=      2688.
  
 Copyright (c) 1988,1990,1992,1993,1995,1998,2003,2009,2013,
            Gaussian, Inc.  All Rights Reserved.
  
 This is part of the Gaussian(R) 09 program.  It is based on
 the Gaussian(R) 03 system (copyright 2003, Gaussian, Inc.),
 the Gaussian(R) 98 system (copyright 1998, Gaussian, Inc.),
 the Gaussian(R) 94 system (copyright 1995, Gaussian, Inc.),
 the Gaussian 92(TM) system (copyright 1992, Gaussian, Inc.),
 the Gaussian 90(TM) system (copyright 1990, Gaussian, Inc.),
 the Gaussian 88(TM) system (copyright 1988, Gaussian, Inc.),
 the Gaussian 86(TM) system (copyright 1986, Carnegie Mellon
 University), and the Gaussian 82(TM) system (copyright 1983,
 Carnegie Mellon University). Gaussian is a federally registered
 trademark of Gaussian, Inc.
  
 This software contains proprietary and confidential information,
 including trade secrets, belonging to Gaussian, Inc.
  
 This software is provided under written license and may be
 used, copied, transmitted, or stored only in accord with that
 written license.
  
 The following legend is applicable only to US Government
 contracts under FAR:
  
                    RESTRICTED RIGHTS LEGEND
  
 Use, reproduction and disclosure by the US Government is
 subject to restrictions as set forth in subparagraphs (a)
 and (c) of the Commercial Computer Software - Restricted
 Rights clause in FAR 52.227-19.
  
 Gaussian, Inc.
 340 Quinnipiac St., Bldg. 40, Wallingford CT 06492
  
  
 ---------------------------------------------------------------
 Warning -- This program may not be used in any manner that
 competes with the business of Gaussian, Inc. or will provide
 assistance to any competitor of Gaussian, Inc.  The licensee
 of this program is prohibited from giving any competitor of
 Gaussian, Inc. access to this program.  By using this program,
 the user acknowledges that Gaussian, Inc. is engaged in the
 business of creating and licensing software in the field of
 computational chemistry and represents and warrants to the
 licensee that it is not a competitor of Gaussian, Inc. and that
 it will not use this program in any manner prohibited above.
 ---------------------------------------------------------------
  

 Cite this work as:
 Gaussian 09, Revision D.01,
 M. J. Frisch, G. W. Trucks, H. B. Schlegel, G. E. Scuseria, 
 M. A. Robb, J. R. Cheeseman, G. Scalmani, V. Barone, B. Mennucci, 
 G. A. Petersson, H. Nakatsuji, M. Caricato, X. Li, H. P. Hratchian, 
 A. F. Izmaylov, J. Bloino, G. Zheng, J. L. Sonnenberg, M. Hada, 
 M. Ehara, K. Toyota, R. Fukuda, J. Hasegawa, M. Ishida, T. Nakajima, 
 Y. Honda, O. Kitao, H. Nakai, T. Vreven, J. A. Montgomery, Jr., 
 J. E. Peralta, F. Ogliaro, M. Bearpark, J. J. Heyd, E. Brothers, 
 K. N. Kudin, V. N. Staroverov, T. Keith, R. Kobayashi, J. Normand, 
 K. Raghavachari, A. Rendell, J. C. Burant, S. S. Iyengar, J. Tomasi, 
 M. Cossi, N. Rega, J. M. Millam, M. Klene, J. E. Knox, J. B. Cross, 
 V. Bakken, C. Adamo, J. Jaramillo, R. Gomperts, R. E. Stratmann, 
 O. Yazyev, A. J. Austin, R. Cammi, C. Pomelli, J. W. Ochterski, 
 R. L. Martin, K. Morokuma, V. G. Zakrzewski, G. A. Voth, 
 P. Salvador, J. J. Dannenberg, S. Dapprich, A. D. Daniels, 
 O. Farkas, J. B. Foresman, J. V. Ortiz, J. Cioslowski, 
 and D. J. Fox, Gaussian, Inc., Wallingford CT, 2013.
 
 ******************************************
 Gaussian 09:  IA32W-G09RevD.01 24-Apr-2013
                21-Jan-2025 
 ******************************************
 %nprocshared=4
 Will use up to    4 processors via shared memory.
 %mem=150MW
 %chk=ethyl_propiolate.chk
 ------------------------------------------------------------
 # opt=(calcfc,tight,ts,noeigentest) freq 6-311++g(d,p) m062x
 ------------------------------------------------------------
 1/5=1,7=10,10=4,11=1,14=-1,18=20,26=3,38=1/1,3;
 2/9=110,12=2,17=6,18=5,40=1/2;
 3/5=4,6=6,7=1111,11=2,16=1,25=1,30=1,71=2,74=-55,140=1/1,2,3;
 4//1;
 5/5=2,38=5/2;
 8/6=4,10=90,11=11/1;
 11/6=1,8=1,9=11,15=111,16=1/1,2,10;
 10/6=1,13=1/2;
 6/7=2,8=2,9=2,10=2,28=1/1;
 7/10=1,18=20,25=1/1,2,3,16;
 1/5=1,7=10,10=4,11=1,14=-1,18=20,26=3/3(2);
 2/9=110/2;
 99//99;
 2/9=110/2;
 3/5=4,6=6,7=1111,11=2,16=1,25=1,30=1,71=1,74=-55/1,2,3;
 4/5=5,16=3,69=1/1;
 5/5=2,38=5/2;
 7//1,2,3,16;
 1/5=1,7=10,11=1,14=-1,18=20,26=3/3(-5);
 2/9=110/2;
 6/7=2,8=2,9=2,10=2,19=2,28=1/1;
 99/9=1/99;
 -------------------
 Title Card Required
 -------------------
 Symbolic Z-matrix:
 Charge =  0 Multiplicity = 2
 C                     2.28706   1.46202   0.42317 
 H                     3.07054   2.18129   0.52156 
 C                     1.48608   0.56883   0.1971 
 C                     0.28424  -0.26791   0.33762 
 O                     0.30835  -1.3994    0.74958 
 O                    -0.80952   0.39535  -0.02836 
 C                    -2.03611  -0.35182   0.07495 
 C                    -3.14773   0.55434  -0.40472 
 H                    -1.94398  -1.25632  -0.53316 
 H                    -2.16934  -0.65991   1.11622 
 H                    -3.2026    1.45491   0.2117 
 H                    -2.97824   0.85277  -1.44207 
 H                    -4.10551   0.03102  -0.34388 
 O                     2.43375  -0.63415  -1.08525 
 H                     2.62736  -1.29096  -0.38681 
 
 Add virtual bond connecting atoms O14        and C3         Dist= 3.77D+00.

 GradGradGradGradGradGradGradGradGradGradGradGradGradGradGradGradGradGrad
 Berny optimization.
 Initialization pass.
                           ----------------------------
                           !    Initial Parameters    !
                           ! (Angstroms and Degrees)  !
 --------------------------                            --------------------------
 ! Name  Definition              Value          Derivative Info.                !
 --------------------------------------------------------------------------------
 ! R1    R(1,2)                  1.0681         calculate D2E/DX2 analytically  !
 ! R2    R(1,3)                  1.2208         calculate D2E/DX2 analytically  !
 ! R3    R(3,4)                  1.4712         calculate D2E/DX2 analytically  !
 ! R4    R(3,14)                 1.9974         calculate D2E/DX2 analytically  !
 ! R5    R(4,5)                  1.2044         calculate D2E/DX2 analytically  !
 ! R6    R(4,6)                  1.3305         calculate D2E/DX2 analytically  !
 ! R7    R(6,7)                  1.44           calculate D2E/DX2 analytically  !
 ! R8    R(7,8)                  1.5123         calculate D2E/DX2 analytically  !
 ! R9    R(7,9)                  1.0938         calculate D2E/DX2 analytically  !
 ! R10   R(7,10)                 1.094          calculate D2E/DX2 analytically  !
 ! R11   R(8,11)                 1.0927         calculate D2E/DX2 analytically  !
 ! R12   R(8,12)                 1.0927         calculate D2E/DX2 analytically  !
 ! R13   R(8,13)                 1.0931         calculate D2E/DX2 analytically  !
 ! R14   R(14,15)                0.9781         calculate D2E/DX2 analytically  !
 ! A1    A(1,3,4)              159.1325         calculate D2E/DX2 analytically  !
 ! A2    A(1,3,14)             104.3734         calculate D2E/DX2 analytically  !
 ! A3    A(4,3,14)              96.106          calculate D2E/DX2 analytically  !
 ! A4    A(3,4,5)              123.4115         calculate D2E/DX2 analytically  !
 ! A5    A(3,4,6)              111.2094         calculate D2E/DX2 analytically  !
 ! A6    A(5,4,6)              125.3724         calculate D2E/DX2 analytically  !
 ! A7    A(4,6,7)              114.9521         calculate D2E/DX2 analytically  !
 ! A8    A(6,7,8)              107.0064         calculate D2E/DX2 analytically  !
 ! A9    A(6,7,9)              108.5087         calculate D2E/DX2 analytically  !
 ! A10   A(6,7,10)             108.5499         calculate D2E/DX2 analytically  !
 ! A11   A(8,7,9)              112.4008         calculate D2E/DX2 analytically  !
 ! A12   A(8,7,10)             112.4029         calculate D2E/DX2 analytically  !
 ! A13   A(9,7,10)             107.8506         calculate D2E/DX2 analytically  !
 ! A14   A(7,8,11)             110.5994         calculate D2E/DX2 analytically  !
 ! A15   A(7,8,12)             110.5342         calculate D2E/DX2 analytically  !
 ! A16   A(7,8,13)             109.849          calculate D2E/DX2 analytically  !
 ! A17   A(11,8,12)            108.5576         calculate D2E/DX2 analytically  !
 ! A18   A(11,8,13)            108.6126         calculate D2E/DX2 analytically  !
 ! A19   A(12,8,13)            108.6335         calculate D2E/DX2 analytically  !
 ! A20   A(3,14,15)             92.287          calculate D2E/DX2 analytically  !
 ! A21   L(2,1,3,14,-1)        172.3253         calculate D2E/DX2 analytically  !
 ! A22   L(2,1,3,14,-2)        180.8343         calculate D2E/DX2 analytically  !
 ! D1    D(1,3,4,5)           -108.9033         calculate D2E/DX2 analytically  !
 ! D2    D(1,3,4,6)             70.201          calculate D2E/DX2 analytically  !
 ! D3    D(14,3,4,5)            60.0568         calculate D2E/DX2 analytically  !
 ! D4    D(14,3,4,6)          -120.8389         calculate D2E/DX2 analytically  !
 ! D5    D(1,3,14,15)          103.0942         calculate D2E/DX2 analytically  !
 ! D6    D(4,3,14,15)          -72.8679         calculate D2E/DX2 analytically  !
 ! D7    D(3,4,6,7)            179.8726         calculate D2E/DX2 analytically  !
 ! D8    D(5,4,6,7)             -1.0443         calculate D2E/DX2 analytically  !
 ! D9    D(4,6,7,8)           -178.9678         calculate D2E/DX2 analytically  !
 ! D10   D(4,6,7,9)            -57.4587         calculate D2E/DX2 analytically  !
 ! D11   D(4,6,7,10)            59.4974         calculate D2E/DX2 analytically  !
 ! D12   D(6,7,8,11)           -60.019          calculate D2E/DX2 analytically  !
 ! D13   D(6,7,8,12)            60.2361         calculate D2E/DX2 analytically  !
 ! D14   D(6,7,8,13)          -179.8991         calculate D2E/DX2 analytically  !
 ! D15   D(9,7,8,11)          -179.0398         calculate D2E/DX2 analytically  !
 ! D16   D(9,7,8,12)           -58.7847         calculate D2E/DX2 analytically  !
 ! D17   D(9,7,8,13)            61.0801         calculate D2E/DX2 analytically  !
 ! D18   D(10,7,8,11)           59.0536         calculate D2E/DX2 analytically  !
 ! D19   D(10,7,8,12)          179.3087         calculate D2E/DX2 analytically  !
 ! D20   D(10,7,8,13)          -60.8265         calculate D2E/DX2 analytically  !
 --------------------------------------------------------------------------------
 Trust Radius=3.00D-01 FncErr=1.00D-07 GrdErr=1.00D-06
 Number of steps in this run=     66 maximum allowed number of steps=    100.
 Search for a saddle point of order  1.
 GradGradGradGradGradGradGradGradGradGradGradGradGradGradGradGradGradGrad

                          Input orientation:                          
 ---------------------------------------------------------------------
 Center     Atomic      Atomic             Coordinates (Angstroms)
 Number     Number       Type             X           Y           Z
 ---------------------------------------------------------------------
      1          6           0        2.287056    1.462022    0.423174
      2          1           0        3.070542    2.181294    0.521559
      3          6           0        1.486081    0.568829    0.197101
      4          6           0        0.284235   -0.267908    0.337620
      5          8           0        0.308348   -1.399399    0.749577
      6          8           0       -0.809517    0.395354   -0.028358
      7          6           0       -2.036112   -0.351824    0.074945
      8          6           0       -3.147734    0.554338   -0.404720
      9          1           0       -1.943979   -1.256315   -0.533159
     10          1           0       -2.169336   -0.659908    1.116215
     11          1           0       -3.202604    1.454911    0.211697
     12          1           0       -2.978241    0.852767   -1.442073
     13          1           0       -4.105509    0.031017   -0.343878
     14          8           0        2.433746   -0.634149   -1.085252
     15          1           0        2.627356   -1.290961   -0.386813
 ---------------------------------------------------------------------
                    Distance matrix (angstroms):
                    1          2          3          4          5
     1  C    0.000000
     2  H    1.068121   0.000000
     3  C    1.220845   2.283820   0.000000
     4  C    2.647880   3.714287   1.471159   0.000000
     5  O    3.494217   4.528032   2.359281   1.204393   0.000000
     6  O    3.306119   4.306605   2.313157   1.330470   2.252985
     7  C    4.701179   5.717873   3.642577   2.336675   2.655002
     8  C    5.571915   6.493992   4.672755   3.606323   4.134488
     9  H    5.119139   6.170495   3.953447   2.588463   2.595932
    10  H    4.984207   5.990189   3.964422   2.603821   2.611549
    11  H    5.493736   6.322658   4.771700   3.891273   4.556664
    12  H    5.619047   6.496815   4.764209   3.881619   4.547224
    13  H    6.595531   7.541113   5.643384   4.452376   4.766956
    14  O    2.586658   3.303645   1.997412   2.603669   2.910244
    15  H    2.889775   3.616367   2.258823   2.657378   2.584751
                    6          7          8          9         10
     6  O    0.000000
     7  C    1.439959   0.000000
     8  C    2.373643   1.512254   0.000000
     9  H    2.066359   1.093793   2.178070   0.000000
    10  H    2.067059   1.094033   2.178279   1.768310   0.000000
    11  H    2.628146   2.154924   1.092709   3.080535   2.521558
    12  H    2.628912   2.154064   1.092652   2.518740   3.080154
    13  H    3.331045   2.145783   1.093115   2.522947   2.521510
    14  O    3.563096   4.626596   5.747047   4.456049   5.102498
    15  H    3.845029   4.779449   6.062765   4.573808   5.066120
                   11         12         13         14         15
    11  H    0.000000
    12  H    1.774224   0.000000
    13  H    1.775211   1.775398   0.000000
    14  O    6.149365   5.623864   6.614676   0.000000
    15  H    6.471975   6.093592   6.861555   0.978112   0.000000
 Stoichiometry    C5H7O3(2)
 Framework group  C1[X(C5H7O3)]
 Deg. of freedom    39
 Full point group                 C1      NOp   1
 Largest Abelian subgroup         C1      NOp   1
 Largest concise Abelian subgroup C1      NOp   1
                         Standard orientation:                         
 ---------------------------------------------------------------------
 Center     Atomic      Atomic             Coordinates (Angstroms)
 Number     Number       Type             X           Y           Z
 ---------------------------------------------------------------------
      1          6           0       -2.287056    1.462022   -0.423174
      2          1           0       -3.070542    2.181294   -0.521559
      3          6           0       -1.486081    0.568829   -0.197101
      4          6           0       -0.284235   -0.267908   -0.337620
      5          8           0       -0.308348   -1.399399   -0.749577
      6          8           0        0.809517    0.395354    0.028358
      7          6           0        2.036112   -0.351824   -0.074945
      8          6           0        3.147734    0.554338    0.404720
      9          1           0        1.943979   -1.256315    0.533159
     10          1           0        2.169336   -0.659908   -1.116215
     11          1           0        3.202604    1.454911   -0.211697
     12          1           0        2.978241    0.852767    1.442073
     13          1           0        4.105509    0.031017    0.343878
     14          8           0       -2.433746   -0.634149    1.085252
     15          1           0       -2.627356   -1.290961    0.386813
 ---------------------------------------------------------------------
 Rotational constants (GHZ):      4.0363124      1.0884207      0.9842050
 Standard basis: 6-311++G(d,p) (5D, 7F)
 There are   233 symmetry adapted cartesian basis functions of A   symmetry.
 There are   225 symmetry adapted basis functions of A   symmetry.
   225 basis functions,   351 primitive gaussians,   233 cartesian basis functions
    31 alpha electrons       30 beta electrons
       nuclear repulsion energy       354.1674028339 Hartrees.
 NAtoms=   15 NActive=   15 NUniq=   15 SFac= 1.00D+00 NAtFMM=   60 NAOKFM=F Big=F
 Integral buffers will be    262144 words long.
 Raffenetti 2 integral format.
 Two-electron integral symmetry is turned on.
 One-electron integrals computed using PRISM.
 NBasis=   225 RedAO= T EigKep=  2.80D-06  NBF=   225
 NBsUse=   225 1.00D-06 EigRej= -1.00D+00 NBFU=   225
 ExpMin= 3.60D-02 ExpMax= 8.59D+03 ExpMxC= 1.30D+03 IAcc=3 IRadAn=         5 AccDes= 0.00D+00
 Harris functional with IExCor= 1009 and IRadAn=       5 diagonalized for initial guess.
 HarFok:  IExCor= 1009 AccDes= 0.00D+00 IRadAn=         5 IDoV= 1 UseB2=F ITyADJ=14
 ICtDFT=  3500011 ScaDFX=  1.000000  1.000000  1.000000  1.000000
 FoFCou: FMM=F IPFlag=           0 FMFlag=      100000 FMFlg1=           0
         NFxFlg=           0 DoJE=T BraDBF=F KetDBF=T FulRan=T
         wScrn=  0.000000 ICntrl=     500 IOpCl=  0 I1Cent=   200000004 NGrid=           0
         NMat0=    1 NMatS0=      1 NMatT0=    0 NMatD0=    1 NMtDS0=    0 NMtDT0=    0
 Petite list used in FoFCou.
 Initial guess <Sx>= 0.0000 <Sy>= 0.0000 <Sz>= 0.5000 <S**2>= 0.7500 S= 0.5000
 Requested convergence on RMS density matrix=1.00D-08 within 128 cycles.
 Requested convergence on MAX density matrix=1.00D-06.
 Requested convergence on             energy=1.00D-06.
 No special actions if energy rises.
 Restarting incremental Fock formation.
 SCF Done:  E(UM062X) =  -420.200841125     A.U. after   23 cycles
            NFock= 23  Conv=0.66D-08     -V/T= 2.0035
 <Sx>= 0.0000 <Sy>= 0.0000 <Sz>= 0.5000 <S**2>= 0.7776 S= 0.5137
 <L.S>= 0.000000000000E+00
 Annihilation of the first spin contaminant:
 S**2 before annihilation     0.7776,   after     0.7503
 DoSCS=F DFT=T ScalE2(SS,OS)=  1.000000  1.000000
 Range of M.O.s used for correlation:     1   225
 NBasis=   225 NAE=    31 NBE=    30 NFC=     0 NFV=     0
 NROrb=    225 NOA=    31 NOB=    30 NVA=   194 NVB=   195

 **** Warning!!: The largest alpha MO coefficient is  0.15859806D+03


 **** Warning!!: The largest beta MO coefficient is  0.16004735D+03

 Symmetrizing basis deriv contribution to polar:
 IMax=3 JMax=2 DiffMx= 0.00D+00
 G2DrvN: will do    16 centers at a time, making    1 passes.
 Calling FoFCou, ICntrl=  3107 FMM=F I1Cent=   0 AccDes= 0.00D+00.
 End of G2Drv F.D. properties file   721 does not exist.
 End of G2Drv F.D. properties file   722 does not exist.
 End of G2Drv F.D. properties file   788 does not exist.
          IDoAtm=111111111111111
          Differentiating once with respect to nuclear coordinates.
          There are    48 degrees of freedom in the 1st order CPHF.  IDoFFX=6 NUNeed=     0.
     43 vectors produced by pass  0 Test12= 2.47D-14 2.08D-09 XBig12= 3.63D-01 1.38D-01.
 AX will form    43 AO Fock derivatives at one time.
     42 vectors produced by pass  1 Test12= 2.47D-14 2.08D-09 XBig12= 4.58D-02 3.08D-02.
     42 vectors produced by pass  2 Test12= 2.47D-14 2.08D-09 XBig12= 1.60D-03 7.04D-03.
     42 vectors produced by pass  3 Test12= 2.47D-14 2.08D-09 XBig12= 3.84D-05 1.41D-03.
     42 vectors produced by pass  4 Test12= 2.47D-14 2.08D-09 XBig12= 7.13D-07 1.38D-04.
     42 vectors produced by pass  5 Test12= 2.47D-14 2.08D-09 XBig12= 9.70D-09 1.37D-05.
     37 vectors produced by pass  6 Test12= 2.47D-14 2.08D-09 XBig12= 8.68D-11 8.45D-07.
     24 vectors produced by pass  7 Test12= 2.47D-14 2.08D-09 XBig12= 1.55D-12 1.39D-07.
     21 vectors produced by pass  8 Test12= 2.47D-14 2.08D-09 XBig12= 1.80D-13 4.08D-08.
     14 vectors produced by pass  9 Test12= 2.47D-14 2.08D-09 XBig12= 2.35D-14 1.79D-08.
     11 vectors produced by pass 10 Test12= 2.47D-14 2.08D-09 XBig12= 1.94D-15 7.48D-09.
      8 vectors produced by pass 11 Test12= 2.47D-14 2.08D-09 XBig12= 1.36D-15 5.72D-09.
      7 vectors produced by pass 12 Test12= 2.47D-14 2.08D-09 XBig12= 2.91D-15 7.87D-09.
      7 vectors produced by pass 13 Test12= 2.47D-14 2.08D-09 XBig12= 1.65D-15 5.53D-09.
      7 vectors produced by pass 14 Test12= 2.47D-14 2.08D-09 XBig12= 1.79D-15 5.90D-09.
      7 vectors produced by pass 15 Test12= 2.47D-14 2.08D-09 XBig12= 1.73D-15 5.17D-09.
      5 vectors produced by pass 16 Test12= 2.47D-14 2.08D-09 XBig12= 1.03D-15 3.39D-09.
      4 vectors produced by pass 17 Test12= 2.47D-14 2.08D-09 XBig12= 6.10D-16 3.19D-09.
      4 vectors produced by pass 18 Test12= 2.47D-14 2.08D-09 XBig12= 1.22D-15 4.08D-09.
      3 vectors produced by pass 19 Test12= 2.47D-14 2.08D-09 XBig12= 5.92D-16 2.63D-09.
      3 vectors produced by pass 20 Test12= 2.47D-14 2.08D-09 XBig12= 1.09D-15 3.78D-09.
      3 vectors produced by pass 21 Test12= 2.47D-14 2.08D-09 XBig12= 1.03D-15 4.31D-09.
      3 vectors produced by pass 22 Test12= 2.47D-14 2.08D-09 XBig12= 1.26D-15 5.20D-09.
      3 vectors produced by pass 23 Test12= 2.47D-14 2.08D-09 XBig12= 8.85D-16 3.59D-09.
      3 vectors produced by pass 24 Test12= 2.47D-14 2.08D-09 XBig12= 6.17D-16 2.44D-09.
      3 vectors produced by pass 25 Test12= 2.47D-14 2.08D-09 XBig12= 6.65D-16 3.72D-09.
      3 vectors produced by pass 26 Test12= 2.47D-14 2.08D-09 XBig12= 1.44D-15 3.94D-09.
      3 vectors produced by pass 27 Test12= 2.47D-14 2.08D-09 XBig12= 7.67D-16 3.45D-09.
      2 vectors produced by pass 28 Test12= 2.47D-14 2.08D-09 XBig12= 7.86D-16 3.27D-09.
 InvSVY:  IOpt=1 It=  1 EMax= 7.77D-16
 Solved reduced A of dimension   438 with    48 vectors.
 End of Minotr F.D. properties file   721 does not exist.
 End of Minotr F.D. properties file   722 does not exist.
 End of Minotr F.D. properties file   788 does not exist.

 **********************************************************************

            Population analysis using the SCF density.

 **********************************************************************

 Orbital symmetries:
 Alpha Orbitals:
       Occupied  (A) (A) (A) (A) (A) (A) (A) (A) (A) (A) (A) (A)
                 (A) (A) (A) (A) (A) (A) (A) (A) (A) (A) (A) (A)
                 (A) (A) (A) (A) (A) (A) (A)
       Virtual   (A) (A) (A) (A) (A) (A) (A) (A) (A) (A) (A) (A)
                 (A) (A) (A) (A) (A) (A) (A) (A) (A) (A) (A) (A)
                 (A) (A) (A) (A) (A) (A) (A) (A) (A) (A) (A) (A)
                 (A) (A) (A) (A) (A) (A) (A) (A) (A) (A) (A) (A)
                 (A) (A) (A) (A) (A) (A) (A) (A) (A) (A) (A) (A)
                 (A) (A) (A) (A) (A) (A) (A) (A) (A) (A) (A) (A)
                 (A) (A) (A) (A) (A) (A) (A) (A) (A) (A) (A) (A)
                 (A) (A) (A) (A) (A) (A) (A) (A) (A) (A) (A) (A)
                 (A) (A) (A) (A) (A) (A) (A) (A) (A) (A) (A) (A)
                 (A) (A) (A) (A) (A) (A) (A) (A) (A) (A) (A) (A)
                 (A) (A) (A) (A) (A) (A) (A) (A) (A) (A) (A) (A)
                 (A) (A) (A) (A) (A) (A) (A) (A) (A) (A) (A) (A)
                 (A) (A) (A) (A) (A) (A) (A) (A) (A) (A) (A) (A)
                 (A) (A) (A) (A) (A) (A) (A) (A) (A) (A) (A) (A)
                 (A) (A) (A) (A) (A) (A) (A) (A) (A) (A) (A) (A)
                 (A) (A) (A) (A) (A) (A) (A) (A) (A) (A) (A) (A)
                 (A) (A)
 Beta  Orbitals:
       Occupied  (A) (A) (A) (A) (A) (A) (A) (A) (A) (A) (A) (A)
                 (A) (A) (A) (A) (A) (A) (A) (A) (A) (A) (A) (A)
                 (A) (A) (A) (A) (A) (A)
       Virtual   (A) (A) (A) (A) (A) (A) (A) (A) (A) (A) (A) (A)
                 (A) (A) (A) (A) (A) (A) (A) (A) (A) (A) (A) (A)
                 (A) (A) (A) (A) (A) (A) (A) (A) (A) (A) (A) (A)
                 (A) (A) (A) (A) (A) (A) (A) (A) (A) (A) (A) (A)
                 (A) (A) (A) (A) (A) (A) (A) (A) (A) (A) (A) (A)
                 (A) (A) (A) (A) (A) (A) (A) (A) (A) (A) (A) (A)
                 (A) (A) (A) (A) (A) (A) (A) (A) (A) (A) (A) (A)
                 (A) (A) (A) (A) (A) (A) (A) (A) (A) (A) (A) (A)
                 (A) (A) (A) (A) (A) (A) (A) (A) (A) (A) (A) (A)
                 (A) (A) (A) (A) (A) (A) (A) (A) (A) (A) (A) (A)
                 (A) (A) (A) (A) (A) (A) (A) (A) (A) (A) (A) (A)
                 (A) (A) (A) (A) (A) (A) (A) (A) (A) (A) (A) (A)
                 (A) (A) (A) (A) (A) (A) (A) (A) (A) (A) (A) (A)
                 (A) (A) (A) (A) (A) (A) (A) (A) (A) (A) (A) (A)
                 (A) (A) (A) (A) (A) (A) (A) (A) (A) (A) (A) (A)
                 (A) (A) (A) (A) (A) (A) (A) (A) (A) (A) (A) (A)
                 (A) (A) (A)
 The electronic state is 2-A.
 Alpha  occ. eigenvalues --  -19.69010 -19.64938 -19.63645 -10.71207 -10.60970
 Alpha  occ. eigenvalues --  -10.59810 -10.59008 -10.54373  -1.26210  -1.16784
 Alpha  occ. eigenvalues --   -1.10828  -0.91463  -0.88068  -0.77952  -0.70474
 Alpha  occ. eigenvalues --   -0.66235  -0.62030  -0.59656  -0.58032  -0.53945
 Alpha  occ. eigenvalues --   -0.51897  -0.49970  -0.48402  -0.47070  -0.44286
 Alpha  occ. eigenvalues --   -0.43835  -0.40240  -0.39630  -0.38851  -0.37505
 Alpha  occ. eigenvalues --   -0.33402
 Alpha virt. eigenvalues --   -0.01443  -0.00407   0.00464   0.01778   0.02116
 Alpha virt. eigenvalues --    0.02675   0.03093   0.03777   0.05511   0.06111
 Alpha virt. eigenvalues --    0.06892   0.07926   0.08118   0.09024   0.09643
 Alpha virt. eigenvalues --    0.10991   0.12135   0.12272   0.12993   0.13463
 Alpha virt. eigenvalues --    0.13852   0.14468   0.14701   0.14937   0.15803
 Alpha virt. eigenvalues --    0.16409   0.17886   0.18561   0.19673   0.20072
 Alpha virt. eigenvalues --    0.21156   0.21492   0.21995   0.23206   0.24248
 Alpha virt. eigenvalues --    0.24407   0.25983   0.26223   0.27566   0.28876
 Alpha virt. eigenvalues --    0.30485   0.31373   0.31745   0.32057   0.34514
 Alpha virt. eigenvalues --    0.34734   0.35899   0.36910   0.38432   0.38749
 Alpha virt. eigenvalues --    0.40324   0.42405   0.43592   0.45731   0.48406
 Alpha virt. eigenvalues --    0.49225   0.53989   0.54161   0.56497   0.57661
 Alpha virt. eigenvalues --    0.58448   0.61236   0.64218   0.64824   0.66852
 Alpha virt. eigenvalues --    0.68939   0.69093   0.69585   0.70334   0.70875
 Alpha virt. eigenvalues --    0.71817   0.74309   0.77109   0.78604   0.79047
 Alpha virt. eigenvalues --    0.81315   0.86770   0.90515   0.92446   0.94948
 Alpha virt. eigenvalues --    1.02046   1.02817   1.05445   1.07677   1.10499
 Alpha virt. eigenvalues --    1.15621   1.16763   1.20938   1.21700   1.22733
 Alpha virt. eigenvalues --    1.23559   1.26939   1.29069   1.30216   1.31111
 Alpha virt. eigenvalues --    1.32131   1.33411   1.40268   1.40610   1.44889
 Alpha virt. eigenvalues --    1.47261   1.49605   1.49909   1.51440   1.54334
 Alpha virt. eigenvalues --    1.57839   1.59277   1.60388   1.61308   1.62067
 Alpha virt. eigenvalues --    1.65428   1.68387   1.68640   1.69638   1.73831
 Alpha virt. eigenvalues --    1.76097   1.81536   1.84087   1.86739   1.87690
 Alpha virt. eigenvalues --    1.89555   1.92486   1.99216   2.02328   2.07508
 Alpha virt. eigenvalues --    2.11095   2.12559   2.13627   2.19984   2.26975
 Alpha virt. eigenvalues --    2.33863   2.35609   2.44889   2.49900   2.50128
 Alpha virt. eigenvalues --    2.54014   2.55575   2.58433   2.60570   2.62012
 Alpha virt. eigenvalues --    2.65099   2.65418   2.67128   2.67867   2.73772
 Alpha virt. eigenvalues --    2.80635   2.81771   2.85515   2.88952   2.90609
 Alpha virt. eigenvalues --    2.93680   2.97370   3.01725   3.03340   3.07680
 Alpha virt. eigenvalues --    3.10738   3.14208   3.15754   3.18542   3.19354
 Alpha virt. eigenvalues --    3.27383   3.28130   3.29783   3.33850   3.38456
 Alpha virt. eigenvalues --    3.43155   3.47568   3.65648   3.74544   3.83149
 Alpha virt. eigenvalues --    3.84709   3.84914   3.89844   4.06000   4.12317
 Alpha virt. eigenvalues --    4.15002   4.30032   5.10635   5.12773   5.16497
 Alpha virt. eigenvalues --    5.20428   5.33011   5.45593   5.57031   5.72034
 Alpha virt. eigenvalues --    5.94514  23.59887  23.91685  23.93120  24.04433
 Alpha virt. eigenvalues --   24.96790  49.97625  49.99396  50.10113
  Beta  occ. eigenvalues --  -19.69017 -19.63664 -19.63588 -10.71181 -10.60971
  Beta  occ. eigenvalues --  -10.59891 -10.58723 -10.54373  -1.26222  -1.16808
  Beta  occ. eigenvalues --   -1.05425  -0.90939  -0.87423  -0.77613  -0.70280
  Beta  occ. eigenvalues --   -0.66074  -0.61469  -0.59620  -0.58039  -0.52228
  Beta  occ. eigenvalues --   -0.50545  -0.49803  -0.47439  -0.44511  -0.43847
  Beta  occ. eigenvalues --   -0.39945  -0.39252  -0.38856  -0.37142  -0.36196
  Beta virt. eigenvalues --   -0.09317  -0.00630  -0.00381   0.00567   0.01949
  Beta virt. eigenvalues --    0.02196   0.02819   0.03392   0.04064   0.05577
  Beta virt. eigenvalues --    0.06050   0.06947   0.07848   0.08141   0.09201
  Beta virt. eigenvalues --    0.09870   0.11055   0.12213   0.12476   0.13189
  Beta virt. eigenvalues --    0.13383   0.14217   0.14530   0.14671   0.14884
  Beta virt. eigenvalues --    0.16378   0.16559   0.17879   0.18438   0.19714
  Beta virt. eigenvalues --    0.20184   0.21269   0.21836   0.22162   0.23254
  Beta virt. eigenvalues --    0.24304   0.24500   0.25931   0.26117   0.27476
  Beta virt. eigenvalues --    0.28890   0.30418   0.31368   0.31781   0.32174
  Beta virt. eigenvalues --    0.34540   0.34639   0.35878   0.37029   0.38344
  Beta virt. eigenvalues --    0.38788   0.40471   0.42461   0.43632   0.45734
  Beta virt. eigenvalues --    0.48621   0.49258   0.53984   0.54190   0.56681
  Beta virt. eigenvalues --    0.57951   0.58708   0.61776   0.64280   0.64960
  Beta virt. eigenvalues --    0.66866   0.69000   0.69100   0.69756   0.70372
  Beta virt. eigenvalues --    0.70846   0.71759   0.74183   0.76954   0.78567
  Beta virt. eigenvalues --    0.79006   0.81270   0.86963   0.90408   0.92623
  Beta virt. eigenvalues --    0.94977   1.02796   1.03014   1.05667   1.07722
  Beta virt. eigenvalues --    1.11920   1.15668   1.18337   1.21231   1.22159
  Beta virt. eigenvalues --    1.22883   1.23850   1.27308   1.29171   1.30463
  Beta virt. eigenvalues --    1.31717   1.32933   1.34278   1.40703   1.41083
  Beta virt. eigenvalues --    1.45906   1.47650   1.49610   1.50727   1.52052
  Beta virt. eigenvalues --    1.54828   1.57842   1.59372   1.60449   1.61294
  Beta virt. eigenvalues --    1.62185   1.65452   1.68459   1.68725   1.69715
  Beta virt. eigenvalues --    1.74035   1.76105   1.81652   1.84394   1.87130
  Beta virt. eigenvalues --    1.87966   1.89602   1.92807   1.99354   2.02336
  Beta virt. eigenvalues --    2.07767   2.12086   2.12620   2.13775   2.19985
  Beta virt. eigenvalues --    2.26976   2.33981   2.35608   2.45052   2.49908
  Beta virt. eigenvalues --    2.50144   2.54036   2.55983   2.58443   2.61093
  Beta virt. eigenvalues --    2.62090   2.65207   2.65438   2.67757   2.68094
  Beta virt. eigenvalues --    2.74028   2.81012   2.84598   2.86207   2.88965
  Beta virt. eigenvalues --    2.92896   2.93986   2.97428   3.01774   3.05165
  Beta virt. eigenvalues --    3.09515   3.11048   3.16069   3.17869   3.19948
  Beta virt. eigenvalues --    3.20977   3.27752   3.28148   3.31675   3.33869
  Beta virt. eigenvalues --    3.38547   3.43111   3.48512   3.65647   3.74546
  Beta virt. eigenvalues --    3.83146   3.84710   3.84912   3.92801   4.05959
  Beta virt. eigenvalues --    4.12214   4.14927   4.30005   5.11076   5.16170
  Beta virt. eigenvalues --    5.18913   5.23598   5.33140   5.45580   5.59525
  Beta virt. eigenvalues --    5.71995   5.94510  23.59966  23.91685  23.93123
  Beta virt. eigenvalues --   24.04433  24.97245  49.97068  49.99398  50.10134
          Condensed to atoms (all electrons):
               1          2          3          4          5          6
     1  C   15.747859   0.584958  -5.218086  -4.918647   0.187499   0.220393
     2  H    0.584958   0.429548  -0.189613  -0.034057   0.001851   0.003491
     3  C   -5.218086  -0.189613  14.073730  -2.763095   0.088839  -0.235413
     4  C   -4.918647  -0.034057  -2.763095  14.165512   0.113892  -0.283972
     5  O    0.187499   0.001851   0.088839   0.113892   8.036009  -0.123258
     6  O    0.220393   0.003491  -0.235413  -0.283972  -0.123258   8.391065
     7  C    0.147392   0.003667  -0.442490  -0.116866  -0.060988   0.235094
     8  C   -0.041258  -0.000478  -0.164717   0.206461   0.019922  -0.157345
     9  H    0.012861   0.000121   0.029260  -0.050070  -0.010970  -0.033258
    10  H   -0.014311  -0.000213  -0.025256   0.033986  -0.012344  -0.039138
    11  H    0.004835  -0.000061   0.014315  -0.014344  -0.000876  -0.007993
    12  H   -0.008450   0.000043  -0.002796   0.016645  -0.001233  -0.011212
    13  H    0.001776   0.000027   0.004029  -0.005273   0.001217   0.022467
    14  O   -0.312543  -0.010618   0.112107   0.081805   0.000900   0.006854
    15  H   -0.032474   0.000219   0.119839  -0.071267   0.008488   0.000134
               7          8          9         10         11         12
     1  C    0.147392  -0.041258   0.012861  -0.014311   0.004835  -0.008450
     2  H    0.003667  -0.000478   0.000121  -0.000213  -0.000061   0.000043
     3  C   -0.442490  -0.164717   0.029260  -0.025256   0.014315  -0.002796
     4  C   -0.116866   0.206461  -0.050070   0.033986  -0.014344   0.016645
     5  O   -0.060988   0.019922  -0.010970  -0.012344  -0.000876  -0.001233
     6  O    0.235094  -0.157345  -0.033258  -0.039138  -0.007993  -0.011212
     7  C    5.534269   0.124537   0.424087   0.414037  -0.027480  -0.033163
     8  C    0.124537   5.525385  -0.058212  -0.041849   0.391203   0.397937
     9  H    0.424087  -0.058212   0.540957  -0.055587   0.006572  -0.010039
    10  H    0.414037  -0.041849  -0.055587   0.544660  -0.009775   0.006630
    11  H   -0.027480   0.391203   0.006572  -0.009775   0.541311  -0.040523
    12  H   -0.033163   0.397937  -0.010039   0.006630  -0.040523   0.536302
    13  H   -0.036902   0.395936  -0.004670  -0.004744  -0.032243  -0.030560
    14  O    0.012186   0.003067  -0.000346  -0.000810  -0.000038  -0.000100
    15  H   -0.002538  -0.000956  -0.000501  -0.000025  -0.000040   0.000089
              13         14         15
     1  C    0.001776  -0.312543  -0.032474
     2  H    0.000027  -0.010618   0.000219
     3  C    0.004029   0.112107   0.119839
     4  C   -0.005273   0.081805  -0.071267
     5  O    0.001217   0.000900   0.008488
     6  O    0.022467   0.006854   0.000134
     7  C   -0.036902   0.012186  -0.002538
     8  C    0.395936   0.003067  -0.000956
     9  H   -0.004670  -0.000346  -0.000501
    10  H   -0.004744  -0.000810  -0.000025
    11  H   -0.032243  -0.000038  -0.000040
    12  H   -0.030560  -0.000100   0.000089
    13  H    0.523995   0.000072   0.000017
    14  O    0.000072   8.095687   0.254024
    15  H    0.000017   0.254024   0.494333
          Atomic-Atomic Spin Densities.
               1          2          3          4          5          6
     1  C    1.252404   0.020348  -0.325831  -0.278235  -0.009559  -0.004832
     2  H    0.020348  -0.014021  -0.015682  -0.004822  -0.000153  -0.000534
     3  C   -0.325831  -0.015682   0.191989  -0.114451   0.009021   0.039061
     4  C   -0.278235  -0.004822  -0.114451   0.420458  -0.005010  -0.027571
     5  O   -0.009559  -0.000153   0.009021  -0.005010  -0.009446   0.001021
     6  O   -0.004832  -0.000534   0.039061  -0.027571   0.001021  -0.007122
     7  C   -0.004297  -0.000133   0.007307   0.004641   0.000502  -0.001669
     8  C   -0.003625  -0.000007  -0.009914   0.011617   0.000400  -0.001193
     9  H    0.002488   0.000051  -0.000244  -0.001884   0.000561  -0.000193
    10  H   -0.001080  -0.000021  -0.001231   0.001569  -0.000445  -0.000012
    11  H    0.000639   0.000004   0.000157  -0.000861   0.000049   0.000159
    12  H   -0.000712  -0.000014   0.000611  -0.000050  -0.000037  -0.000059
    13  H   -0.000176  -0.000004   0.000515  -0.000071  -0.000017   0.000033
    14  O   -0.221531  -0.001467   0.044111   0.036596   0.003585   0.004421
    15  H    0.011623   0.000025  -0.013053   0.007684  -0.000437  -0.000427
               7          8          9         10         11         12
     1  C   -0.004297  -0.003625   0.002488  -0.001080   0.000639  -0.000712
     2  H   -0.000133  -0.000007   0.000051  -0.000021   0.000004  -0.000014
     3  C    0.007307  -0.009914  -0.000244  -0.001231   0.000157   0.000611
     4  C    0.004641   0.011617  -0.001884   0.001569  -0.000861  -0.000050
     5  O    0.000502   0.000400   0.000561  -0.000445   0.000049  -0.000037
     6  O   -0.001669  -0.001193  -0.000193  -0.000012   0.000159  -0.000059
     7  C   -0.006342  -0.001070   0.000253  -0.000490   0.000241   0.000209
     8  C   -0.001070   0.003570   0.000049   0.000963  -0.000117  -0.000031
     9  H    0.000253   0.000049   0.000096  -0.000396   0.000050  -0.000169
    10  H   -0.000490   0.000963  -0.000396   0.000779  -0.000148   0.000097
    11  H    0.000241  -0.000117   0.000050  -0.000148   0.000018  -0.000176
    12  H    0.000209  -0.000031  -0.000169   0.000097  -0.000176   0.000192
    13  H   -0.000210  -0.000020   0.000023  -0.000016  -0.000043   0.000013
    14  O    0.000307  -0.000197  -0.000266   0.000160  -0.000053   0.000135
    15  H   -0.000137   0.000167   0.000107  -0.000028   0.000010  -0.000022
              13         14         15
     1  C   -0.000176  -0.221531   0.011623
     2  H   -0.000004  -0.001467   0.000025
     3  C    0.000515   0.044111  -0.013053
     4  C   -0.000071   0.036596   0.007684
     5  O   -0.000017   0.003585  -0.000437
     6  O    0.000033   0.004421  -0.000427
     7  C   -0.000210   0.000307  -0.000137
     8  C   -0.000020  -0.000197   0.000167
     9  H    0.000023  -0.000266   0.000107
    10  H   -0.000016   0.000160  -0.000028
    11  H   -0.000043  -0.000053   0.000010
    12  H    0.000013   0.000135  -0.000022
    13  H   -0.000050   0.000013  -0.000006
    14  O    0.000013   0.865253   0.009772
    15  H   -0.000006   0.009772  -0.030237
 Mulliken charges and spin densities:
               1          2
     1  C   -0.361802   0.437624
     2  H    0.211116  -0.016429
     3  C    0.599348  -0.187635
     4  C   -0.360710   0.049611
     5  O   -0.248947  -0.009963
     6  O    0.012094   0.001083
     7  C   -0.174841  -0.000889
     8  C   -0.599634   0.000593
     9  H    0.209796   0.000526
    10  H    0.204738  -0.000300
    11  H    0.175139  -0.000072
    12  H    0.180431  -0.000013
    13  H    0.164856  -0.000015
    14  O   -0.242244   0.740840
    15  H    0.230657  -0.014960
 Sum of Mulliken charges =   0.00000   1.00000
 Mulliken charges and spin densities with hydrogens summed into heavy atoms:
               1          2
     1  C   -0.150686   0.421195
     3  C    0.599348  -0.187635
     4  C   -0.360710   0.049611
     5  O   -0.248947  -0.009963
     6  O    0.012094   0.001083
     7  C    0.239694  -0.000663
     8  C   -0.079207   0.000493
    14  O   -0.011586   0.725880
 APT charges:
               1
     1  C    0.334033
     2  H    0.908811
     3  C   -1.110153
     4  C    0.006080
     5  O   -0.187946
     6  O    0.073852
     7  C   -0.656888
     8  C   -1.445061
     9  H    0.375208
    10  H    0.415860
    11  H    0.370183
    12  H    0.323936
    13  H    0.687443
    14  O   -0.541972
    15  H    0.446614
 Sum of APT charges =   0.00000
 APT charges with hydrogens summed into heavy atoms:
               1
     1  C    1.242844
     3  C   -1.110153
     4  C    0.006080
     5  O   -0.187946
     6  O    0.073852
     7  C    0.134180
     8  C   -0.063499
    14  O   -0.095358
 Electronic spatial extent (au):  <R**2>=           1221.1922
 Charge=              0.0000 electrons
 Dipole moment (field-independent basis, Debye):
    X=              1.3780    Y=              1.6535    Z=             -1.2544  Tot=              2.4913
 Quadrupole moment (field-independent basis, Debye-Ang):
   XX=            -37.6752   YY=            -46.1288   ZZ=            -50.7453
   XY=             -4.9778   XZ=              4.9121   YZ=             -2.4708
 Traceless Quadrupole moment (field-independent basis, Debye-Ang):
   XX=              7.1746   YY=             -1.2791   ZZ=             -5.8955
   XY=             -4.9778   XZ=              4.9121   YZ=             -2.4708
 Octapole moment (field-independent basis, Debye-Ang**2):
  XXX=             -0.1285  YYY=              3.1794  ZZZ=             -0.2488  XYY=            -17.5576
  XXY=              8.0248  XXZ=            -14.0483  XZZ=              8.7398  YZZ=              0.1796
  YYZ=              2.1072  XYZ=              2.4992
 Hexadecapole moment (field-independent basis, Debye-Ang**3):
 XXXX=          -1109.5138 YYYY=           -256.4998 ZZZZ=           -144.3231 XXXY=            -39.9994
 XXXZ=             35.4519 YYYX=            -13.8133 YYYZ=            -12.2121 ZZZX=             -1.8178
 ZZZY=              3.5533 XXYY=           -180.6378 XXZZ=           -241.1862 YYZZ=            -71.3704
 XXYZ=             -8.2474 YYXZ=              2.3823 ZZXY=              0.3640
 N-N= 3.541674028339D+02 E-N=-1.692900999444D+03  KE= 4.187419669010D+02
  Exact polarizability:   0.000   0.000   0.000   0.000   0.000   0.000
 Approx polarizability:  83.056  -8.787 101.168   1.325  -7.000  70.945
                          Isotropic Fermi Contact Couplings
        Atom                 a.u.       MegaHertz       Gauss      10(-4) cm-1
     1  C(13)              0.05951      66.90275      23.87257      22.31636
     2  H(1)              -0.00694     -31.04003     -11.07586     -10.35384
     3  C(13)              0.00299       3.35773       1.19812       1.12002
     4  C(13)              0.01584      17.80335       6.35268       5.93856
     5  O(17)             -0.00364       2.20769       0.78776       0.73641
     6  O(17)             -0.00618       3.74821       1.33745       1.25027
     7  C(13)             -0.00070      -0.78809      -0.28121      -0.26288
     8  C(13)             -0.00003      -0.03704      -0.01322      -0.01236
     9  H(1)              -0.00008      -0.36559      -0.13045      -0.12195
    10  H(1)              -0.00005      -0.21670      -0.07732      -0.07228
    11  H(1)               0.00000      -0.01580      -0.00564      -0.00527
    12  H(1)               0.00001       0.02641       0.00942       0.00881
    13  H(1)              -0.00001      -0.02351      -0.00839      -0.00784
    14  O(17)              0.13563     -82.22094     -29.33848     -27.42595
    15  H(1)              -0.01279     -57.15792     -20.39537     -19.06583
 --------------------------------------------------------
       Center         ----  Spin Dipole Couplings  ----
                      3XX-RR        3YY-RR        3ZZ-RR
 --------------------------------------------------------
     1   Atom       -0.028741     -0.029123      0.057864
     2   Atom        0.010189      0.010955     -0.021144
     3   Atom        0.047006      0.001728     -0.048734
     4   Atom        0.012734     -0.012874      0.000140
     5   Atom        0.038144      0.007095     -0.045239
     6   Atom        0.008626      0.005614     -0.014241
     7   Atom        0.001710     -0.000903     -0.000807
     8   Atom        0.001243     -0.000624     -0.000619
     9   Atom        0.002273     -0.001066     -0.001208
    10   Atom        0.001376     -0.000749     -0.000626
    11   Atom        0.001140     -0.000547     -0.000593
    12   Atom        0.001307     -0.000626     -0.000681
    13   Atom        0.000863     -0.000428     -0.000435
    14   Atom       -1.293449      0.747162      0.546288
    15   Atom       -0.090805      0.042663      0.048142
 --------------------------------------------------------
                        XY            XZ            YZ
 --------------------------------------------------------
     1   Atom        0.242932     -0.224954     -0.205919
     2   Atom       -0.026916     -0.002047     -0.015079
     3   Atom       -0.073135     -0.000256     -0.001531
     4   Atom       -0.006466     -0.018561      0.001260
     5   Atom       -0.007443     -0.016745      0.032130
     6   Atom        0.009008     -0.014200     -0.000772
     7   Atom        0.000334     -0.001172      0.000261
     8   Atom        0.000049     -0.000084     -0.000106
     9   Atom       -0.000835     -0.000351      0.000022
    10   Atom       -0.000402     -0.000802     -0.000057
    11   Atom        0.000272     -0.000172     -0.000098
    12   Atom        0.000275      0.000278     -0.000057
    13   Atom       -0.000025     -0.000068     -0.000037
    14   Atom        0.628991     -0.607326     -2.130980
    15   Atom        0.039477      0.025057      0.085411
 --------------------------------------------------------


 ---------------------------------------------------------------------------------
              Anisotropic Spin Dipole Couplings in Principal Axis System
 ---------------------------------------------------------------------------------

       Atom             a.u.   MegaHertz   Gauss  10(-4) cm-1        Axes

              Baa    -0.2731   -36.652   -13.078   -12.226  0.7442 -0.6613  0.0944
     1 C(13)  Bbb    -0.1774   -23.807    -8.495    -7.941  0.3535  0.5098  0.7843
              Bcc     0.4505    60.459    21.573    20.167 -0.5667 -0.5503  0.6132
 
              Baa    -0.0318   -16.960    -6.052    -5.657  0.3616  0.5044  0.7841
     2 H(1)   Bbb    -0.0072    -3.846    -1.372    -1.283  0.6505  0.4660 -0.5998
              Bcc     0.0390    20.806     7.424     6.940 -0.6679  0.7269 -0.1595
 
              Baa    -0.0527    -7.069    -2.522    -2.358  0.5587  0.7603  0.3313
     3 C(13)  Bbb    -0.0483    -6.475    -2.310    -2.160 -0.2002 -0.2640  0.9435
              Bcc     0.1009    13.544     4.833     4.518  0.8049 -0.5934  0.0047
 
              Baa    -0.0162    -2.174    -0.776    -0.725  0.4734  0.7381  0.4808
     4 C(13)  Bbb    -0.0107    -1.442    -0.514    -0.481  0.3471 -0.6580  0.6683
              Bcc     0.0269     3.615     1.290     1.206  0.8096 -0.1494 -0.5677
 
              Baa    -0.0620     4.484     1.600     1.496  0.1210 -0.4080  0.9049
     5 O(17)  Bbb     0.0147    -1.065    -0.380    -0.355  0.4802  0.8219  0.3063
              Bcc     0.0472    -3.418    -1.220    -1.140  0.8688 -0.3975 -0.2954
 
              Baa    -0.0214     1.552     0.554     0.518  0.4542 -0.1260  0.8819
     6 O(17)  Bbb     0.0011    -0.079    -0.028    -0.026 -0.4015  0.8547  0.3290
              Bcc     0.0204    -1.473    -0.526    -0.491  0.7953  0.5035 -0.3376
 
              Baa    -0.0015    -0.201    -0.072    -0.067  0.3390 -0.5314  0.7764
     7 C(13)  Bbb    -0.0007    -0.092    -0.033    -0.031  0.1358  0.8442  0.5185
              Bcc     0.0022     0.293     0.105     0.098  0.9309  0.0703 -0.3584
 
              Baa    -0.0007    -0.098    -0.035    -0.033  0.0122  0.7116  0.7024
     8 C(13)  Bbb    -0.0005    -0.070    -0.025    -0.023  0.0532 -0.7020  0.7102
              Bcc     0.0012     0.168     0.060     0.056  0.9985  0.0287 -0.0464
 
              Baa    -0.0013    -0.700    -0.250    -0.233  0.2337  0.7365  0.6348
     9 H(1)   Bbb    -0.0012    -0.636    -0.227    -0.212 -0.0757 -0.6371  0.7670
              Bcc     0.0025     1.335     0.477     0.445  0.9694 -0.2273 -0.0932
 
              Baa    -0.0010    -0.559    -0.199    -0.186  0.3396  0.5963  0.7274
    10 H(1)   Bbb    -0.0007    -0.354    -0.126    -0.118 -0.0836  0.7894 -0.6081
              Bcc     0.0017     0.913     0.326     0.304  0.9368 -0.1457 -0.3180
 
              Baa    -0.0007    -0.358    -0.128    -0.120 -0.0257  0.6515  0.7582
    11 H(1)   Bbb    -0.0005    -0.283    -0.101    -0.094 -0.1871  0.7419 -0.6439
              Bcc     0.0012     0.641     0.229     0.214  0.9820  0.1584 -0.1029
 
              Baa    -0.0008    -0.420    -0.150    -0.140 -0.1819  0.5867  0.7891
    12 H(1)   Bbb    -0.0006    -0.316    -0.113    -0.105 -0.0279  0.7991 -0.6005
              Bcc     0.0014     0.737     0.263     0.246  0.9829  0.1313  0.1290
 
              Baa    -0.0005    -0.252    -0.090    -0.084  0.0509  0.6616  0.7481
    13 H(1)   Bbb    -0.0004    -0.210    -0.075    -0.070 -0.0207  0.7496 -0.6616
              Bcc     0.0009     0.462     0.165     0.154  0.9985 -0.0182 -0.0518
 
              Baa    -1.4884   107.698    38.429    35.924  0.3151  0.6069  0.7297
    14 O(17)  Bbb    -1.4714   106.471    37.992    35.515  0.9274 -0.3600 -0.1011
              Bcc     2.9598  -214.169   -76.421   -71.439  0.2014  0.7086 -0.6763
 
              Baa    -0.1016   -54.227   -19.350   -18.088  0.9669 -0.2548 -0.0165
    15 H(1)   Bbb    -0.0382   -20.387    -7.275    -6.800 -0.1661 -0.6766  0.7174
              Bcc     0.1398    74.615    26.624    24.889  0.1939  0.6909  0.6965
 

 ---------------------------------------------------------------------------------

 Calling FoFJK, ICntrl=    100147 FMM=F ISym2X=0 I1Cent= 0 IOpClX= 1 NMat=1 NMatS=1 NMatT=0.
 ***** Axes restored to original set *****
 -------------------------------------------------------------------
 Center     Atomic                   Forces (Hartrees/Bohr)
 Number     Number              X              Y              Z
 -------------------------------------------------------------------
      1        6          -0.004086387   -0.005503134   -0.002200939
      2        1          -0.001565193   -0.001001515    0.000248672
      3        6           0.004595059    0.004541598    0.001458597
      4        6          -0.002472369   -0.005429545    0.002652109
      5        8          -0.000072160    0.009627910   -0.002875691
      6        8           0.004211802   -0.002541407    0.001356422
      7        6          -0.002923896   -0.001193798    0.000125355
      8        6          -0.000334590    0.000524825   -0.000303490
      9        1          -0.000006586    0.001273870    0.000449801
     10        1           0.000228905    0.000686106   -0.001169408
     11        1           0.000048785   -0.001124086   -0.000644656
     12        1          -0.000246683   -0.000456277    0.001227802
     13        1           0.001238228    0.000476286    0.000007122
     14        8           0.001868205   -0.003500577    0.005100520
     15        1          -0.000483118    0.003619744   -0.005432214
 -------------------------------------------------------------------
 Cartesian Forces:  Max     0.009627910 RMS     0.002878478
 FormGI is forming the generalized inverse of G from B-inverse, IUseBI=4.

 GradGradGradGradGradGradGradGradGradGradGradGradGradGradGradGradGradGrad
 Berny optimization.
 Internal  Forces:  Max     0.010031753 RMS     0.002244562
 Search for a saddle point.
 Step number   1 out of a maximum of   66
 All quantities printed in internal units (Hartrees-Bohrs-Radians)
 Swapping is turned off.
 Second derivative matrix not updated -- analytic derivatives used.
 ITU=  0
     Eigenvalues ---   -0.07953   0.00041   0.00252   0.00367   0.00574
     Eigenvalues ---    0.00877   0.02263   0.04371   0.04397   0.04637
     Eigenvalues ---    0.04767   0.04882   0.06078   0.06148   0.07189
     Eigenvalues ---    0.08223   0.09550   0.11216   0.12110   0.12546
     Eigenvalues ---    0.13618   0.16661   0.19544   0.24277   0.24509
     Eigenvalues ---    0.27125   0.31995   0.33509   0.33812   0.34017
     Eigenvalues ---    0.34112   0.34678   0.37077   0.38366   0.40333
     Eigenvalues ---    0.49067   0.50328   0.89780   0.95891
 Eigenvectors required to have negative eigenvalues:
                          R4        A1        A2        A3        A20
   1                   -0.91821  -0.29103   0.16277   0.12632   0.11284
                          R2        A21       R3        D1        D4
   1                    0.09045  -0.05291   0.04503  -0.03407   0.02507
 RFO step:  Lambda0=1.892624415D-06 Lambda=-7.76285197D-04.
 Linear search not attempted -- option 19 set.
 Iteration  1 RMS(Cart)=  0.08331999 RMS(Int)=  0.00438463
 Iteration  2 RMS(Cart)=  0.00527193 RMS(Int)=  0.00003425
 Iteration  3 RMS(Cart)=  0.00001956 RMS(Int)=  0.00003218
 Iteration  4 RMS(Cart)=  0.00000000 RMS(Int)=  0.00003218
 Variable       Old X    -DE/DX   Delta X   Delta X   Delta X     New X
                                 (Linear)    (Quad)   (Total)
    R1        2.01846  -0.00180   0.00000  -0.00493  -0.00493   2.01353
    R2        2.30706  -0.00882   0.00000  -0.00918  -0.00918   2.29789
    R3        2.78009  -0.00068   0.00000  -0.00113  -0.00113   2.77895
    R4        3.77456   0.00079   0.00000  -0.00463  -0.00463   3.76993
    R5        2.27597  -0.01003   0.00000  -0.01174  -0.01174   2.26423
    R6        2.51422  -0.00331   0.00000  -0.00706  -0.00706   2.50716
    R7        2.72113   0.00160   0.00000   0.00494   0.00494   2.72607
    R8        2.85775  -0.00097   0.00000  -0.00316  -0.00316   2.85459
    R9        2.06697  -0.00130   0.00000  -0.00386  -0.00386   2.06311
   R10        2.06742  -0.00134   0.00000  -0.00393  -0.00393   2.06349
   R11        2.06492  -0.00130   0.00000  -0.00388  -0.00388   2.06104
   R12        2.06481  -0.00133   0.00000  -0.00406  -0.00406   2.06075
   R13        2.06569  -0.00131   0.00000  -0.00352  -0.00352   2.06217
   R14        1.84836  -0.00641   0.00000  -0.01348  -0.01348   1.83488
    A1        2.77739  -0.00192   0.00000   0.00365   0.00354   2.78093
    A2        1.82166  -0.00161   0.00000  -0.01320  -0.01333   1.80833
    A3        1.67737   0.00356   0.00000   0.01262   0.01250   1.68986
    A4        2.15394  -0.00020   0.00000  -0.00374  -0.00375   2.15019
    A5        1.94097  -0.00007   0.00000  -0.00101  -0.00101   1.93996
    A6        2.18816   0.00026   0.00000   0.00480   0.00480   2.19296
    A7        2.00629   0.00263   0.00000   0.00810   0.00810   2.01439
    A8        1.86761   0.00051   0.00000   0.00147   0.00147   1.86909
    A9        1.89383  -0.00023   0.00000  -0.00295  -0.00295   1.89088
   A10        1.89455  -0.00024   0.00000  -0.00262  -0.00262   1.89194
   A11        1.96176  -0.00018   0.00000  -0.00044  -0.00044   1.96133
   A12        1.96180  -0.00016   0.00000  -0.00060  -0.00060   1.96120
   A13        1.88235   0.00028   0.00000   0.00481   0.00481   1.88716
   A14        1.93032  -0.00001   0.00000   0.00044   0.00043   1.93076
   A15        1.92919   0.00005   0.00000   0.00038   0.00038   1.92956
   A16        1.91723  -0.00032   0.00000  -0.00360  -0.00361   1.91362
   A17        1.89469   0.00009   0.00000   0.00241   0.00241   1.89710
   A18        1.89565   0.00011   0.00000   0.00013   0.00012   1.89577
   A19        1.89601   0.00009   0.00000   0.00032   0.00032   1.89633
   A20        1.61071   0.00246   0.00000   0.03721   0.03721   1.64793
   A21        3.00764   0.00107   0.00000   0.02679   0.02679   3.03443
   A22        3.15615  -0.00019   0.00000  -0.00592  -0.00592   3.15023
    D1       -1.90072   0.00002   0.00000   0.09315   0.09314  -1.80758
    D2        1.22524  -0.00028   0.00000   0.09637   0.09635   1.32159
    D3        1.04819   0.00088   0.00000   0.13560   0.13562   1.18381
    D4       -2.10904   0.00058   0.00000   0.13882   0.13884  -1.97020
    D5        1.79933  -0.00019   0.00000  -0.10263  -0.10271   1.69663
    D6       -1.27179  -0.00017   0.00000  -0.11890  -0.11882  -1.39061
    D7        3.13937   0.00013   0.00000  -0.00895  -0.00896   3.13041
    D8       -0.01823  -0.00018   0.00000  -0.00575  -0.00574  -0.02397
    D9       -3.12358  -0.00001   0.00000   0.00671   0.00671  -3.11686
   D10       -1.00284  -0.00006   0.00000   0.00538   0.00538  -0.99747
   D11        1.03842   0.00002   0.00000   0.00805   0.00805   1.04648
   D12       -1.04753  -0.00007   0.00000   0.00047   0.00047  -1.04706
   D13        1.05132   0.00007   0.00000   0.00402   0.00402   1.05534
   D14       -3.13983   0.00001   0.00000   0.00235   0.00235  -3.13748
   D15       -3.12483  -0.00001   0.00000   0.00340   0.00340  -3.12143
   D16       -1.02599   0.00013   0.00000   0.00695   0.00695  -1.01903
   D17        1.06605   0.00007   0.00000   0.00528   0.00528   1.07133
   D18        1.03068  -0.00013   0.00000  -0.00214  -0.00214   1.02854
   D19        3.12953   0.00001   0.00000   0.00141   0.00141   3.13093
   D20       -1.06162  -0.00005   0.00000  -0.00027  -0.00027  -1.06189
         Item               Value     Threshold  Converged?
 Maximum Force            0.010032     0.000015     NO 
 RMS     Force            0.002245     0.000010     NO 
 Maximum Displacement     0.328404     0.000060     NO 
 RMS     Displacement     0.085743     0.000040     NO 
 Predicted change in Energy=-4.197559D-04
 GradGradGradGradGradGradGradGradGradGradGradGradGradGradGradGradGradGrad

                          Input orientation:                          
 ---------------------------------------------------------------------
 Center     Atomic      Atomic             Coordinates (Angstroms)
 Number     Number       Type             X           Y           Z
 ---------------------------------------------------------------------
      1          6           0        2.308096    1.417657    0.460136
      2          1           0        3.091150    2.132373    0.566559
      3          6           0        1.484631    0.550001    0.241711
      4          6           0        0.276425   -0.272491    0.403859
      5          8           0        0.293216   -1.380012    0.860752
      6          8           0       -0.804777    0.379448   -0.003818
      7          6           0       -2.044461   -0.350701    0.101433
      8          6           0       -3.134164    0.544263   -0.440279
      9          1           0       -1.946673   -1.277420   -0.467382
     10          1           0       -2.203305   -0.610836    1.149984
     11          1           0       -3.193432    1.468852    0.135184
     12          1           0       -2.940972    0.793971   -1.484081
     13          1           0       -4.095446    0.031753   -0.376193
     14          8           0        2.337829   -0.559822   -1.179634
     15          1           0        2.676214   -1.226969   -0.560597
 ---------------------------------------------------------------------
                    Distance matrix (angstroms):
                    1          2          3          4          5
     1  C    0.000000
     2  H    1.065514   0.000000
     3  C    1.215990   2.278231   0.000000
     4  C    2.643379   3.705742   1.470559   0.000000
     5  O    3.470905   4.500204   2.351091   1.198181   0.000000
     6  O    3.314077   4.310026   2.308844   1.326733   2.246946
     7  C    4.711741   5.723330   3.644918   2.341813   2.664728
     8  C    5.584957   6.503103   4.668876   3.607183   4.140343
     9  H    5.121209   6.170526   3.951724   2.590581   2.606063
    10  H    4.994338   5.991398   3.971571   2.611560   2.628289
    11  H    5.511353   6.334218   4.768638   3.891576   4.560612
    12  H    5.632199   6.510218   4.756452   3.879858   4.548011
    13  H    6.604961   7.546426   5.638053   4.451325   4.773202
    14  O    2.569076   3.296149   1.994963   2.615224   3.002720
    15  H    2.858575   3.567609   2.284992   2.756844   2.778909
                    6          7          8          9         10
     6  O    0.000000
     7  C    1.442572   0.000000
     8  C    2.375649   1.510584   0.000000
     9  H    2.064953   1.091751   2.174718   0.000000
    10  H    2.065867   1.091953   2.174785   1.768069   0.000000
    11  H    2.629029   2.152218   1.090657   3.075630   2.516996
    12  H    2.631793   2.151246   1.090504   2.512562   3.075050
    13  H    3.329873   2.140312   1.091255   2.517831   2.514425
    14  O    3.484357   4.570485   5.631017   4.402182   5.104079
    15  H    3.874000   4.846741   6.075543   4.624102   5.207246
                   11         12         13         14         15
    11  H    0.000000
    12  H    1.772349   0.000000
    13  H    1.772114   1.772343   0.000000
    14  O    6.036482   5.458130   6.510185   0.000000
    15  H    6.496483   6.040678   6.890120   0.970977   0.000000
 Stoichiometry    C5H7O3(2)
 Framework group  C1[X(C5H7O3)]
 Deg. of freedom    39
 Full point group                 C1      NOp   1
 Largest Abelian subgroup         C1      NOp   1
 Largest concise Abelian subgroup C1      NOp   1
                         Standard orientation:                         
 ---------------------------------------------------------------------
 Center     Atomic      Atomic             Coordinates (Angstroms)
 Number     Number       Type             X           Y           Z
 ---------------------------------------------------------------------
      1          6           0       -2.333901    1.367999   -0.508153
      2          1           0       -3.124381    2.068671   -0.647868
      3          6           0       -1.501285    0.520467   -0.249170
      4          6           0       -0.284965   -0.296669   -0.373264
      5          8           0       -0.291088   -1.425327   -0.775420
      6          8           0        0.790102    0.385370   -0.000067
      7          6           0        2.037037   -0.336436   -0.071909
      8          6           0        3.118313    0.594968    0.423262
      9          1           0        1.949563   -1.235166    0.541731
     10          1           0        2.197010   -0.645926   -1.106794
     11          1           0        3.167282    1.490853   -0.196839
     12          1           0        2.924095    0.893462    1.453980
     13          1           0        4.084694    0.089718    0.382437
     14          8           0       -2.341016   -0.527100    1.226408
     15          1           0       -2.673457   -1.227129    0.641396
 ---------------------------------------------------------------------
 Rotational constants (GHZ):      3.9317763      1.0854939      1.0065198
 Standard basis: 6-311++G(d,p) (5D, 7F)
 There are   233 symmetry adapted cartesian basis functions of A   symmetry.
 There are   225 symmetry adapted basis functions of A   symmetry.
   225 basis functions,   351 primitive gaussians,   233 cartesian basis functions
    31 alpha electrons       30 beta electrons
       nuclear repulsion energy       354.4293193690 Hartrees.
 NAtoms=   15 NActive=   15 NUniq=   15 SFac= 1.00D+00 NAtFMM=   60 NAOKFM=F Big=F
 Integral buffers will be    262144 words long.
 Raffenetti 2 integral format.
 Two-electron integral symmetry is turned on.
 One-electron integrals computed using PRISM.
 NBasis=   225 RedAO= T EigKep=  2.70D-06  NBF=   225
 NBsUse=   225 1.00D-06 EigRej= -1.00D+00 NBFU=   225
 Initial guess from the checkpoint file:  "ethyl_propiolate.chk"
 B after Tr=     0.000000    0.000000    0.000000
         Rot=    0.999663    0.025334   -0.002758   -0.004896 Ang=   2.97 deg.
 Initial guess <Sx>= 0.0000 <Sy>= 0.0000 <Sz>= 0.5000 <S**2>= 0.7775 S= 0.5137
 ExpMin= 3.60D-02 ExpMax= 8.59D+03 ExpMxC= 1.30D+03 IAcc=3 IRadAn=         5 AccDes= 0.00D+00
 Harris functional with IExCor= 1009 and IRadAn=       5 diagonalized for initial guess.
 HarFok:  IExCor= 1009 AccDes= 0.00D+00 IRadAn=         5 IDoV= 1 UseB2=F ITyADJ=14
 ICtDFT=  3500011 ScaDFX=  1.000000  1.000000  1.000000  1.000000
 FoFCou: FMM=F IPFlag=           0 FMFlag=      100000 FMFlg1=           0
         NFxFlg=           0 DoJE=T BraDBF=F KetDBF=T FulRan=T
         wScrn=  0.000000 ICntrl=     500 IOpCl=  0 I1Cent=   200000004 NGrid=           0
         NMat0=    1 NMatS0=      1 NMatT0=    0 NMatD0=    1 NMtDS0=    0 NMtDT0=    0
 Petite list used in FoFCou.
 Requested convergence on RMS density matrix=1.00D-08 within 128 cycles.
 Requested convergence on MAX density matrix=1.00D-06.
 Requested convergence on             energy=1.00D-06.
 No special actions if energy rises.
 SCF Done:  E(UM062X) =  -420.201318551     A.U. after   19 cycles
            NFock= 19  Conv=0.61D-08     -V/T= 2.0033
 <Sx>= 0.0000 <Sy>= 0.0000 <Sz>= 0.5000 <S**2>= 0.7759 S= 0.5129
 <L.S>= 0.000000000000E+00
 Annihilation of the first spin contaminant:
 S**2 before annihilation     0.7759,   after     0.7503
 Calling FoFJK, ICntrl=      2127 FMM=F ISym2X=0 I1Cent= 0 IOpClX= 1 NMat=1 NMatS=1 NMatT=0.
 ***** Axes restored to original set *****
 -------------------------------------------------------------------
 Center     Atomic                   Forces (Hartrees/Bohr)
 Number     Number              X              Y              Z
 -------------------------------------------------------------------
      1        6           0.000143663    0.000037021    0.000222146
      2        1          -0.000012313   -0.000012018   -0.000064695
      3        6          -0.000206074    0.000005198   -0.000131777
      4        6           0.000043207    0.000334267   -0.000065758
      5        8          -0.000232227   -0.000328534    0.000404707
      6        8           0.000090294   -0.000085918   -0.000053885
      7        6          -0.000103720    0.000055240   -0.000056007
      8        6           0.000064388   -0.000038888    0.000019630
      9        1           0.000005519    0.000019730    0.000010137
     10        1           0.000024167    0.000000859    0.000013010
     11        1          -0.000001841    0.000033141   -0.000007482
     12        1          -0.000032410    0.000039857   -0.000036085
     13        1           0.000013073    0.000003663    0.000010664
     14        8          -0.000125441   -0.000092139   -0.000009055
     15        1           0.000329714    0.000028519   -0.000255550
 -------------------------------------------------------------------
 Cartesian Forces:  Max     0.000404707 RMS     0.000135525

 GradGradGradGradGradGradGradGradGradGradGradGradGradGradGradGradGradGrad
 Berny optimization.
 FormGI is forming the generalized inverse of G from B-inverse, IUseBI=4.
 Internal  Forces:  Max     0.000565676 RMS     0.000184064
 Search for a saddle point.
 Step number   2 out of a maximum of   66
 All quantities printed in internal units (Hartrees-Bohrs-Radians)
 Swapping is turned off.
 Update second derivatives using D2CorX and points    1    2
 ITU=  0  0
     Eigenvalues ---   -0.07952  -0.00009   0.00252   0.00367   0.00532
     Eigenvalues ---    0.00877   0.02263   0.04371   0.04397   0.04642
     Eigenvalues ---    0.04767   0.04882   0.06077   0.06144   0.07185
     Eigenvalues ---    0.08188   0.09550   0.11110   0.12110   0.12546
     Eigenvalues ---    0.13617   0.16660   0.19522   0.24277   0.24509
     Eigenvalues ---    0.27115   0.31995   0.33508   0.33808   0.34017
     Eigenvalues ---    0.34112   0.34678   0.37076   0.38364   0.40333
     Eigenvalues ---    0.49065   0.50327   0.89771   0.95892
 Eigenvectors required to have negative eigenvalues:
                          R4        A1        A2        A3        A20
   1                   -0.91818  -0.29140   0.16360   0.12707   0.11264
                          R2        A21       R3        D1        D2
   1                    0.09045  -0.05305   0.04503  -0.03373  -0.02360
 RFO step:  Lambda0=3.818219019D-08 Lambda=-6.07023176D-04.
 Linear search not attempted -- option 19 set.
 Iteration  1 RMS(Cart)=  0.13381135 RMS(Int)=  0.07981161
 Iteration  2 RMS(Cart)=  0.13283145 RMS(Int)=  0.02885374
 Iteration  3 RMS(Cart)=  0.08651928 RMS(Int)=  0.00333129
 Iteration  4 RMS(Cart)=  0.00400873 RMS(Int)=  0.00059885
 Iteration  5 RMS(Cart)=  0.00000440 RMS(Int)=  0.00059885
 Iteration  6 RMS(Cart)=  0.00000000 RMS(Int)=  0.00059885
 Variable       Old X    -DE/DX   Delta X   Delta X   Delta X     New X
                                 (Linear)    (Quad)   (Total)
    R1        2.01353  -0.00002   0.00000  -0.00081  -0.00081   2.01272
    R2        2.29789   0.00014   0.00000   0.00008   0.00008   2.29797
    R3        2.77895   0.00014   0.00000  -0.00011  -0.00011   2.77884
    R4        3.76993   0.00030   0.00000  -0.01200  -0.01200   3.75793
    R5        2.26423   0.00045   0.00000  -0.00020  -0.00020   2.26403
    R6        2.50716  -0.00003   0.00000  -0.00203  -0.00203   2.50513
    R7        2.72607  -0.00001   0.00000  -0.00082  -0.00082   2.72525
    R8        2.85459  -0.00002   0.00000   0.00013   0.00013   2.85472
    R9        2.06311  -0.00001   0.00000   0.00000   0.00000   2.06311
   R10        2.06349   0.00001   0.00000   0.00047   0.00047   2.06396
   R11        2.06104   0.00002   0.00000   0.00021   0.00021   2.06125
   R12        2.06075   0.00004   0.00000   0.00037   0.00037   2.06113
   R13        2.06217  -0.00001   0.00000   0.00013   0.00013   2.06230
   R14        1.83488  -0.00008   0.00000  -0.00163  -0.00163   1.83326
    A1        2.78093  -0.00032   0.00000   0.03756   0.03587   2.81680
    A2        1.80833  -0.00019   0.00000   0.03171   0.03005   1.83839
    A3        1.68986   0.00053   0.00000  -0.06022  -0.06188   1.62798
    A4        2.15019   0.00040   0.00000  -0.00148  -0.00159   2.14861
    A5        1.93996  -0.00034   0.00000  -0.00455  -0.00465   1.93530
    A6        2.19296  -0.00006   0.00000   0.00634   0.00623   2.19920
    A7        2.01439   0.00018   0.00000   0.00219   0.00219   2.01658
    A8        1.86909   0.00002   0.00000   0.00060   0.00060   1.86968
    A9        1.89088  -0.00002   0.00000  -0.00121  -0.00121   1.88967
   A10        1.89194  -0.00002   0.00000   0.00086   0.00086   1.89280
   A11        1.96133   0.00000   0.00000  -0.00053  -0.00053   1.96080
   A12        1.96120   0.00002   0.00000  -0.00068  -0.00068   1.96052
   A13        1.88716   0.00000   0.00000   0.00097   0.00097   1.88813
   A14        1.93076   0.00002   0.00000   0.00076   0.00076   1.93152
   A15        1.92956   0.00007   0.00000  -0.00032  -0.00032   1.92925
   A16        1.91362  -0.00004   0.00000  -0.00120  -0.00120   1.91242
   A17        1.89710  -0.00004   0.00000   0.00002   0.00002   1.89712
   A18        1.89577   0.00000   0.00000   0.00046   0.00046   1.89623
   A19        1.89633  -0.00002   0.00000   0.00030   0.00030   1.89663
   A20        1.64793   0.00057   0.00000   0.05298   0.05298   1.70091
   A21        3.03443  -0.00005   0.00000   0.01373   0.01373   3.04816
   A22        3.15023   0.00007   0.00000   0.00313   0.00313   3.15336
    D1       -1.80758   0.00001   0.00000   0.36020   0.35984  -1.44774
    D2        1.32159  -0.00002   0.00000   0.38554   0.38513   1.70672
    D3        1.18381   0.00043   0.00000   0.52145   0.52186   1.70567
    D4       -1.97020   0.00040   0.00000   0.54679   0.54715  -1.42305
    D5        1.69663  -0.00020   0.00000  -0.32175  -0.32411   1.37252
    D6       -1.39061  -0.00031   0.00000  -0.38473  -0.38237  -1.77298
    D7        3.13041  -0.00005   0.00000  -0.05948  -0.05952   3.07089
    D8       -0.02397  -0.00007   0.00000  -0.03345  -0.03341  -0.05738
    D9       -3.11686   0.00000   0.00000   0.03369   0.03369  -3.08317
   D10       -0.99747   0.00000   0.00000   0.03272   0.03272  -0.96474
   D11        1.04648  -0.00002   0.00000   0.03368   0.03368   1.08016
   D12       -1.04706  -0.00001   0.00000   0.00227   0.00227  -1.04479
   D13        1.05534   0.00000   0.00000   0.00259   0.00259   1.05793
   D14       -3.13748   0.00000   0.00000   0.00199   0.00199  -3.13549
   D15       -3.12143   0.00000   0.00000   0.00368   0.00368  -3.11775
   D16       -1.01903   0.00001   0.00000   0.00400   0.00400  -1.01504
   D17        1.07133   0.00001   0.00000   0.00340   0.00341   1.07473
   D18        1.02854  -0.00001   0.00000   0.00331   0.00331   1.03185
   D19        3.13093   0.00000   0.00000   0.00363   0.00363   3.13456
   D20       -1.06189   0.00000   0.00000   0.00303   0.00303  -1.05886
         Item               Value     Threshold  Converged?
 Maximum Force            0.000566     0.000015     NO 
 RMS     Force            0.000184     0.000010     NO 
 Maximum Displacement     1.159633     0.000060     NO 
 RMS     Displacement     0.342970     0.000040     NO 
 Predicted change in Energy=-6.427610D-04
 GradGradGradGradGradGradGradGradGradGradGradGradGradGradGradGradGradGrad

                          Input orientation:                          
 ---------------------------------------------------------------------
 Center     Atomic      Atomic             Coordinates (Angstroms)
 Number     Number       Type             X           Y           Z
 ---------------------------------------------------------------------
      1          6           0        2.448494    1.260432    0.603289
      2          1           0        3.294689    1.904722    0.660325
      3          6           0        1.511125    0.505546    0.429438
      4          6           0        0.272379   -0.253551    0.656704
      5          8           0        0.240295   -1.288282    1.259764
      6          8           0       -0.763983    0.354549    0.096760
      7          6           0       -2.018725   -0.351434    0.180281
      8          6           0       -3.038432    0.462109   -0.581573
      9          1           0       -1.880182   -1.347176   -0.245421
     10          1           0       -2.281962   -0.464962    1.234190
     11          1           0       -3.137568    1.458291   -0.148487
     12          1           0       -2.743811    0.563031   -1.626868
     13          1           0       -4.008912   -0.035191   -0.538622
     14          8           0        1.765544   -0.236545   -1.397898
     15          1           0        2.445381   -0.891473   -1.174248
 ---------------------------------------------------------------------
                    Distance matrix (angstroms):
                    1          2          3          4          5
     1  C    0.000000
     2  H    1.065085   0.000000
     3  C    1.216034   2.278618   0.000000
     4  C    2.651504   3.713827   1.470500   0.000000
     5  O    3.435557   4.459139   2.349952   1.198074   0.000000
     6  O    3.375975   4.381034   2.304255   1.325657   2.249455
     7  C    4.767924   5.792499   3.640926   2.342161   2.673227
     8  C    5.669884   6.613007   4.660740   3.606517   4.147824
     9  H    5.124194   6.178551   3.922878   2.577472   2.601052
    10  H    5.074667   6.086358   3.997127   2.627326   2.653355
    11  H    5.639894   6.498261   4.780384   3.899548   4.575674
    12  H    5.693856   6.595063   4.726116   3.870259   4.545865
    13  H    6.684362   7.651360   5.630306   4.450386   4.781233
    14  O    2.590774   3.340597   1.988613   2.539925   3.239707
    15  H    2.791119   3.450462   2.322994   2.912262   3.308213
                    6          7          8          9         10
     6  O    0.000000
     7  C    1.442139   0.000000
     8  C    2.375884   1.510654   0.000000
     9  H    2.063699   1.091751   2.174409   0.000000
    10  H    2.066302   1.092202   2.174558   1.768892   0.000000
    11  H    2.629125   2.152905   1.090766   3.075884   2.518484
    12  H    2.633263   2.151228   1.090701   2.510606   3.075016
    13  H    3.329440   2.139550   1.091321   2.517690   2.511955
    14  O    2.996982   4.101773   4.922671   3.981585   4.833464
    15  H    3.669884   4.696236   5.679406   4.447569   5.322618
                   11         12         13         14         15
    11  H    0.000000
    12  H    1.772609   0.000000
    13  H    1.772550   1.772747   0.000000
    14  O    5.336104   4.585415   5.841510   0.000000
    15  H    6.143524   5.408156   6.541799   0.970117   0.000000
 Stoichiometry    C5H7O3(2)
 Framework group  C1[X(C5H7O3)]
 Deg. of freedom    39
 Full point group                 C1      NOp   1
 Largest Abelian subgroup         C1      NOp   1
 Largest concise Abelian subgroup C1      NOp   1
                         Standard orientation:                         
 ---------------------------------------------------------------------
 Center     Atomic      Atomic             Coordinates (Angstroms)
 Number     Number       Type             X           Y           Z
 ---------------------------------------------------------------------
      1          6           0       -2.599625    0.267609   -1.105750
      2          1           0       -3.487954    0.580891   -1.602874
      3          6           0       -1.607757   -0.010476   -0.459525
      4          6           0       -0.333782   -0.624568   -0.056724
      5          8           0       -0.261917   -1.701953    0.462369
      6          8           0        0.685314    0.177219   -0.332308
      7          6           0        1.978409   -0.287947    0.105062
      8          6           0        2.976790    0.796008   -0.227131
      9          1           0        1.925278   -0.489020    1.176821
     10          1           0        2.199437   -1.226853   -0.407294
     11          1           0        2.990269    0.991272   -1.300192
     12          1           0        2.724907    1.720798    0.293395
     13          1           0        3.974742    0.481361    0.082826
     14          8           0       -1.728110    1.093889    1.189862
     15          1           0       -2.373191    0.544566    1.662347
 ---------------------------------------------------------------------
 Rotational constants (GHZ):      3.5792595      1.1587982      1.0793154
 Standard basis: 6-311++G(d,p) (5D, 7F)
 There are   233 symmetry adapted cartesian basis functions of A   symmetry.
 There are   225 symmetry adapted basis functions of A   symmetry.
   225 basis functions,   351 primitive gaussians,   233 cartesian basis functions
    31 alpha electrons       30 beta electrons
       nuclear repulsion energy       356.7461612755 Hartrees.
 NAtoms=   15 NActive=   15 NUniq=   15 SFac= 1.00D+00 NAtFMM=   60 NAOKFM=F Big=F
 Integral buffers will be    262144 words long.
 Raffenetti 2 integral format.
 Two-electron integral symmetry is turned on.
 One-electron integrals computed using PRISM.
 NBasis=   225 RedAO= T EigKep=  2.79D-06  NBF=   225
 NBsUse=   225 1.00D-06 EigRej= -1.00D+00 NBFU=   225
 Initial guess from the checkpoint file:  "ethyl_propiolate.chk"
 B after Tr=     0.000000    0.000000    0.000000
         Rot=    0.891947    0.450483   -0.037584   -0.009173 Ang=  53.76 deg.
 Initial guess <Sx>= 0.0000 <Sy>= 0.0000 <Sz>= 0.5000 <S**2>= 0.7775 S= 0.5136
 ExpMin= 3.60D-02 ExpMax= 8.59D+03 ExpMxC= 1.30D+03 IAcc=3 IRadAn=         5 AccDes= 0.00D+00
 Harris functional with IExCor= 1009 and IRadAn=       5 diagonalized for initial guess.
 HarFok:  IExCor= 1009 AccDes= 0.00D+00 IRadAn=         5 IDoV= 1 UseB2=F ITyADJ=14
 ICtDFT=  3500011 ScaDFX=  1.000000  1.000000  1.000000  1.000000
 FoFCou: FMM=F IPFlag=           0 FMFlag=      100000 FMFlg1=           0
         NFxFlg=           0 DoJE=T BraDBF=F KetDBF=T FulRan=T
         wScrn=  0.000000 ICntrl=     500 IOpCl=  0 I1Cent=   200000004 NGrid=           0
         NMat0=    1 NMatS0=      1 NMatT0=    0 NMatD0=    1 NMtDS0=    0 NMtDT0=    0
 Petite list used in FoFCou.
 Requested convergence on RMS density matrix=1.00D-08 within 128 cycles.
 Requested convergence on MAX density matrix=1.00D-06.
 Requested convergence on             energy=1.00D-06.
 No special actions if energy rises.
 Restarting incremental Fock formation.
 SCF Done:  E(UM062X) =  -420.201726304     A.U. after   24 cycles
            NFock= 24  Conv=0.45D-08     -V/T= 2.0033
 <Sx>= 0.0000 <Sy>= 0.0000 <Sz>= 0.5000 <S**2>= 0.7759 S= 0.5129
 <L.S>= 0.000000000000E+00
 Annihilation of the first spin contaminant:
 S**2 before annihilation     0.7759,   after     0.7503
 Calling FoFJK, ICntrl=      2127 FMM=F ISym2X=0 I1Cent= 0 IOpClX= 1 NMat=1 NMatS=1 NMatT=0.
 ***** Axes restored to original set *****
 -------------------------------------------------------------------
[...]
    R3        2.78209   0.00000   0.00000   0.00000   0.00000   2.78209
    R4        3.76925   0.00000   0.00000   0.00000   0.00000   3.76925
    R5        2.26283   0.00000   0.00000   0.00000   0.00000   2.26283
    R6        2.50474   0.00000   0.00000   0.00000   0.00000   2.50474
    R7        2.72408   0.00000   0.00000   0.00000   0.00000   2.72408
    R8        2.85421   0.00000   0.00000   0.00000   0.00000   2.85421
    R9        2.06327   0.00000   0.00000   0.00000   0.00000   2.06327
   R10        2.06347   0.00000   0.00000   0.00000   0.00000   2.06346
   R11        2.06100   0.00000   0.00000   0.00000   0.00000   2.06100
   R12        2.06068   0.00000   0.00000   0.00000   0.00000   2.06068
   R13        2.06218   0.00000   0.00000   0.00000   0.00000   2.06218
   R14        1.83225   0.00000   0.00000   0.00000   0.00000   1.83225
    A1        2.78993   0.00000   0.00000   0.00000   0.00000   2.78993
    A2        1.85603   0.00000   0.00000   0.00001   0.00001   1.85604
    A3        1.63581   0.00000   0.00000  -0.00001  -0.00001   1.63580
    A4        2.15174   0.00000   0.00000   0.00000   0.00000   2.15173
    A5        1.93373   0.00000   0.00000   0.00000   0.00000   1.93373
    A6        2.19771   0.00000   0.00000   0.00000   0.00000   2.19771
    A7        2.01510   0.00000   0.00000   0.00000   0.00000   2.01510
    A8        1.86900   0.00000   0.00000   0.00000   0.00000   1.86900
    A9        1.88911   0.00000   0.00000   0.00000   0.00000   1.88911
   A10        1.89371   0.00000   0.00000   0.00000   0.00000   1.89371
   A11        1.96010   0.00000   0.00000   0.00000   0.00000   1.96010
   A12        1.96191   0.00000   0.00000   0.00000   0.00000   1.96191
   A13        1.88776   0.00000   0.00000   0.00000   0.00000   1.88776
   A14        1.93175   0.00000   0.00000   0.00000   0.00000   1.93175
   A15        1.92888   0.00000   0.00000   0.00000   0.00000   1.92888
   A16        1.91378   0.00000   0.00000   0.00000   0.00000   1.91378
   A17        1.89668   0.00000   0.00000   0.00000   0.00000   1.89668
   A18        1.89542   0.00000   0.00000   0.00000   0.00000   1.89542
   A19        1.89663   0.00000   0.00000   0.00000   0.00000   1.89663
   A20        1.71124   0.00000   0.00000   0.00001   0.00001   1.71125
   A21        3.05188   0.00000   0.00000   0.00000   0.00000   3.05188
   A22        3.16154   0.00000   0.00000   0.00001   0.00001   3.16155
    D1       -1.34219   0.00000   0.00000   0.00011   0.00011  -1.34208
    D2        1.79497   0.00000   0.00000   0.00011   0.00011   1.79508
    D3        1.71033   0.00000   0.00000   0.00005   0.00005   1.71038
    D4       -1.43570   0.00000   0.00000   0.00005   0.00005  -1.43565
    D5        1.11327   0.00000   0.00000  -0.00007  -0.00007   1.11320
    D6       -1.99639   0.00000   0.00000  -0.00005  -0.00005  -1.99643
    D7        3.09117   0.00000   0.00000   0.00000   0.00000   3.09117
    D8       -0.05500   0.00000   0.00000   0.00000   0.00000  -0.05500
    D9       -3.11464   0.00000   0.00000  -0.00002  -0.00002  -3.11466
   D10       -0.99775   0.00000   0.00000  -0.00002  -0.00002  -0.99777
   D11        1.04690   0.00000   0.00000  -0.00002  -0.00002   1.04688
   D12       -1.05283   0.00000   0.00000  -0.00001  -0.00001  -1.05283
   D13        1.04924   0.00000   0.00000  -0.00001  -0.00001   1.04924
   D14        3.13966   0.00000   0.00000  -0.00001  -0.00001   3.13965
   D15       -3.12426   0.00000   0.00000  -0.00001  -0.00001  -3.12427
   D16       -1.02219   0.00000   0.00000  -0.00001  -0.00001  -1.02220
   D17        1.06822   0.00000   0.00000  -0.00001  -0.00001   1.06821
   D18        1.02530   0.00000   0.00000  -0.00001  -0.00001   1.02529
   D19        3.12737   0.00000   0.00000  -0.00001  -0.00001   3.12736
   D20       -1.06540   0.00000   0.00000  -0.00001  -0.00001  -1.06541
         Item               Value     Threshold  Converged?
 Maximum Force            0.000001     0.000015     YES
 RMS     Force            0.000000     0.000010     YES
 Maximum Displacement     0.000089     0.000060     NO 
 RMS     Displacement     0.000033     0.000040     YES
 Predicted change in Energy=-3.848085D-11
 GradGradGradGradGradGradGradGradGradGradGradGradGradGradGradGradGradGrad

 1|1|UNPC-DIT|Freq|UM062X|6-311++G(d,p)|C5H7O3(2)|NDITM|21-Jan-2025|0||
 #N Geom=AllCheck Guess=TCheck SCRF=Check GenChk UM062X/6-311++G(d,p) F
 req||Title Card Required||0,2|C,2.4448530657,1.2363680231,0.6043180684
 |H,3.2968934311,1.8705398388,0.6883712889|C,1.5002686064,0.4978850138,
 0.4023652969|C,0.2584871133,-0.2553018422,0.6434317921|O,0.2163032374,
 -1.2643920511,1.2867209146|O,-0.7732519701,0.3398417057,0.0619383772|C
 ,-2.0335530305,-0.3498845604,0.179838595|C,-3.0575923943,0.4649361177,
 -0.5742579271|H,-1.914457238,-1.3526343291,-0.2353869503|H,-2.27748789
 09,-0.4471683274,1.2397261985|H,-3.1425757726,1.4656508328,-0.14901682
 98|H,-2.776914903,0.5544470546,-1.6241741347|H,-4.0318232685,-0.022948
 0487,-0.5134949873|O,1.7906197583,-0.3045521891,-1.4004740563|H,2.6045
 632558,-0.7927192385,-1.202270646||Version=IA32W-G09RevD.01|State=2-A|
 HF=-420.2019901|S2=0.775796|S2-1=0.|S2A=0.750252|RMSD=3.459e-009|RMSF=
 3.397e-006|ZeroPoint=0.1116621|Thermal=0.1213252|Dipole=0.0560508,0.52
 11664,0.1164158|DipoleDeriv=-0.3441664,0.1126335,0.3691526,-0.0972007,
 0.0141416,0.3043972,-0.0095383,0.0509249,-0.0325244,0.2513575,0.032772
 2,0.0244577,0.0334417,0.2491495,0.0052321,0.0318783,0.0106061,0.215873
 4,-0.2626575,-0.2258614,-0.2390688,-0.0643784,-0.4645393,-0.5134567,0.
 1129888,-0.3649399,-0.7699745,2.2494218,0.0250526,0.0426516,-0.165686,
 1.2834468,-0.7543277,0.4215355,-0.5572656,0.9401118,-0.7879609,-0.1120
 034,0.0632379,0.0643855,-0.9168361,0.4954355,-0.1114628,0.3595753,-0.6
 48221,-1.880248,0.1582315,-0.3062234,0.1219428,-0.5626767,0.2226162,-0
 .4085299,0.2192008,-0.4492265,1.024546,0.0424949,0.109509,0.2035719,0.
 3029386,0.0086232,0.0285794,-0.0101579,0.3062094,-0.0469657,0.0319563,
 -0.0360796,0.0379135,0.0318016,0.0355562,-0.0485498,0.0253883,0.020117
 1,-0.047109,0.0619535,0.0052084,-0.0331496,-0.0550583,-0.0385874,0.004
 7834,-0.0475969,0.0298348,-0.0441456,0.0050308,-0.0312635,-0.0389172,0
 .0493384,-0.0057618,0.040914,0.0247501,-0.087747,0.0732394,-0.0047341,
 -0.0166791,0.0495481,-0.0685577,-0.0383159,-0.0109763,-0.0713118,0.030
 6927,0.057581,0.0069766,0.063485,0.0344896,0.0620171,0.0075823,0.01002
 63,0.0247717,-0.0731552,-0.0863102,-0.049299,-0.0080662,-0.0733394,0.0
 286893,0.0177269,0.0030949,0.0252567,0.0767618,-0.3511844,-0.071989,0.
 1035096,-0.1085832,-0.2449237,0.1817321,-0.0125061,0.2872074,0.1716194
 ,0.1946018,-0.0132149,-0.1438312,0.0359613,0.291069,0.0715477,-0.05223
 75,0.0235908,0.2696282|Polar=85.0794948,8.8414302,69.9792044,3.7064673
 ,7.1462344,71.8233879|PG=C01 [X(C5H7O3)]|NImag=1||0.90235975,0.6401929
 8,0.53815976,0.12768552,0.09849032,0.07383258,-0.27975896,-0.18909258,
 -0.02804082,0.26931255,-0.18556917,-0.16369664,-0.01945110,0.18770815,
 0.15526535,-0.02014578,-0.01408563,-0.02462735,0.02596523,0.01868124,0
 .01684306,-0.63814254,-0.46128402,-0.10879218,0.00851747,0.00067609,-0
 .00653853,0.91124476,-0.42736663,-0.35321252,-0.06395175,0.00333705,0.
 00531541,-0.00368528,0.55516457,0.45234518,-0.04580645,-0.02192834,-0.
 01856125,0.00111079,0.00183058,0.00439254,0.05672930,-0.05554288,-0.03
 753080,0.01633551,0.01147776,0.00846951,0.00114540,-0.00331959,0.00041
 811,-0.20898095,-0.09812449,0.00176747,0.60804183,-0.00350766,0.000414
 12,0.00245177,-0.00284707,0.00332315,-0.00023353,-0.06999403,-0.103147
 75,0.00507725,0.05997867,0.80089016,-0.01681376,-0.01382246,-0.0020519
 8,-0.00025238,-0.00102412,0.00399254,0.02544992,0.02252175,-0.04521897
 ,0.04723168,-0.36277488,0.45854276,-0.00457815,-0.00281904,-0.00059101
 ,-0.00031740,0.00133593,-0.00047650,0.00199688,-0.03354711,0.02049943,
 -0.11061279,-0.03963513,0.01983659,0.10532282,-0.00208524,0.00006724,-
 0.00084252,0.00001576,0.00048607,-0.00065648,-0.02696957,-0.03612922,0
 .03192512,-0.03106516,-0.57452052,0.31269355,0.02124971,0.65434444,0.0
 0244952,0.00149017,0.00115327,0.00041341,-0.00052948,-0.00022878,0.012
 67193,0.02758085,0.00054741,0.01249914,0.30835864,-0.27672624,0.000217
 03,-0.39473216,0.28810390,-0.00745118,-0.00538955,-0.00067790,0.001086
 61,-0.00037318,0.00068454,-0.05742493,0.00972359,-0.01248968,-0.240029
 97,0.07048378,-0.07827518,0.00305728,0.04643458,-0.03578760,0.53094404
 ,-0.00120986,-0.00096610,0.00041088,0.00058597,-0.00077753,0.00016386,
 -0.01528401,0.01150588,-0.00366082,0.04618902,-0.13787587,0.05234751,0
 .04723424,-0.04167108,0.05609178,-0.00878564,0.30124203,-0.00019644,0.
 00004884,0.00034248,0.00003447,0.00018453,-0.00026518,-0.00459095,0.00
 121116,0.00907882,-0.06758625,0.05848751,-0.12032879,-0.03652357,0.055
 13417,-0.01070074,0.10504494,-0.13515180,0.18850743,0.00159346,0.00105
 210,0.00019291,-0.00029520,-0.00020258,-0.00002104,0.00116927,0.000229
 94,-0.00323205,-0.06429886,0.00418292,-0.01782790,0.00348423,-0.014856
 00,0.01185612,-0.14566867,-0.04393871,0.01004623,0.46101993,0.00177676
 ,0.00157371,0.00010980,-0.00016607,0.00013377,-0.00014506,0.00401496,-
 0.00022660,0.00232354,0.00475578,0.01789160,-0.00979892,0.00569855,-0.
 00802361,0.00276597,-0.06656182,-0.12274375,0.01748810,-0.04874648,0.5
 8032276,0.00095513,0.00048842,0.00020055,0.00009367,-0.00007619,-0.000
 12777,-0.00375245,0.00225953,0.00172178,-0.01821734,-0.00982747,0.0031
 4462,-0.00079798,-0.00211335,-0.00509185,0.02123842,0.02189984,-0.0766
 7507,-0.01062435,0.01612285,0.61318019,-0.00036683,-0.00028511,-0.0000
 0552,0.00007430,-0.00005232,0.00002545,-0.00151553,0.00058992,-0.00041
 903,-0.00236833,-0.00577223,0.00303953,0.00141928,0.00192793,-0.001157
 18,-0.04512259,0.01575694,-0.02090604,-0.13087343,0.05200224,-0.043052
 11,0.55019923,-0.00038216,-0.00028955,0.00000782,0.00004734,-0.0000256
 2,0.00002590,-0.00095084,0.00055782,-0.00032043,-0.00193266,-0.0050190
 6,0.00257886,0.00131992,0.00241233,-0.00052692,-0.02117861,0.01156172,
 -0.01138093,0.06566117,-0.13355124,0.04473517,0.03156784,0.56519965,0.
 00017890,0.00018376,-0.00003513,-0.00001282,0.00000699,-0.00000288,0.0
 0024193,-0.00032383,0.00008711,0.00056331,0.00155567,-0.00096961,-0.00
 066964,-0.00031431,0.00107356,0.00176909,-0.00235028,0.00347741,-0.051
 47328,0.04163299,-0.12495893,-0.02813165,0.02044254,0.56528473,-0.0001
 0308,-0.00007221,-0.00002756,0.00004666,0.00001424,-0.00001581,-0.0004
 2161,0.00076114,0.00103653,0.00416248,-0.00753389,0.00274937,0.0003416
 0,0.00271822,-0.00161710,-0.01431248,-0.03642778,-0.01552273,-0.053165
 27,0.03816713,0.01837810,-0.00186641,0.02141330,0.00988224,0.06564966,
 -0.00018996,-0.00011930,-0.00001888,0.00001841,0.00000058,-0.00000457,
 -0.00036858,0.00007259,0.00013436,0.00379019,-0.00216144,0.00258094,0.
 00021167,0.00164424,-0.00076757,-0.01255460,-0.01673421,-0.00488635,0.
 02987744,-0.26954809,-0.09624380,0.00317833,-0.01263849,-0.00576334,-0
 .02689593,0.29555006,0.00011190,0.00007054,0.00001001,0.00000505,-0.00
 001236,0.00001580,0.00000564,0.00005722,-0.00030751,0.00010582,-0.0029
 6539,0.00202850,0.00134788,0.00144241,-0.00042468,-0.00177817,0.006481
 87,0.00313518,0.01351748,-0.09803374,-0.09656856,-0.00206815,0.0174069
 9,0.00787211,-0.01360015,0.10252805,0.09556717,-0.00041176,-0.00025196
 ,-0.00003085,0.00003024,0.00000386,0.00006657,-0.00007231,-0.00013510,
 -0.00056626,0.00409213,-0.00633315,0.00664348,0.00002572,0.00345631,-0
 .00203776,-0.02652080,-0.00776562,0.02974489,-0.05891807,-0.00319956,0
 .04767513,0.00699752,0.00148824,-0.02429840,0.00115559,0.00109950,0.00
 402883,0.07568028,-0.00021863,-0.00014754,-0.00007427,0.00001398,0.000
 00759,0.00002510,-0.00017162,-0.00017578,0.00001649,0.00239121,0.00026
 119,0.00088143,-0.00068904,0.00014622,-0.00041717,-0.01370883,-0.00442
 002,0.01849805,-0.00198575,-0.05406935,0.01247314,-0.00345321,-0.00071
 951,0.01777631,0.00701303,0.00348796,-0.02860766,0.00937313,0.05562121
 ,-0.00017635,-0.00012925,0.00001155,-0.00002516,0.00001630,0.00000268,
 0.00043577,-0.00017880,-0.00017641,-0.00202198,0.00178450,-0.00077991,
 -0.00115634,-0.00086300,0.00071173,0.00545923,0.00309500,0.00420000,0.
 05629220,0.01543110,-0.30778935,0.00210366,0.00024954,-0.01269196,0.00
 167512,0.00102484,-0.01165864,-0.06016997,-0.02192315,0.32716271,0.000
 06460,0.00000075,0.00000550,-0.00002051,0.00000904,-0.00000269,0.00003
 627,-0.00005379,-0.00007448,-0.00053564,0.00097574,-0.00074422,-0.0003
 1559,-0.00073258,0.00025637,0.00289614,-0.00055595,0.00091997,-0.00372
 446,0.02370056,0.01014882,-0.04854326,0.01613301,0.00775716,-0.0026340
 1,0.00194516,-0.00273489,0.00069446,-0.00100304,0.00018573,0.04976595,
 0.00003776,0.00002192,-0.00000405,-0.00000400,-0.00001087,-0.00000536,
 0.00004800,-0.00000190,0.00000274,-0.00010493,-0.00018279,0.00017054,0
 .00019565,0.00031261,-0.00001845,-0.00058555,0.00159309,0.00006313,0.0
 0056972,-0.01844939,-0.00751044,0.01855714,-0.27463274,-0.09818775,0.0
 0218044,0.00000526,0.00242916,-0.00027438,0.00051342,0.00023318,-0.022
 12144,0.29811421,-0.00001603,-0.00000749,-0.00000227,0.00000329,-0.000
 00211,0.00000315,0.00003064,0.00001335,0.00006680,0.00015192,0.0003353
 2,-0.00015859,-0.00028495,-0.00014849,-0.00017176,0.00157974,-0.000750
 89,0.00025353,-0.00126744,0.01913548,0.00804684,0.00783971,-0.10021471
 ,-0.09259368,-0.00322817,0.00158321,-0.00107784,0.00093073,-0.00003546
 ,0.00081824,-0.00633974,0.10589335,0.09582116,-0.00001993,-0.00002327,
 0.00000010,-0.00001511,-0.00000127,-0.00001278,0.00009084,0.00004773,0
 .00010233,-0.00040924,0.00100210,-0.00071842,-0.00041304,-0.00053921,0
 .00039334,0.00296569,-0.00044649,0.00092045,0.00541102,0.00180850,-0.0
 2610828,-0.06599818,-0.00581198,0.07145868,0.00081491,-0.00060222,0.00
 078471,-0.00319130,0.00251671,-0.00220136,-0.00161732,-0.00039720,0.00
 098454,0.06852393,0.00009494,0.00005624,0.00001891,-0.00000857,0.00000
 095,-0.00000846,-0.00002068,-0.00004504,-0.00008804,-0.00032872,-0.000
 19462,0.00005831,0.00034624,-0.00004469,-0.00008206,-0.00066250,0.0004
 1700,-0.00143961,-0.00657488,-0.00218551,0.02058111,-0.00427474,-0.050
 07138,0.01747586,-0.00089776,0.00032468,-0.00007213,0.00331477,-0.0010
 6775,0.00142651,0.00836260,0.00401700,-0.02894306,0.00323561,0.0508331
 3,-0.00009445,-0.00007651,0.00000127,-0.00000268,0.00000471,-0.0000078
 3,-0.00000287,0.00006597,0.00004465,-0.00013135,0.00049083,-0.00026589
 ,-0.00020560,-0.00041928,0.00029615,0.00066042,-0.00060563,0.00128148,
 0.00468185,0.00171026,-0.01720310,0.06858386,0.01868898,-0.29813312,-0
 .00018182,0.00000846,0.00088265,-0.00229245,0.00195317,0.00038240,0.00
 292313,0.00173426,-0.01068462,-0.07374131,-0.02317400,0.32262523,-0.00
 018441,-0.00011727,-0.00000727,0.00002905,0.00000310,0.00001504,-0.000
 32720,0.00017574,-0.00003276,0.00076351,-0.00179709,0.00108992,-0.0000
 1199,0.00083428,-0.00047549,-0.00485469,0.00363628,-0.00360681,-0.0167
 0638,-0.01287700,0.00442081,-0.26213099,-0.10737312,0.01279218,0.00035
 944,0.00044076,0.00044753,0.00053624,-0.00006898,-0.00043587,0.0039409
 2,0.00186166,-0.00039423,-0.00622356,-0.00256461,-0.00024306,0.2848480
 2,0.00010316,0.00010434,-0.00000127,-0.00000877,0.00000841,-0.00000299
 ,0.00035334,-0.00022201,0.00009661,0.00068427,0.00131858,-0.00036069,-
 0.00024025,-0.00031917,0.00004829,0.00510303,-0.00145000,0.00278426,0.
 01447021,0.00857889,-0.00324191,-0.10968462,-0.10276006,0.00776831,-0.
 00055023,0.00016194,-0.00074973,-0.00067714,0.00057960,-0.00008501,-0.
 02666338,-0.01131382,0.00314584,-0.00074795,-0.00204926,-0.00032638,0.
 11787541,0.10733723,-0.00013876,-0.00011680,0.00000510,0.00001319,-0.0
 0000689,0.00000413,-0.00029295,0.00018578,-0.00010508,-0.00035392,-0.0
 0094487,0.00097058,0.00018550,0.00028894,-0.00029117,-0.00455591,0.002
 43771,-0.00159670,-0.01243238,-0.01009598,0.00060218,0.01426845,0.0083
 6923,-0.04845539,0.00034845,0.00001148,0.00048553,0.00066699,-0.000427
 12,-0.00006635,-0.01236007,-0.00475411,-0.00030542,0.02814278,0.014182
 50,0.00081585,-0.01353155,-0.00908000,0.04797228,0.00792392,0.00549535
 ,0.00182502,-0.00003343,-0.00019428,0.00030237,-0.01468411,-0.00619612
 ,-0.01356805,-0.00422312,-0.00058001,0.00884376,-0.00005667,0.00010059
 ,0.00038926,-0.00079168,0.00114793,0.00129139,0.00111195,-0.00028849,-
 0.00029582,0.00006958,-0.00002378,-0.00001850,-0.00003658,0.00003004,-
 0.00012326,-0.00009941,-0.00001346,0.00002135,0.00000075,0.00004613,0.
 00000248,0.00005436,-0.00001032,0.00001770,-0.00005732,-0.00000969,0.0
 0001706,0.37836284,-0.02051205,-0.02048988,-0.01625203,0.00043493,0.00
 026257,0.00022865,0.01230730,0.02399693,0.03611594,0.00304202,-0.00433
 545,-0.00431455,-0.00014128,0.00324357,0.00011603,-0.00063077,0.000561
 37,-0.00117877,-0.00009697,0.00002897,0.00049284,0.00001149,0.00002897
 ,0.00006193,0.00019245,0.00001308,0.00003995,-0.00005427,0.00001745,-0
 .00007326,-0.00002150,0.00002261,0.00000291,-0.00004829,-0.00001602,-0
 .00004868,0.00000509,0.00000943,-0.00003272,-0.21486166,0.13116835,-0.
 04821279,-0.04971276,-0.02980661,0.00086731,0.00045624,-0.00003664,0.0
 1976140,0.07491311,0.08584010,0.01575401,-0.00038019,-0.02179242,-0.00
 081855,-0.00236576,0.00191319,-0.00249673,-0.00042847,-0.00024106,0.00
 015066,0.00125851,0.00158744,-0.00007671,-0.00002612,0.00003097,0.0001
 2768,-0.00017280,-0.00001425,-0.00038949,-0.00012201,-0.00013664,0.000
 05542,-0.00004992,-0.00000640,-0.00000106,0.00004660,-0.00002538,-0.00
 001536,-0.00000744,-0.00002981,0.10150147,-0.06905467,0.00263690,0.002
 73960,0.00111608,-0.00000545,0.00019832,-0.00003802,-0.00026418,-0.001
 48632,-0.00460645,-0.00505708,-0.00308195,0.00137705,-0.00025239,0.000
 65782,-0.00048961,-0.00007100,0.00122722,-0.00013631,0.00093045,-0.000
 13951,-0.00008506,-0.00006174,0.00002566,0.00002235,-0.00003922,0.0000
 0909,0.00001978,-0.00005021,0.00000146,0.00000448,0.00001397,-0.000008
 30,-0.00000902,0.00000750,0.00002693,-0.00001138,0.00002865,0.00001935
 ,-0.00000741,0.00002314,-0.36754109,0.22037352,-0.08620726,0.36735172,
 -0.00116424,-0.00147580,-0.00089364,-0.00003453,-0.00029321,-0.0002973
 9,0.00247909,-0.00063299,0.00401790,0.00256663,0.00333871,-0.00173727,
 -0.00052006,-0.00194843,0.00062208,-0.00131395,-0.00024252,0.00013773,
 0.00035785,0.00026784,-0.00003974,-0.00006962,-0.00005286,0.00003516,-
 0.00008215,-0.00005888,-0.00001517,-0.00004462,-0.00003466,-0.00000850
 ,0.00002481,-0.00000862,-0.00000726,0.00000727,0.00002527,-0.00000618,
 -0.00003426,0.00001590,-0.00001715,0.21535776,-0.13451196,0.04564570,-
 0.21752998,0.13561220,0.00021982,-0.00089280,-0.00047223,-0.00017255,-
 0.00007833,0.00004254,0.00864341,-0.00512616,0.00012083,0.00134986,-0.
 00141516,-0.00038661,-0.00056229,0.00097117,-0.00016399,-0.00037521,0.
 00001945,-0.00046879,0.00014100,0.00009511,-0.00006898,-0.00004427,-0.
 00003592,0.00001480,-0.00000414,-0.00001404,0.00005453,0.00002855,-0.0
 0001686,0.00000993,0.00000400,0.00000371,-0.00000913,-0.00000373,0.000
 01756,-0.00000973,-0.00002306,0.00001209,-0.00000573,-0.10020621,0.053
 89645,-0.03991939,0.09100482,-0.04743627,0.04126196||-0.00000239,0.000
 00264,0.00000506,-0.00000244,0.00000267,0.00000634,-0.00000060,0.00000
 084,0.00000432,-0.00000146,0.00000141,0.00000225,-0.00000258,0.0000020
 2,0.00000343,-0.00000037,0.00000016,-0.00000055,-0.00000036,-0.0000004
 4,-0.00000287,0.00000106,-0.00000188,-0.00000622,0.00000115,-0.0000008
 8,-0.00000121,-0.00000265,0.00000087,-0.00000323,-0.00000035,-0.000001
 32,-0.00000771,0.00000337,-0.00000311,-0.00000568,0.00000113,-0.000002
 20,-0.00000774,0.00000353,-0.00000070,0.00000542,0.00000296,-0.0000000
 9,0.00000839|||@


 LEARN FROM YESTERDAY,
 LIVE FOR TODAY,
 LOOK TO TOMORROW,
 REST THIS AFTERNOON.

           -- SNOOPY
 Job cpu time:       0 days  0 hours 20 minutes 55.0 seconds.
 File lengths (MBytes):  RWF=    153 Int=      0 D2E=      0 Chk=      8 Scr=      1
 Normal termination of Gaussian 09 at Tue Jan 21 20:43:32 2025.
