 Entering Gaussian System, Link 0=g16
 Initial command:
 /opt/g16/l1.exe "/home/aayush/scratches/g16/Gau-38187.inp" -scrdir="/home/aayush/scratches/g16/"
 Entering Link 1 = /opt/g16/l1.exe PID=     38190.
  
 Copyright (c) 1988,1990,1992,1993,1995,1998,2003,2009,2016,
            Gaussian, Inc.  All Rights Reserved.
  
 This is part of the Gaussian(R) 16 program.  It is based on
 the Gaussian(R) 09 system (copyright 2009, Gaussian, Inc.),
 the Gaussian(R) 03 system (copyright 2003, Gaussian, Inc.),
 the Gaussian(R) 98 system (copyright 1998, Gaussian, Inc.),
 the Gaussian(R) 94 system (copyright 1995, Gaussian, Inc.),
 the Gaussian 92(TM) system (copyright 1992, Gaussian, Inc.),
 the Gaussian 90(TM) system (copyright 1990, Gaussian, Inc.),
 the Gaussian 88(TM) system (copyright 1988, Gaussian, Inc.),
 the Gaussian 86(TM) system (copyright 1986, Carnegie Mellon
 University), and the Gaussian 82(TM) system (copyright 1983,
 Carnegie Mellon University). Gaussian is a federally registered
 trademark of Gaussian, Inc.
  
 This software contains proprietary and confidential information,
 including trade secrets, belonging to Gaussian, Inc.
  
 This software is provided under written license and may be
 used, copied, transmitted, or stored only in accord with that
 written license.
  
 The following legend is applicable only to US Government
 contracts under FAR:
  
                    RESTRICTED RIGHTS LEGEND
  
 Use, reproduction and disclosure by the US Government is
 subject to restrictions as set forth in subparagraphs (a)
 and (c) of the Commercial Computer Software - Restricted
 Rights clause in FAR 52.227-19.
  
 Gaussian, Inc.
 340 Quinnipiac St., Bldg. 40, Wallingford CT 06492
  
  
 ---------------------------------------------------------------
 Warning -- This program may not be used in any manner that
 competes with the business of Gaussian, Inc. or will provide
 assistance to any competitor of Gaussian, Inc.  The licensee
 of this program is prohibited from giving any competitor of
 Gaussian, Inc. access to this program.  By using this program,
 the user acknowledges that Gaussian, Inc. is engaged in the
 business of creating and licensing software in the field of
 computational chemistry and represents and warrants to the
 licensee that it is not a competitor of Gaussian, Inc. and that
 it will not use this program in any manner prohibited above.
 ---------------------------------------------------------------
  

 Cite this work as:
 Gaussian 16, Revision A.03,
 M. J. Frisch, G. W. Trucks, H. B. Schlegel, G. E. Scuseria, 
 M. A. Robb, J. R. Cheeseman, G. Scalmani, V. Barone, 
 G. A. Petersson, H. Nakatsuji, X. Li, M. Caricato, A. V. Marenich, 
 J. Bloino, B. G. Janesko, R. Gomperts, B. Mennucci, H. P. Hratchian, 
 J. V. Ortiz, A. F. Izmaylov, J. L. Sonnenberg, D. Williams-Young, 
 F. Ding, F. Lipparini, F. Egidi, J. Goings, B. Peng, A. Petrone, 
 T. Henderson, D. Ranasinghe, V. G. Zakrzewski, J. Gao, N. Rega, 
 G. Zheng, W. Liang, M. Hada, M. Ehara, K. Toyota, R. Fukuda, 
 J. Hasegawa, M. Ishida, T. Nakajima, Y. Honda, O. Kitao, H. Nakai, 
 T. Vreven, K. Throssell, J. A. Montgomery, Jr., J. E. Peralta, 
 F. Ogliaro, M. J. Bearpark, J. J. Heyd, E. N. Brothers, K. N. Kudin, 
 V. N. Staroverov, T. A. Keith, R. Kobayashi, J. Normand, 
 K. Raghavachari, A. P. Rendell, J. C. Burant, S. S. Iyengar, 
 J. Tomasi, M. Cossi, J. M. Millam, M. Klene, C. Adamo, R. Cammi, 
 J. W. Ochterski, R. L. Martin, K. Morokuma, O. Farkas, 
 J. B. Foresman, and D. J. Fox, Gaussian, Inc., Wallingford CT, 2016.
 
 ******************************************
 Gaussian 16:  ES64L-G16RevA.03 25-Dec-2016
                 2-Jul-2025 
 ******************************************
 %nprocshared=24
 Will use up to   24 processors via shared memory.
 %mem=12GB
 %chk=ethyl_propiolate_ts1.chk
 --------------------------
 # ccsd(t)/6-311++g(d,p) sp
 --------------------------
 1/38=1,172=1/1;
 2/12=2,17=6,18=5,40=1/2;
 3/5=4,6=6,7=1111,11=9,25=1,30=1/1,2,3;
 4//1;
 5/5=2,38=5/2;
 8/6=4,9=120000,10=2/1,4;
 9/5=7,14=2/13;
 6/7=2,8=2,9=2,10=2/1;
 99/5=1,9=1/99;
 -------------------
 Title Card Required
 -------------------
 Symbolic Z-matrix:
 Charge =  0 Multiplicity = 2
 O                     4.56056  -0.25677   0.32073 
 H                     4.60812   0.64833  -0.02901 
 C                     2.26553  -0.31313  -0.07711 
 H                     3.49619  -0.62168  -0.04764 
 C                     1.10636   0.02407  -0.1063 
 C                    -0.30215   0.40313  -0.18905 
 O                    -0.68897   1.53182  -0.06286 
 O                    -1.07258  -0.65673  -0.42451 
 C                    -2.49131  -0.40539  -0.50978 
 C                    -3.1061   -0.28275   0.87045 
 H                    -2.87872  -1.2679   -1.04888 
 H                    -2.651     0.49676  -1.10134 
 H                    -4.18796  -0.16853   0.77907 
 H                    -2.90136  -1.17817   1.45904 
 H                    -2.71126   0.58899   1.39249 
 
                          Input orientation:                          
 ---------------------------------------------------------------------
 Center     Atomic      Atomic             Coordinates (Angstroms)
 Number     Number       Type             X           Y           Z
 ---------------------------------------------------------------------
      1          8           0        4.560561   -0.256769    0.320732
      2          1           0        4.608118    0.648330   -0.029009
      3          6           0        2.265527   -0.313129   -0.077114
      4          1           0        3.496192   -0.621679   -0.047643
      5          6           0        1.106358    0.024073   -0.106299
      6          6           0       -0.302148    0.403126   -0.189045
      7          8           0       -0.688972    1.531820   -0.062856
      8          8           0       -1.072582   -0.656727   -0.424507
      9          6           0       -2.491314   -0.405390   -0.509775
     10          6           0       -3.106102   -0.282747    0.870451
     11          1           0       -2.878722   -1.267900   -1.048884
     12          1           0       -2.651003    0.496764   -1.101337
     13          1           0       -4.187956   -0.168526    0.779074
     14          1           0       -2.901359   -1.178167    1.459044
     15          1           0       -2.711264    0.588985    1.392487
 ---------------------------------------------------------------------
                    Distance matrix (angstroms):
                    1          2          3          4          5
     1  O    0.000000
     2  H    0.971486   0.000000
     3  C    2.329944   2.532676   0.000000
     4  H    1.183951   1.688090   1.269097   0.000000
     5  C    3.491811   3.557807   1.207572   2.476236   0.000000
     6  C    4.933688   4.918989   2.668053   3.936700   1.460964
     7  O    5.559117   5.370369   3.483261   4.706738   2.344866
     8  O    5.696284   5.842084   3.373679   4.584425   2.304891
     9  C    7.102167   7.193288   4.777368   6.009208   3.645610
    10  C    7.686390   7.822092   5.454649   6.674433   4.335089
    11  H    7.631590   7.795182   5.321581   6.485338   4.294010
    12  H    7.388961   7.339462   5.086966   6.336339   3.915520
    13  H    8.760960   8.870804   6.511637   7.741766   5.371289
    14  H    7.604274   7.870365   5.459376   6.596093   4.467379
    15  H    7.398878   7.456375   5.267066   6.486308   4.140015
                    6          7          8          9         10
     6  C    0.000000
     7  O    1.199794   0.000000
     8  O    1.331277   2.251152   0.000000
     9  C    2.355634   2.683460   1.443344   0.000000
    10  C    3.074917   3.163263   2.439668   1.515925   0.000000
    11  H    3.189104   3.688589   2.006370   1.088415   2.169349
    12  H    2.521540   2.449357   2.068829   1.090563   2.168571
    13  H    4.045188   3.980316   3.375278   2.143789   1.091698
    14  H    3.460142   3.815084   2.676582   2.154430   1.090935
    15  H    2.887841   2.663949   2.745641   2.157721   1.090108
                   11         12         13         14         15
    11  H    0.000000
    12  H    1.780069   0.000000
    13  H    2.502828   2.518091   0.000000
    14  H    2.509635   3.069792   1.771176   0.000000
    15  H    3.071865   2.496256   1.769383   1.778593   0.000000
 Stoichiometry    C5H7O3(2)
 Framework group  C1[X(C5H7O3)]
 Deg. of freedom    39
 Full point group                 C1      NOp   1
 Largest Abelian subgroup         C1      NOp   1
 Largest concise Abelian subgroup C1      NOp   1
                         Standard orientation:                         
 ---------------------------------------------------------------------
 Center     Atomic      Atomic             Coordinates (Angstroms)
 Number     Number       Type             X           Y           Z
 ---------------------------------------------------------------------
      1          8           0        4.560561   -0.256769    0.320732
      2          1           0        4.608118    0.648330   -0.029009
      3          6           0        2.265527   -0.313129   -0.077114
      4          1           0        3.496192   -0.621679   -0.047643
      5          6           0        1.106358    0.024073   -0.106299
      6          6           0       -0.302148    0.403126   -0.189045
      7          8           0       -0.688972    1.531820   -0.062856
      8          8           0       -1.072582   -0.656727   -0.424507
      9          6           0       -2.491314   -0.405390   -0.509775
     10          6           0       -3.106102   -0.282747    0.870451
     11          1           0       -2.878722   -1.267900   -1.048884
     12          1           0       -2.651003    0.496764   -1.101337
     13          1           0       -4.187956   -0.168526    0.779074
     14          1           0       -2.901359   -1.178167    1.459044
     15          1           0       -2.711264    0.588985    1.392487
 ---------------------------------------------------------------------
 Rotational constants (GHZ):           6.2891268           0.6893837           0.6609582
 Standard basis: 6-311++G(d,p) (5D, 7F)
 There are   233 symmetry adapted cartesian basis functions of A   symmetry.
 There are   225 symmetry adapted basis functions of A   symmetry.
   225 basis functions,   351 primitive gaussians,   233 cartesian basis functions
    31 alpha electrons       30 beta electrons
       nuclear repulsion energy       334.9481711909 Hartrees.
 NAtoms=   15 NActive=   15 NUniq=   15 SFac= 1.00D+00 NAtFMM=   60 NAOKFM=F Big=F
 Integral buffers will be    131072 words long.
 Raffenetti 2 integral format.
 Two-electron integral symmetry is turned on.
 One-electron integrals computed using PRISM.
 NBasis=   225 RedAO= T EigKep=  5.48D-06  NBF=   225
 NBsUse=   224 1.00D-06 EigRej=  4.81D-07 NBFU=   224
 ExpMin= 3.60D-02 ExpMax= 8.59D+03 ExpMxC= 1.30D+03 IAcc=3 IRadAn=         5 AccDes= 0.00D+00
 Harris functional with IExCor=  205 and IRadAn=       5 diagonalized for initial guess.
 HarFok:  IExCor=  205 AccDes= 0.00D+00 IRadAn=         5 IDoV= 1 UseB2=F ITyADJ=14
 ICtDFT=  3500011 ScaDFX=  1.000000  1.000000  1.000000  1.000000
 FoFCou: FMM=F IPFlag=           0 FMFlag=      100000 FMFlg1=           0
         NFxFlg=           0 DoJE=T BraDBF=F KetDBF=T FulRan=T
         wScrn=  0.000000 ICntrl=       500 IOpCl=  0 I1Cent=   200000004 NGrid=           0
         NMat0=    1 NMatS0=      1 NMatT0=    0 NMatD0=    1 NMtDS0=    0 NMtDT0=    0
 Petite list used in FoFCou.
 Initial guess <Sx>= 0.0000 <Sy>= 0.0000 <Sz>= 0.5000 <S**2>= 0.7500 S= 0.5000
 Requested convergence on RMS density matrix=1.00D-08 within 128 cycles.
 Requested convergence on MAX density matrix=1.00D-06.
 Requested convergence on             energy=1.00D-06.
 No special actions if energy rises.
 Initial convergence to 2.9D-05 achieved.  Increase integral accuracy.
 SCF Done:  E(UHF) =  -417.942846563     A.U. after   40 cycles
            NFock= 40  Conv=0.68D-08     -V/T= 2.0007
 <Sx>= 0.0000 <Sy>= 0.0000 <Sz>= 0.5000 <S**2>= 0.9518 S= 0.5963
 <L.S>=  0.00000000000    
 Annihilation of the first spin contaminant:
 S**2 before annihilation     0.9518,   after     0.7824
 ExpMin= 3.60D-02 ExpMax= 8.59D+03 ExpMxC= 1.30D+03 IAcc=3 IRadAn=         5 AccDes= 0.00D+00
 HarFok:  IExCor=  205 AccDes= 0.00D+00 IRadAn=         5 IDoV=-2 UseB2=F ITyADJ=14
 ICtDFT= 12500011 ScaDFX=  1.000000  1.000000  1.000000  1.000000
 Range of M.O.s used for correlation:     9   224
 NBasis=   225 NAE=    31 NBE=    30 NFC=     8 NFV=     0
 NROrb=    216 NOA=    23 NOB=    22 NVA=   193 NVB=   194

 **** Warning!!: The largest alpha MO coefficient is  0.88759154D+02


 **** Warning!!: The largest beta MO coefficient is  0.87014847D+02

 Semi-Direct transformation.
 ModeAB=           4 MOrb=            23 LenV=    1609194732
 LASXX=    107793295 LTotXX=   107793295 LenRXX=   218294035
 LTotAB=   110500740 MaxLAS=   121154616 LenRXY=           0
 NonZer=   326087330 LenScr=   491049984 LnRSAI=   121154616
 LnScr1=   182501376 LExtra=           0 Total=   1013000011
 MaxDsk=          -1 SrtSym=           T ITran=            4
 JobTyp=1 Pass  1:  I=   1 to  23.
 (rs|ai) integrals will be sorted in core.
 ModeAB=           4 MOrb=            22 LenV=    1609194732
 LASXX=    103454307 LTotXX=   103454307 LenRXX=   188091948
 LTotAB=    84637641 MaxLAS=   115887024 LenRXY=           0
 NonZer=   291546255 LenScr=   439034880 LnRSAI=   115887024
 LnScr1=   174582272 LExtra=           0 Total=    917596124
 MaxDsk=          -1 SrtSym=           T ITran=            4
 JobTyp=2 Pass  1:  I=   1 to  22.
 (rs|ai) integrals will be sorted in core.
 SymMOI:  orbitals are not symmetric.
 Spin components of T(2) and E(2):
     alpha-alpha T2 =       0.5314821011D-01 E2=     -0.1715768071D+00
     alpha-beta  T2 =       0.2884068215D+00 E2=     -0.9391782662D+00
     beta-beta   T2 =       0.5153902540D-01 E2=     -0.1600591583D+00
 ANorm=    0.1180294055D+01
 E2 =    -0.1270814232D+01 EUMP2 =    -0.41921366079500D+03
 (S**2,0)=  0.95185D+00           (S**2,1)=  0.89292D+00
 E(PUHF)=      -0.41796104694D+03        E(PMP2)=      -0.41922943034D+03
 Keep R2 and R3 ints in memory in canonical form, NReq=652883968.
 CIDS: In Core Option IDoMem=           1.
 Iterations=  50 Convergence= 0.100D-06
 Produce multiple copies of IABC intergrals
 Iteration Nr.   1
 **********************
 DD1Dir will call FoFMem   1 times, MxPair=      1496
 NAB=   506 NAA=   253 NBB=   231.
 E(PMP3)=      -0.41925116171D+03
 MP4(R+Q)=  0.25165397D-01
 E3=       -0.25716038D-01        EUMP3=      -0.41923937683D+03
 E4(DQ)=   -0.58940984D-02        UMP4(DQ)=   -0.41924527093D+03
 E4(SDQ)=  -0.27566939D-01        UMP4(SDQ)=  -0.41926694377D+03
 DE(Corr)=  -1.2710328     E(Corr)=     -419.21387941    
 NORM(A)=   0.11882424D+01
 Iteration Nr.   2
 **********************
 DD1Dir will call FoFMem   1 times, MxPair=      1496
 NAB=   506 NAA=   253 NBB=   231.
 DE(Corr)=  -1.3154966     E(CORR)=     -419.25834320     Delta=-4.45D-02
 NORM(A)=   0.12102645D+01
 Iteration Nr.   3
 **********************
 DD1Dir will call FoFMem   1 times, MxPair=      1496
 NAB=   506 NAA=   253 NBB=   231.
 DE(Corr)=  -1.3186996     E(CORR)=     -419.26154618     Delta=-3.20D-03
 NORM(A)=   0.12228141D+01
 Iteration Nr.   4
 **********************
 DD1Dir will call FoFMem   1 times, MxPair=      1496
 NAB=   506 NAA=   253 NBB=   231.
 DE(Corr)=  -1.3261821     E(CORR)=     -419.26902866     Delta=-7.48D-03
 NORM(A)=   0.12309879D+01
 Iteration Nr.   5
 **********************
 DD1Dir will call FoFMem   1 times, MxPair=      1496
 NAB=   506 NAA=   253 NBB=   231.
 DE(Corr)=  -1.3283377     E(CORR)=     -419.27118431     Delta=-2.16D-03
 NORM(A)=   0.12356419D+01
 Iteration Nr.   6
 **********************
 DD1Dir will call FoFMem   1 times, MxPair=      1496
 NAB=   506 NAA=   253 NBB=   231.
 DE(Corr)=  -1.3290512     E(CORR)=     -419.27189773     Delta=-7.13D-04
 NORM(A)=   0.12367280D+01
 Iteration Nr.   7
 **********************
 DD1Dir will call FoFMem   1 times, MxPair=      1496
 NAB=   506 NAA=   253 NBB=   231.
 DE(Corr)=  -1.3291878     E(CORR)=     -419.27203439     Delta=-1.37D-04
 NORM(A)=   0.12371390D+01
 Iteration Nr.   8
 **********************
 DD1Dir will call FoFMem   1 times, MxPair=      1496
 NAB=   506 NAA=   253 NBB=   231.
 DE(Corr)=  -1.3291905     E(CORR)=     -419.27203707     Delta=-2.68D-06
 NORM(A)=   0.12373102D+01
 Iteration Nr.   9
 **********************
 DD1Dir will call FoFMem   1 times, MxPair=      1496
 NAB=   506 NAA=   253 NBB=   231.
 DE(Corr)=  -1.3291785     E(CORR)=     -419.27202503     Delta= 1.20D-05
 NORM(A)=   0.12373688D+01
 Iteration Nr.  10
 **********************
 DD1Dir will call FoFMem   1 times, MxPair=      1496
 NAB=   506 NAA=   253 NBB=   231.
 DE(Corr)=  -1.3291793     E(CORR)=     -419.27202583     Delta=-8.07D-07
 NORM(A)=   0.12374189D+01
 Iteration Nr.  11
 **********************
 DD1Dir will call FoFMem   1 times, MxPair=      1496
 NAB=   506 NAA=   253 NBB=   231.
 DE(Corr)=  -1.3291853     E(CORR)=     -419.27203186     Delta=-6.03D-06
 NORM(A)=   0.12374907D+01
 Iteration Nr.  12
 **********************
 DD1Dir will call FoFMem   1 times, MxPair=      1496
 NAB=   506 NAA=   253 NBB=   231.
 DE(Corr)=  -1.3292004     E(CORR)=     -419.27204695     Delta=-1.51D-05
 NORM(A)=   0.12375644D+01
 Iteration Nr.  13
 **********************
 DD1Dir will call FoFMem   1 times, MxPair=      1496
 NAB=   506 NAA=   253 NBB=   231.
 DE(Corr)=  -1.3292139     E(CORR)=     -419.27206046     Delta=-1.35D-05
 NORM(A)=   0.12376225D+01
 Iteration Nr.  14
 **********************
 DD1Dir will call FoFMem   1 times, MxPair=      1496
 NAB=   506 NAA=   253 NBB=   231.
 DE(Corr)=  -1.3292262     E(CORR)=     -419.27207280     Delta=-1.23D-05
 NORM(A)=   0.12376722D+01
 Iteration Nr.  15
 **********************
 DD1Dir will call FoFMem   1 times, MxPair=      1496
 NAB=   506 NAA=   253 NBB=   231.
 DE(Corr)=  -1.3292351     E(CORR)=     -419.27208169     Delta=-8.88D-06
 NORM(A)=   0.12377008D+01
 Iteration Nr.  16
 **********************
 DD1Dir will call FoFMem   1 times, MxPair=      1496
 NAB=   506 NAA=   253 NBB=   231.
 DE(Corr)=  -1.3292399     E(CORR)=     -419.27208646     Delta=-4.78D-06
 NORM(A)=   0.12377176D+01
 Iteration Nr.  17
 **********************
 DD1Dir will call FoFMem   1 times, MxPair=      1496
 NAB=   506 NAA=   253 NBB=   231.
 DE(Corr)=  -1.3292424     E(CORR)=     -419.27208896     Delta=-2.50D-06
 NORM(A)=   0.12377220D+01
 Iteration Nr.  18
 **********************
 DD1Dir will call FoFMem   1 times, MxPair=      1496
 NAB=   506 NAA=   253 NBB=   231.
 DE(Corr)=  -1.3292423     E(CORR)=     -419.27208883     Delta= 1.36D-07
 NORM(A)=   0.12377209D+01
 Iteration Nr.  19
 **********************
 DD1Dir will call FoFMem   1 times, MxPair=      1496
 NAB=   506 NAA=   253 NBB=   231.
 DE(Corr)=  -1.3292414     E(CORR)=     -419.27208792     Delta= 9.05D-07
 NORM(A)=   0.12377176D+01
 Iteration Nr.  20
 **********************
 DD1Dir will call FoFMem   1 times, MxPair=      1496
 NAB=   506 NAA=   253 NBB=   231.
 DE(Corr)=  -1.3292401     E(CORR)=     -419.27208671     Delta= 1.21D-06
 NORM(A)=   0.12377147D+01
 Iteration Nr.  21
 **********************
 DD1Dir will call FoFMem   1 times, MxPair=      1496
 NAB=   506 NAA=   253 NBB=   231.
 DE(Corr)=  -1.3292394     E(CORR)=     -419.27208596     Delta= 7.50D-07
 NORM(A)=   0.12377143D+01
 Iteration Nr.  22
 **********************
 DD1Dir will call FoFMem   1 times, MxPair=      1496
 NAB=   506 NAA=   253 NBB=   231.
 DE(Corr)=  -1.3292394     E(CORR)=     -419.27208592     Delta= 4.32D-08
 NORM(A)=   0.12377152D+01
 Iteration Nr.  23
 **********************
 DD1Dir will call FoFMem   1 times, MxPair=      1496
 NAB=   506 NAA=   253 NBB=   231.
 DE(Corr)=  -1.3292396     E(CORR)=     -419.27208615     Delta=-2.31D-07
 NORM(A)=   0.12377172D+01
 Iteration Nr.  24
 **********************
 DD1Dir will call FoFMem   1 times, MxPair=      1496
 NAB=   506 NAA=   253 NBB=   231.
 DE(Corr)=  -1.3292400     E(CORR)=     -419.27208659     Delta=-4.39D-07
 NORM(A)=   0.12377190D+01
 Iteration Nr.  25
 **********************
 DD1Dir will call FoFMem   1 times, MxPair=      1496
 NAB=   506 NAA=   253 NBB=   231.
 DE(Corr)=  -1.3292404     E(CORR)=     -419.27208692     Delta=-3.33D-07
 NORM(A)=   0.12377202D+01
 Iteration Nr.  26
 **********************
 DD1Dir will call FoFMem   1 times, MxPair=      1496
 NAB=   506 NAA=   253 NBB=   231.
 DE(Corr)=  -1.3292406     E(CORR)=     -419.27208713     Delta=-2.04D-07
 NORM(A)=   0.12377210D+01
 Iteration Nr.  27
 **********************
 DD1Dir will call FoFMem   1 times, MxPair=      1496
 NAB=   506 NAA=   253 NBB=   231.
 DE(Corr)=  -1.3292407     E(CORR)=     -419.27208725     Delta=-1.23D-07
 NORM(A)=   0.12377214D+01
 Iteration Nr.  28
 **********************
 DD1Dir will call FoFMem   1 times, MxPair=      1496
 NAB=   506 NAA=   253 NBB=   231.
 DE(Corr)=  -1.3292407     E(CORR)=     -419.27208730     Delta=-4.85D-08
 NORM(A)=   0.12377215D+01
 Wavefunction amplitudes converged. E(Corr)=     -419.27208730    
 Largest amplitude= 7.63D-02
 Time for triples=    35479.93 seconds.
 T4(CCSD)= -0.59290528D-01
 T5(CCSD)=  0.41838061D-02
 CCSD(T)= -0.41932719402D+03

 S**2, projected HF & approx projected MPn energies after annihilation of
 unwanted spin states (see manual for definitions):

 spins       (S**2,0) (S**2,1)    PUHF        PMP2        PMP3        PMP4
 annihilated
 s+1         0.73125  0.74378 -417.961047 -419.229430 -419.251162
 s+1,s+2     0.75049  0.74993 -417.959605 -419.228078 -419.249923
 s+1 to s+3  0.75000  0.75000 -417.959643 -419.228104 -419.249931
 s+1 to s+4  0.75000  0.75000 -417.959643 -419.228104 -419.249931
 s+1 to s+5  0.75000  0.75000 -417.959643
 s+1 to s+6  0.75000  0.75000 -417.959643

 Discarding MO integrals.

 **********************************************************************

            Population analysis using the SCF density.

 **********************************************************************

 Orbital symmetries:
 Alpha Orbitals:
       Occupied  (A) (A) (A) (A) (A) (A) (A) (A) (A) (A) (A) (A)
                 (A) (A) (A) (A) (A) (A) (A) (A) (A) (A) (A) (A)
                 (A) (A) (A) (A) (A) (A) (A)
       Virtual   (A) (A) (A) (A) (A) (A) (A) (A) (A) (A) (A) (A)
                 (A) (A) (A) (A) (A) (A) (A) (A) (A) (A) (A) (A)
                 (A) (A) (A) (A) (A) (A) (A) (A) (A) (A) (A) (A)
                 (A) (A) (A) (A) (A) (A) (A) (A) (A) (A) (A) (A)
                 (A) (A) (A) (A) (A) (A) (A) (A) (A) (A) (A) (A)
                 (A) (A) (A) (A) (A) (A) (A) (A) (A) (A) (A) (A)
                 (A) (A) (A) (A) (A) (A) (A) (A) (A) (A) (A) (A)
                 (A) (A) (A) (A) (A) (A) (A) (A) (A) (A) (A) (A)
                 (A) (A) (A) (A) (A) (A) (A) (A) (A) (A) (A) (A)
                 (A) (A) (A) (A) (A) (A) (A) (A) (A) (A) (A) (A)
                 (A) (A) (A) (A) (A) (A) (A) (A) (A) (A) (A) (A)
                 (A) (A) (A) (A) (A) (A) (A) (A) (A) (A) (A) (A)
                 (A) (A) (A) (A) (A) (A) (A) (A) (A) (A) (A) (A)
                 (A) (A) (A) (A) (A) (A) (A) (A) (A) (A) (A) (A)
                 (A) (A) (A) (A) (A) (A) (A) (A) (A) (A) (A) (A)
                 (A) (A) (A) (A) (A) (A) (A) (A) (A) (A) (A) (A)
                 (A)
 Beta  Orbitals:
       Occupied  (A) (A) (A) (A) (A) (A) (A) (A) (A) (A) (A) (A)
                 (A) (A) (A) (A) (A) (A) (A) (A) (A) (A) (A) (A)
                 (A) (A) (A) (A) (A) (A)
       Virtual   (A) (A) (A) (A) (A) (A) (A) (A) (A) (A) (A) (A)
                 (A) (A) (A) (A) (A) (A) (A) (A) (A) (A) (A) (A)
                 (A) (A) (A) (A) (A) (A) (A) (A) (A) (A) (A) (A)
                 (A) (A) (A) (A) (A) (A) (A) (A) (A) (A) (A) (A)
                 (A) (A) (A) (A) (A) (A) (A) (A) (A) (A) (A) (A)
                 (A) (A) (A) (A) (A) (A) (A) (A) (A) (A) (A) (A)
                 (A) (A) (A) (A) (A) (A) (A) (A) (A) (A) (A) (A)
                 (A) (A) (A) (A) (A) (A) (A) (A) (A) (A) (A) (A)
                 (A) (A) (A) (A) (A) (A) (A) (A) (A) (A) (A) (A)
                 (A) (A) (A) (A) (A) (A) (A) (A) (A) (A) (A) (A)
                 (A) (A) (A) (A) (A) (A) (A) (A) (A) (A) (A) (A)
                 (A) (A) (A) (A) (A) (A) (A) (A) (A) (A) (A) (A)
                 (A) (A) (A) (A) (A) (A) (A) (A) (A) (A) (A) (A)
                 (A) (A) (A) (A) (A) (A) (A) (A) (A) (A) (A) (A)
                 (A) (A) (A) (A) (A) (A) (A) (A) (A) (A) (A) (A)
                 (A) (A) (A) (A) (A) (A) (A) (A) (A) (A) (A) (A)
                 (A) (A)
 The electronic state is 2-A.
 Alpha  occ. eigenvalues --  -20.67860 -20.61199 -20.55675 -11.41426 -11.29675
 Alpha  occ. eigenvalues --  -11.27563 -11.24438 -11.22540  -1.47985  -1.45434
 Alpha  occ. eigenvalues --   -1.37630  -1.07084  -1.03979  -0.92473  -0.84617
 Alpha  occ. eigenvalues --   -0.81345  -0.75766  -0.72351  -0.69256  -0.66174
 Alpha  occ. eigenvalues --   -0.63370  -0.61437  -0.58316  -0.56713  -0.54501
 Alpha  occ. eigenvalues --   -0.53963  -0.50487  -0.47645  -0.46046  -0.42781
 Alpha  occ. eigenvalues --   -0.42539
 Alpha virt. eigenvalues --    0.03844   0.04415   0.06009   0.06561   0.07189
 Alpha virt. eigenvalues --    0.08310   0.09371   0.09565   0.11671   0.12665
 Alpha virt. eigenvalues --    0.13637   0.13840   0.14825   0.15729   0.16484
 Alpha virt. eigenvalues --    0.17466   0.18396   0.18835   0.18998   0.19452
 Alpha virt. eigenvalues --    0.20312   0.21267   0.22682   0.22920   0.23972
 Alpha virt. eigenvalues --    0.25333   0.26086   0.27050   0.28285   0.28516
 Alpha virt. eigenvalues --    0.30085   0.31202   0.31807   0.33380   0.33836
 Alpha virt. eigenvalues --    0.35266   0.36571   0.36910   0.37763   0.39430
 Alpha virt. eigenvalues --    0.40362   0.41349   0.42098   0.42849   0.43545
 Alpha virt. eigenvalues --    0.45777   0.46310   0.47203   0.49181   0.50412
 Alpha virt. eigenvalues --    0.53226   0.57030   0.58124   0.60479   0.62637
 Alpha virt. eigenvalues --    0.63562   0.67654   0.70369   0.71042   0.74361
 Alpha virt. eigenvalues --    0.76377   0.78973   0.79506   0.83337   0.84680
 Alpha virt. eigenvalues --    0.85739   0.87505   0.89487   0.89661   0.89849
 Alpha virt. eigenvalues --    0.91233   0.93877   0.94805   0.97671   0.98765
 Alpha virt. eigenvalues --    1.07656   1.10197   1.12292   1.18174   1.19681
 Alpha virt. eigenvalues --    1.20972   1.23445   1.25090   1.28766   1.33032
 Alpha virt. eigenvalues --    1.35158   1.36810   1.38809   1.39785   1.41690
 Alpha virt. eigenvalues --    1.42935   1.45052   1.48263   1.50196   1.52170
 Alpha virt. eigenvalues --    1.54868   1.56854   1.58146   1.59867   1.63839
 Alpha virt. eigenvalues --    1.67312   1.70661   1.73246   1.78458   1.80111
 Alpha virt. eigenvalues --    1.81407   1.83197   1.84663   1.85925   1.88607
 Alpha virt. eigenvalues --    1.90779   1.92898   1.94137   1.96474   1.98995
 Alpha virt. eigenvalues --    2.02014   2.04807   2.08338   2.11558   2.15981
 Alpha virt. eigenvalues --    2.20223   2.23632   2.27949   2.30261   2.33658
 Alpha virt. eigenvalues --    2.38489   2.41397   2.48801   2.60182   2.62121
 Alpha virt. eigenvalues --    2.64082   2.72608   2.77716   2.79307   2.82601
 Alpha virt. eigenvalues --    2.84723   2.85190   2.92583   2.92710   2.95847
 Alpha virt. eigenvalues --    2.98622   3.01613   3.03565   3.06299   3.10554
 Alpha virt. eigenvalues --    3.14942   3.16149   3.24110   3.27383   3.27911
 Alpha virt. eigenvalues --    3.30708   3.34086   3.35580   3.37177   3.41787
 Alpha virt. eigenvalues --    3.42757   3.46752   3.48306   3.52248   3.59384
 Alpha virt. eigenvalues --    3.64133   3.67259   3.73090   3.79404   3.94359
 Alpha virt. eigenvalues --    3.96796   4.02556   4.10124   4.20523   4.21541
 Alpha virt. eigenvalues --    4.22679   4.27358   4.40516   4.47905   4.55480
 Alpha virt. eigenvalues --    4.66892   5.46272   5.58517   5.63656   5.70724
 Alpha virt. eigenvalues --    5.76466   5.91404   6.00299   6.20958   6.43281
 Alpha virt. eigenvalues --   24.57107  25.00445  25.01634  25.14558  26.14882
 Alpha virt. eigenvalues --   51.47069  51.60042  51.71551
  Beta  occ. eigenvalues --  -20.64328 -20.61216 -20.56088 -11.41119 -11.29680
  Beta  occ. eigenvalues --  -11.25723 -11.24548 -11.22541  -1.48193  -1.38301
  Beta  occ. eigenvalues --   -1.32634  -1.07231  -1.03014  -0.91363  -0.82734
  Beta  occ. eigenvalues --   -0.76022  -0.73865  -0.69653  -0.66536  -0.63684
  Beta  occ. eigenvalues --   -0.61657  -0.58536  -0.55369  -0.54925  -0.54109
  Beta  occ. eigenvalues --   -0.50594  -0.48372  -0.47091  -0.41834  -0.41483
  Beta virt. eigenvalues --    0.00531   0.04332   0.05348   0.06004   0.06593
  Beta virt. eigenvalues --    0.07262   0.08368   0.09400   0.10071   0.12042
  Beta virt. eigenvalues --    0.12895   0.13706   0.14152   0.15103   0.15701
  Beta virt. eigenvalues --    0.16644   0.17798   0.18689   0.18904   0.19136
  Beta virt. eigenvalues --    0.19539   0.20400   0.21602   0.22955   0.23660
  Beta virt. eigenvalues --    0.24169   0.25583   0.26537   0.27379   0.28407
  Beta virt. eigenvalues --    0.28860   0.30190   0.31737   0.31957   0.33398
  Beta virt. eigenvalues --    0.34046   0.35567   0.36695   0.36899   0.37903
  Beta virt. eigenvalues --    0.39429   0.40251   0.41261   0.42744   0.43284
  Beta virt. eigenvalues --    0.43837   0.45955   0.46949   0.47655   0.49633
  Beta virt. eigenvalues --    0.50710   0.53286   0.57761   0.58319   0.60443
  Beta virt. eigenvalues --    0.63056   0.63585   0.68056   0.70555   0.72284
  Beta virt. eigenvalues --    0.75043   0.78007   0.79575   0.80550   0.83388
  Beta virt. eigenvalues --    0.84208   0.85914   0.87476   0.89328   0.89657
  Beta virt. eigenvalues --    0.90293   0.92210   0.94236   0.94945   0.98115
  Beta virt. eigenvalues --    1.00751   1.07215   1.10305   1.12390   1.18933
  Beta virt. eigenvalues --    1.21290   1.22510   1.24709   1.26721   1.31748
  Beta virt. eigenvalues --    1.34833   1.36432   1.37392   1.38995   1.39507
  Beta virt. eigenvalues --    1.42395   1.42639   1.45134   1.48547   1.51267
  Beta virt. eigenvalues --    1.52737   1.55038   1.57864   1.59165   1.60496
  Beta virt. eigenvalues --    1.64413   1.68338   1.71371   1.73257   1.80053
  Beta virt. eigenvalues --    1.80502   1.81624   1.83290   1.84999   1.86450
  Beta virt. eigenvalues --    1.88840   1.90774   1.93183   1.94132   1.96469
  Beta virt. eigenvalues --    1.99038   2.02971   2.04745   2.08612   2.11911
  Beta virt. eigenvalues --    2.17122   2.20634   2.24342   2.28523   2.31012
  Beta virt. eigenvalues --    2.33893   2.39413   2.41585   2.48815   2.60303
  Beta virt. eigenvalues --    2.63314   2.64191   2.73172   2.79335   2.79887
  Beta virt. eigenvalues --    2.82615   2.84763   2.85592   2.92624   2.92749
  Beta virt. eigenvalues --    2.95880   2.98833   3.01852   3.04318   3.06377
  Beta virt. eigenvalues --    3.10557   3.14846   3.17179   3.24226   3.27452
  Beta virt. eigenvalues --    3.29990   3.32873   3.34651   3.36432   3.37982
  Beta virt. eigenvalues --    3.42806   3.44368   3.46952   3.49654   3.57376
  Beta virt. eigenvalues --    3.59423   3.64389   3.68502   3.73422   3.78801
  Beta virt. eigenvalues --    3.97043   3.98502   4.03548   4.10409   4.21318
  Beta virt. eigenvalues --    4.22632   4.25615   4.27602   4.40588   4.48210
  Beta virt. eigenvalues --    4.55555   4.66883   5.49285   5.58422   5.62574
  Beta virt. eigenvalues --    5.76208   5.79673   5.91382   6.02974   6.20839
  Beta virt. eigenvalues --    6.43192  24.57931  25.00701  25.01640  25.14560
  Beta virt. eigenvalues --   26.15482  51.49064  51.60016  51.71322
          Condensed to atoms (all electrons):
               1          2          3          4          5          6
     1  O    7.802210   0.290978  -0.019235   0.136381  -0.032460   0.018013
     2  H    0.290978   0.429854   0.034813  -0.040540   0.004137   0.002878
     3  C   -0.019235   0.034813   5.935113   0.209786  -0.553010   1.224181
     4  H    0.136381  -0.040540   0.209786   0.318958  -0.090428   0.046574
     5  C   -0.032460   0.004137  -0.553010  -0.090428  12.029907  -6.311164
     6  C    0.018013   0.002878   1.224181   0.046574  -6.311164  11.634511
     7  O    0.000043  -0.000134  -0.072827  -0.000401   0.260652   0.184807
     8  O    0.000170   0.000045  -0.078346  -0.002720  -0.196809   0.100951
     9  C    0.000071  -0.000092   0.024372   0.000315  -0.337312   0.135489
    10  C    0.000002   0.000007  -0.013537  -0.000275   0.015345  -0.084142
    11  H    0.000014   0.000001   0.002739   0.000052  -0.015912   0.011935
    12  H    0.000015   0.000000   0.000536  -0.000013  -0.018788   0.006197
    13  H   -0.000003  -0.000001  -0.001673  -0.000031   0.007982  -0.011443
    14  H    0.000010   0.000002   0.001168   0.000018  -0.001010   0.001284
    15  H    0.000007  -0.000000   0.002646  -0.000036  -0.036347   0.020543
               7          8          9         10         11         12
     1  O    0.000043   0.000170   0.000071   0.000002   0.000014   0.000015
     2  H   -0.000134   0.000045  -0.000092   0.000007   0.000001   0.000000
     3  C   -0.072827  -0.078346   0.024372  -0.013537   0.002739   0.000536
     4  H   -0.000401  -0.002720   0.000315  -0.000275   0.000052  -0.000013
     5  C    0.260652  -0.196809  -0.337312   0.015345  -0.015912  -0.018788
     6  C    0.184807   0.100951   0.135489  -0.084142   0.011935   0.006197
     7  O    8.071613  -0.110089   0.036477  -0.062409   0.002565  -0.023740
     8  O   -0.110089   8.329553   0.221393  -0.078613  -0.080969  -0.015282
     9  C    0.036477   0.221393   5.337482  -0.035715   0.441155   0.442586
    10  C   -0.062409  -0.078613  -0.035715   5.473423  -0.049014  -0.037548
    11  H    0.002565  -0.080969   0.441155  -0.049014   0.554082  -0.035472
    12  H   -0.023740  -0.015282   0.442586  -0.037548  -0.035472   0.513790
    13  H   -0.001078   0.017475  -0.044192   0.405903   0.000526  -0.004258
    14  H    0.002918  -0.007217  -0.029172   0.416194  -0.005670  -0.000280
    15  H   -0.002139  -0.014017  -0.028949   0.409883   0.007512  -0.002597
              13         14         15
     1  O   -0.000003   0.000010   0.000007
     2  H   -0.000001   0.000002  -0.000000
     3  C   -0.001673   0.001168   0.002646
     4  H   -0.000031   0.000018  -0.000036
     5  C    0.007982  -0.001010  -0.036347
     6  C   -0.011443   0.001284   0.020543
     7  O   -0.001078   0.002918  -0.002139
     8  O    0.017475  -0.007217  -0.014017
     9  C   -0.044192  -0.029172  -0.028949
    10  C    0.405903   0.416194   0.409883
    11  H    0.000526  -0.005670   0.007512
    12  H   -0.004258  -0.000280  -0.002597
    13  H    0.563194  -0.032302  -0.034168
    14  H   -0.032302   0.555343  -0.045746
    15  H   -0.034168  -0.045746   0.550112
          Atomic-Atomic Spin Densities.
               1          2          3          4          5          6
     1  O    0.856281   0.005496  -0.058499  -0.007050  -0.027620   0.018894
     2  H    0.005496  -0.037062  -0.002946   0.003482  -0.000780  -0.001284
     3  C   -0.058499  -0.002946   1.280458  -0.033760  -0.176944   0.098069
     4  H   -0.007050   0.003482  -0.033760  -0.098744  -0.004143   0.006825
     5  C   -0.027620  -0.000780  -0.176944  -0.004143  -0.211478  -0.392933
     6  C    0.018894  -0.001284   0.098069   0.006825  -0.392933   0.406039
     7  O    0.000076   0.000000   0.000590  -0.000172  -0.003243   0.031586
     8  O    0.000008  -0.000003  -0.003848  -0.000070   0.067745  -0.067515
     9  C    0.000065   0.000014   0.001987  -0.000326  -0.002322   0.008069
    10  C    0.000005   0.000011  -0.001007  -0.000123  -0.001050  -0.000425
    11  H    0.000012  -0.000002   0.000625  -0.000004  -0.001888   0.002146
    12  H    0.000003  -0.000000  -0.000464  -0.000011   0.004711  -0.003349
    13  H   -0.000001   0.000001  -0.000151  -0.000011   0.000669  -0.000074
    14  H   -0.000002  -0.000002  -0.000080   0.000024   0.001502  -0.001556
    15  H    0.000013   0.000000   0.000185  -0.000037  -0.000727   0.001136
               7          8          9         10         11         12
     1  O    0.000076   0.000008   0.000065   0.000005   0.000012   0.000003
     2  H    0.000000  -0.000003   0.000014   0.000011  -0.000002  -0.000000
     3  C    0.000590  -0.003848   0.001987  -0.001007   0.000625  -0.000464
     4  H   -0.000172  -0.000070  -0.000326  -0.000123  -0.000004  -0.000011
     5  C   -0.003243   0.067745  -0.002322  -0.001050  -0.001888   0.004711
     6  C    0.031586  -0.067515   0.008069  -0.000425   0.002146  -0.003349
     7  O   -0.116333   0.000514   0.003402  -0.001508   0.000316   0.000094
     8  O    0.000514   0.008880  -0.006055   0.004060  -0.000354  -0.000032
     9  C    0.003402  -0.006055   0.000686  -0.000861  -0.000609  -0.002065
    10  C   -0.001508   0.004060  -0.000861  -0.002573   0.000778   0.001027
    11  H    0.000316  -0.000354  -0.000609   0.000778  -0.000689  -0.000294
    12  H    0.000094  -0.000032  -0.002065   0.001027  -0.000294   0.000383
    13  H    0.000056  -0.000010  -0.000279  -0.000144  -0.000027   0.000116
    14  H   -0.000086  -0.000107  -0.000529   0.001063  -0.000041  -0.000033
    15  H    0.000191  -0.000859   0.000268   0.000128  -0.000137  -0.000109
              13         14         15
     1  O   -0.000001  -0.000002   0.000013
     2  H    0.000001  -0.000002   0.000000
     3  C   -0.000151  -0.000080   0.000185
     4  H   -0.000011   0.000024  -0.000037
     5  C    0.000669   0.001502  -0.000727
     6  C   -0.000074  -0.001556   0.001136
     7  O    0.000056  -0.000086   0.000191
     8  O   -0.000010  -0.000107  -0.000859
     9  C   -0.000279  -0.000529   0.000268
    10  C   -0.000144   0.001063   0.000128
    11  H   -0.000027  -0.000041  -0.000137
    12  H    0.000116  -0.000033  -0.000109
    13  H   -0.000485   0.000220   0.000031
    14  H    0.000220  -0.000396  -0.000086
    15  H    0.000031  -0.000086  -0.000100
 Mulliken charges and spin densities:
               1          2
     1  O   -0.196217   0.787682
     2  H    0.278049  -0.033075
     3  C   -0.696726   1.104215
     4  H    0.422359  -0.134120
     5  C    1.275216  -0.748501
     6  C   -0.980615   0.105627
     7  O   -0.286259  -0.084516
     8  O   -0.085526   0.002355
     9  C   -0.163909   0.001444
    10  C   -0.359505  -0.000620
    11  H    0.166457  -0.000169
    12  H    0.174852  -0.000023
    13  H    0.134067  -0.000089
    14  H    0.144461  -0.000108
    15  H    0.173295  -0.000102
 Sum of Mulliken charges =  -0.00000   1.00000
 Mulliken charges and spin densities with hydrogens summed into heavy atoms:
               1          2
     1  O    0.504191   0.620487
     3  C   -0.696726   1.104215
     5  C    1.275216  -0.748501
     6  C   -0.980615   0.105627
     7  O   -0.286259  -0.084516
     8  O   -0.085526   0.002355
     9  C    0.177400   0.001252
    10  C    0.092318  -0.000919
 Electronic spatial extent (au):  <R**2>=           1672.3751
 Charge=             -0.0000 electrons
 Dipole moment (field-independent basis, Debye):
    X=              0.4550    Y=             -0.4491    Z=             -0.8063  Tot=              1.0290
 Quadrupole moment (field-independent basis, Debye-Ang):
   XX=            -29.1839   YY=            -52.9175   ZZ=            -48.1112
   XY=              8.1272   XZ=             -2.2235   YZ=             -0.4596
 Traceless Quadrupole moment (field-independent basis, Debye-Ang):
   XX=             14.2203   YY=             -9.5133   ZZ=             -4.7070
   XY=              8.1272   XZ=             -2.2235   YZ=             -0.4596
 Octapole moment (field-independent basis, Debye-Ang**2):
  XXX=             41.3083  YYY=             -6.1417  ZZZ=             -1.7118  XYY=              8.7969
  XXY=             26.2638  XXZ=            -17.1512  XZZ=             -3.8580  YZZ=              1.4826
  YYZ=              0.1851  XYZ=             -0.6899
 Hexadecapole moment (field-independent basis, Debye-Ang**3):
 XXXX=          -1464.3057 YYYY=           -191.6013 ZZZZ=           -123.0821 XXXY=            155.6060
 XXXZ=            -41.6849 YYYX=             11.0676 YYYZ=              0.8333 ZZZX=              8.0015
 ZZZY=             -0.0340 XXYY=           -308.1462 XXZZ=           -335.1846 YYZZ=            -47.9282
 XXYZ=              1.3615 YYXZ=              3.6334 ZZXY=              0.9176
 N-N= 3.349481711909D+02 E-N=-1.652575070763D+03  KE= 4.176401954036D+02
 1\1\GINC-AJ\SP\UCCSD(T)-FC\6-311++G(d,p)\C5H7O3(2)\AAYUSH\02-Jul-2025\
 0\\# ccsd(t)/6-311++g(d,p) sp\\Title Card Required\\0,2\O,0,4.560561,-
 0.256769,0.320732\H,0,4.608118,0.64833,-0.029009\C,0,2.265527,-0.31312
 9,-0.077114\H,0,3.496192,-0.621679,-0.047643\C,0,1.106358,0.024073,-0.
 106299\C,0,-0.302148,0.403126,-0.189045\O,0,-0.688972,1.53182,-0.06285
 6\O,0,-1.072582,-0.656727,-0.424507\C,0,-2.491314,-0.40539,-0.509775\C
 ,0,-3.106102,-0.282747,0.870451\H,0,-2.878722,-1.2679,-1.048884\H,0,-2
 .651003,0.496764,-1.101337\H,0,-4.187956,-0.168526,0.779074\H,0,-2.901
 359,-1.178167,1.459044\H,0,-2.711264,0.588985,1.392487\\Version=ES64L-
 G16RevA.03\State=2-A\HF=-417.9428466\MP2=-419.2136608\MP3=-419.2393768
 \MP4D=-419.2704363\MP4DQ=-419.2452709\PUHF=-417.9610469\PMP2-0=-419.22
 94303\PMP3-0=-419.2511617\MP4SDQ=-419.2669438\CCSD=-419.2720873\CCSD(T
 )=-419.327194\S2=0.95185\S2-1=0.892924\S2A=0.782361\RMSD=6.850e-09\PG=
 C01 [X(C5H7O3)]\\@


 IF GOD HAD MEANT MAN TO SEE THE SUN RISE, HE
 WOULD HAVE SCHEDULED IT FOR A LATER HOUR.
 Job cpu time:       0 days 20 hours  9 minutes 54.0 seconds.
 Elapsed time:       0 days  0 hours 50 minutes 37.0 seconds.
 File lengths (MBytes):  RWF=  44258 Int=      0 D2E=      0 Chk=      9 Scr=      1
 Normal termination of Gaussian 16 at Wed Jul  2 14:01:02 2025.
