 Entering Gaussian System, Link 0=g16
 Initial command:
 /opt/g16/l1.exe "/home/aayush/scratches/g16/Gau-4932.inp" -scrdir="/home/aayush/scratches/g16/"
 Entering Link 1 = /opt/g16/l1.exe PID=      4935.
  
 Copyright (c) 1988,1990,1992,1993,1995,1998,2003,2009,2016,
            Gaussian, Inc.  All Rights Reserved.
  
 This is part of the Gaussian(R) 16 program.  It is based on
 the Gaussian(R) 09 system (copyright 2009, Gaussian, Inc.),
 the Gaussian(R) 03 system (copyright 2003, Gaussian, Inc.),
 the Gaussian(R) 98 system (copyright 1998, Gaussian, Inc.),
 the Gaussian(R) 94 system (copyright 1995, Gaussian, Inc.),
 the Gaussian 92(TM) system (copyright 1992, Gaussian, Inc.),
 the Gaussian 90(TM) system (copyright 1990, Gaussian, Inc.),
 the Gaussian 88(TM) system (copyright 1988, Gaussian, Inc.),
 the Gaussian 86(TM) system (copyright 1986, Carnegie Mellon
 University), and the Gaussian 82(TM) system (copyright 1983,
 Carnegie Mellon University). Gaussian is a federally registered
 trademark of Gaussian, Inc.
  
 This software contains proprietary and confidential information,
 including trade secrets, belonging to Gaussian, Inc.
  
 This software is provided under written license and may be
 used, copied, transmitted, or stored only in accord with that
 written license.
  
 The following legend is applicable only to US Government
 contracts under FAR:
  
                    RESTRICTED RIGHTS LEGEND
  
 Use, reproduction and disclosure by the US Government is
 subject to restrictions as set forth in subparagraphs (a)
 and (c) of the Commercial Computer Software - Restricted
 Rights clause in FAR 52.227-19.
  
 Gaussian, Inc.
 340 Quinnipiac St., Bldg. 40, Wallingford CT 06492
  
  
 ---------------------------------------------------------------
 Warning -- This program may not be used in any manner that
 competes with the business of Gaussian, Inc. or will provide
 assistance to any competitor of Gaussian, Inc.  The licensee
 of this program is prohibited from giving any competitor of
 Gaussian, Inc. access to this program.  By using this program,
 the user acknowledges that Gaussian, Inc. is engaged in the
 business of creating and licensing software in the field of
 computational chemistry and represents and warrants to the
 licensee that it is not a competitor of Gaussian, Inc. and that
 it will not use this program in any manner prohibited above.
 ---------------------------------------------------------------
  

 Cite this work as:
 Gaussian 16, Revision A.03,
 M. J. Frisch, G. W. Trucks, H. B. Schlegel, G. E. Scuseria, 
 M. A. Robb, J. R. Cheeseman, G. Scalmani, V. Barone, 
 G. A. Petersson, H. Nakatsuji, X. Li, M. Caricato, A. V. Marenich, 
 J. Bloino, B. G. Janesko, R. Gomperts, B. Mennucci, H. P. Hratchian, 
 J. V. Ortiz, A. F. Izmaylov, J. L. Sonnenberg, D. Williams-Young, 
 F. Ding, F. Lipparini, F. Egidi, J. Goings, B. Peng, A. Petrone, 
 T. Henderson, D. Ranasinghe, V. G. Zakrzewski, J. Gao, N. Rega, 
 G. Zheng, W. Liang, M. Hada, M. Ehara, K. Toyota, R. Fukuda, 
 J. Hasegawa, M. Ishida, T. Nakajima, Y. Honda, O. Kitao, H. Nakai, 
 T. Vreven, K. Throssell, J. A. Montgomery, Jr., J. E. Peralta, 
 F. Ogliaro, M. J. Bearpark, J. J. Heyd, E. N. Brothers, K. N. Kudin, 
 V. N. Staroverov, T. A. Keith, R. Kobayashi, J. Normand, 
 K. Raghavachari, A. P. Rendell, J. C. Burant, S. S. Iyengar, 
 J. Tomasi, M. Cossi, J. M. Millam, M. Klene, C. Adamo, R. Cammi, 
 J. W. Ochterski, R. L. Martin, K. Morokuma, O. Farkas, 
 J. B. Foresman, and D. J. Fox, Gaussian, Inc., Wallingford CT, 2016.
 
 ******************************************
 Gaussian 16:  ES64L-G16RevA.03 25-Dec-2016
                23-Jun-2025 
 ******************************************
 %nprocshared=24
 Will use up to   24 processors via shared memory.
 %mem=12GB
 %chk=ethyl_propiolate_ts1.chk
 --------------------------
 # freq 6-311++g(d,p) m062x
 --------------------------
 1/10=4,30=1,38=1/1,3;
 2/12=2,17=6,18=5,40=1/2;
 3/5=4,6=6,7=1111,11=2,25=1,30=1,71=2,74=-55,140=1/1,2,3;
 4//1;
 5/5=2,38=5,98=1/2;
 8/6=4,10=90,11=11/1;
 11/6=1,8=1,9=11,15=111,16=1/1,2,10;
 10/6=1/2;
 6/7=2,8=2,9=2,10=2,28=1/1;
 7/8=1,10=1,25=1/1,2,3,16;
 1/10=4,30=1/3;
 99//99;
 -------------------
 Title Card Required
 -------------------
 Symbolic Z-matrix:
 Charge =  0 Multiplicity = 2
 O                     4.56552  -0.25644   0.32119 
 H                     4.61291   0.65068  -0.02741 
 C                     2.26683  -0.31423  -0.07763 
 H                     3.39177  -0.62733  -0.05835 
 C                     1.10862   0.02271  -0.10669 
 C                    -0.30037   0.4032   -0.18898 
 O                    -0.68791   1.53196  -0.06394 
 O                    -1.07193  -0.65682  -0.42375 
 C                    -2.49052  -0.40519  -0.509 
 C                    -3.10522  -0.28133   0.8712 
 H                    -2.87834  -1.26803  -1.04736 
 H                    -2.65023   0.49656  -1.1012 
 H                    -4.18708  -0.16694   0.77992 
 H                    -2.90056  -1.17633   1.46048 
 H                    -2.71003   0.59072   1.39244 
 

 GradGradGradGradGradGradGradGradGradGradGradGradGradGradGradGradGradGrad
 Berny optimization.
 Initialization pass.
 Trust Radius=3.00D-01 FncErr=1.00D-07 GrdErr=1.00D-07 EigMax=2.50D+02 EigMin=1.00D-04
 Number of steps in this run=      2 maximum allowed number of steps=      2.
 GradGradGradGradGradGradGradGradGradGradGradGradGradGradGradGradGradGrad

                          Input orientation:                          
 ---------------------------------------------------------------------
 Center     Atomic      Atomic             Coordinates (Angstroms)
 Number     Number       Type             X           Y           Z
 ---------------------------------------------------------------------
      1          8           0        4.565524   -0.256439    0.321194
      2          1           0        4.612907    0.650683   -0.027414
      3          6           0        2.266834   -0.314229   -0.077628
      4          1           0        3.391773   -0.627332   -0.058349
      5          6           0        1.108621    0.022707   -0.106693
      6          6           0       -0.300371    0.403203   -0.188976
      7          8           0       -0.687907    1.531961   -0.063936
      8          8           0       -1.071932   -0.656815   -0.423747
      9          6           0       -2.490519   -0.405188   -0.509004
     10          6           0       -3.105218   -0.281326    0.871199
     11          1           0       -2.878337   -1.268029   -1.047362
     12          1           0       -2.650231    0.496559   -1.101198
     13          1           0       -4.187082   -0.166939    0.779922
     14          1           0       -2.900558   -1.176328    1.460479
     15          1           0       -2.710032    0.590717    1.392444
 ---------------------------------------------------------------------
                    Distance matrix (angstroms):
                    1          2          3          4          5
     1  O    0.000000
     2  H    0.972956   0.000000
     3  C    2.333747   2.537250   0.000000
     4  H    1.288140   1.767894   1.167858   0.000000
     5  C    3.494451   3.560991   1.206577   2.374378   0.000000
     6  C    4.936835   4.922159   2.667892   3.835491   1.461782
     7  O    5.562844   5.373696   3.484121   4.615882   2.346740
     8  O    5.700539   5.846711   3.374096   4.478733   2.305880
     9  C    7.106272   7.197601   4.777737   5.903710   3.646746
    10  C    7.690475   7.825957   5.455300   6.572265   4.336490
    11  H    7.635923   7.800031   5.321927   6.379884   4.294961
    12  H    7.393059   7.343701   5.087495   6.233496   3.916956
    13  H    8.765076   8.874689   6.512305   7.638960   5.372757
    14  H    7.608321   7.874259   5.459938   6.496281   4.468471
    15  H    7.402632   7.459560   5.267754   6.389090   4.141516
                    6          7          8          9         10
     6  C    0.000000
     7  O    1.199964   0.000000
     8  O    1.331939   2.251151   0.000000
     9  C    2.356409   2.683289   1.443251   0.000000
    10  C    3.075665   3.163207   2.439699   1.515967   0.000000
    11  H    3.189945   3.688503   2.006384   1.088452   2.169317
    12  H    2.522441   2.449221   2.068874   1.090573   2.168518
    13  H    4.046029   3.980274   3.375345   2.143926   1.091717
    14  H    3.460721   3.815035   2.676579   2.154449   1.090947
    15  H    2.888342   2.663827   2.745589   2.157665   1.090104
                   11         12         13         14         15
    11  H    0.000000
    12  H    1.780085   0.000000
    13  H    2.502834   2.518085   0.000000
    14  H    2.509615   3.069756   1.771205   0.000000
    15  H    3.071794   2.496135   1.769436   1.778588   0.000000
 Stoichiometry    C5H7O3(2)
 Framework group  C1[X(C5H7O3)]
 Deg. of freedom    39
 Full point group                 C1      NOp   1
 Largest Abelian subgroup         C1      NOp   1
 Largest concise Abelian subgroup C1      NOp   1
                         Standard orientation:                         
 ---------------------------------------------------------------------
 Center     Atomic      Atomic             Coordinates (Angstroms)
 Number     Number       Type             X           Y           Z
 ---------------------------------------------------------------------
      1          8           0        4.565524   -0.256439    0.321194
      2          1           0        4.612907    0.650683   -0.027414
      3          6           0        2.266834   -0.314229   -0.077628
      4          1           0        3.391773   -0.627332   -0.058349
      5          6           0        1.108621    0.022707   -0.106693
      6          6           0       -0.300371    0.403203   -0.188976
      7          8           0       -0.687907    1.531961   -0.063936
      8          8           0       -1.071932   -0.656815   -0.423747
      9          6           0       -2.490519   -0.405188   -0.509004
     10          6           0       -3.105218   -0.281326    0.871199
     11          1           0       -2.878337   -1.268029   -1.047362
     12          1           0       -2.650231    0.496559   -1.101198
     13          1           0       -4.187082   -0.166939    0.779922
     14          1           0       -2.900558   -1.176328    1.460479
     15          1           0       -2.710032    0.590717    1.392444
 ---------------------------------------------------------------------
 Rotational constants (GHZ):           6.2877223           0.6894074           0.6609795
 Standard basis: 6-311++G(d,p) (5D, 7F)
 There are   233 symmetry adapted cartesian basis functions of A   symmetry.
 There are   225 symmetry adapted basis functions of A   symmetry.
   225 basis functions,   351 primitive gaussians,   233 cartesian basis functions
    31 alpha electrons       30 beta electrons
       nuclear repulsion energy       334.9167484438 Hartrees.
 NAtoms=   15 NActive=   15 NUniq=   15 SFac= 1.00D+00 NAtFMM=   60 NAOKFM=F Big=F
 Integral buffers will be    131072 words long.
 Raffenetti 2 integral format.
 Two-electron integral symmetry is turned on.
 One-electron integrals computed using PRISM.
 NBasis=   225 RedAO= T EigKep=  5.69D-06  NBF=   225
 NBsUse=   224 1.00D-06 EigRej=  5.15D-07 NBFU=   224
 ExpMin= 3.60D-02 ExpMax= 8.59D+03 ExpMxC= 1.30D+03 IAcc=3 IRadAn=         5 AccDes= 0.00D+00
 Harris functional with IExCor= 1009 and IRadAn=       5 diagonalized for initial guess.
 HarFok:  IExCor= 1009 AccDes= 0.00D+00 IRadAn=         5 IDoV= 1 UseB2=F ITyADJ=14
 ICtDFT=  3500011 ScaDFX=  1.000000  1.000000  1.000000  1.000000
 FoFCou: FMM=F IPFlag=           0 FMFlag=      100000 FMFlg1=           0
         NFxFlg=           0 DoJE=T BraDBF=F KetDBF=T FulRan=T
         wScrn=  0.000000 ICntrl=       500 IOpCl=  0 I1Cent=   200000004 NGrid=           0
         NMat0=    1 NMatS0=      1 NMatT0=    0 NMatD0=    1 NMtDS0=    0 NMtDT0=    0
 Petite list used in FoFCou.
 Initial guess <Sx>= 0.0000 <Sy>= 0.0000 <Sz>= 0.5000 <S**2>= 0.7500 S= 0.5000
 Requested convergence on RMS density matrix=1.00D-08 within 128 cycles.
 Requested convergence on MAX density matrix=1.00D-06.
 Requested convergence on             energy=1.00D-06.
 No special actions if energy rises.
 Restarting incremental Fock formation.
 SCF Done:  E(UM062X) =  -420.182954167     A.U. after   22 cycles
            NFock= 22  Conv=0.72D-08     -V/T= 2.0032
 <Sx>= 0.0000 <Sy>= 0.0000 <Sz>= 0.5000 <S**2>= 0.7567 S= 0.5034
 <L.S>=  0.00000000000    
 Annihilation of the first spin contaminant:
 S**2 before annihilation     0.7567,   after     0.7500
 DoSCS=F DFT=T ScalE2(SS,OS)=  1.000000  1.000000
 Range of M.O.s used for correlation:     1   224
 NBasis=   225 NAE=    31 NBE=    30 NFC=     0 NFV=     0
 NROrb=    224 NOA=    31 NOB=    30 NVA=   193 NVB=   194

 **** Warning!!: The largest alpha MO coefficient is  0.79974785D+02


 **** Warning!!: The largest beta MO coefficient is  0.77769168D+02

 Symmetrizing basis deriv contribution to polar:
 IMax=3 JMax=2 DiffMx= 0.00D+00
 G2DrvN: will do    16 centers at a time, making    1 passes.
 Calling FoFCou, ICntrl=  3107 FMM=F I1Cent=   0 AccDes= 0.00D+00.
 End of G2Drv F.D. properties file   721 does not exist.
 End of G2Drv F.D. properties file   722 does not exist.
 End of G2Drv F.D. properties file   788 does not exist.
          IDoAtm=111111111111111
          Differentiating once with respect to electric field.
                with respect to dipole field.
          Differentiating once with respect to nuclear coordinates.
 Keep R1 and R2 ints in memory in canonical form, NReq=671901989.
          There are    48 degrees of freedom in the 1st order CPHF.  IDoFFX=6 NUNeed=     3.
     45 vectors produced by pass  0 Test12= 2.46D-14 2.08D-09 XBig12= 1.23D+02 4.12D+00.
 AX will form    45 AO Fock derivatives at one time.
     45 vectors produced by pass  1 Test12= 2.46D-14 2.08D-09 XBig12= 2.70D+01 9.00D-01.
     45 vectors produced by pass  2 Test12= 2.46D-14 2.08D-09 XBig12= 1.36D+00 1.32D-01.
     45 vectors produced by pass  3 Test12= 2.46D-14 2.08D-09 XBig12= 2.07D-02 1.79D-02.
     45 vectors produced by pass  4 Test12= 2.46D-14 2.08D-09 XBig12= 2.58D-04 1.58D-03.
     45 vectors produced by pass  5 Test12= 2.46D-14 2.08D-09 XBig12= 3.64D-06 2.87D-04.
     36 vectors produced by pass  6 Test12= 2.46D-14 2.08D-09 XBig12= 3.63D-08 2.06D-05.
     20 vectors produced by pass  7 Test12= 2.46D-14 2.08D-09 XBig12= 3.20D-10 1.59D-06.
      4 vectors produced by pass  8 Test12= 2.46D-14 2.08D-09 XBig12= 2.82D-12 1.42D-07.
      2 vectors produced by pass  9 Test12= 2.46D-14 2.08D-09 XBig12= 2.48D-14 1.54D-08.
 InvSVY:  IOpt=1 It=  1 EMax= 7.15D-15
 Solved reduced A of dimension   332 with    48 vectors.
 Isotropic polarizability for W=    0.000000       78.39 Bohr**3.
 End of Minotr F.D. properties file   721 does not exist.
 End of Minotr F.D. properties file   722 does not exist.
 End of Minotr F.D. properties file   788 does not exist.

 **********************************************************************

            Population analysis using the SCF density.

 **********************************************************************

 Orbital symmetries:
 Alpha Orbitals:
       Occupied  (A) (A) (A) (A) (A) (A) (A) (A) (A) (A) (A) (A)
                 (A) (A) (A) (A) (A) (A) (A) (A) (A) (A) (A) (A)
                 (A) (A) (A) (A) (A) (A) (A)
       Virtual   (A) (A) (A) (A) (A) (A) (A) (A) (A) (A) (A) (A)
                 (A) (A) (A) (A) (A) (A) (A) (A) (A) (A) (A) (A)
                 (A) (A) (A) (A) (A) (A) (A) (A) (A) (A) (A) (A)
                 (A) (A) (A) (A) (A) (A) (A) (A) (A) (A) (A) (A)
                 (A) (A) (A) (A) (A) (A) (A) (A) (A) (A) (A) (A)
                 (A) (A) (A) (A) (A) (A) (A) (A) (A) (A) (A) (A)
                 (A) (A) (A) (A) (A) (A) (A) (A) (A) (A) (A) (A)
                 (A) (A) (A) (A) (A) (A) (A) (A) (A) (A) (A) (A)
                 (A) (A) (A) (A) (A) (A) (A) (A) (A) (A) (A) (A)
                 (A) (A) (A) (A) (A) (A) (A) (A) (A) (A) (A) (A)
                 (A) (A) (A) (A) (A) (A) (A) (A) (A) (A) (A) (A)
                 (A) (A) (A) (A) (A) (A) (A) (A) (A) (A) (A) (A)
                 (A) (A) (A) (A) (A) (A) (A) (A) (A) (A) (A) (A)
                 (A) (A) (A) (A) (A) (A) (A) (A) (A) (A) (A) (A)
                 (A) (A) (A) (A) (A) (A) (A) (A) (A) (A) (A) (A)
                 (A) (A) (A) (A) (A) (A) (A) (A) (A) (A) (A) (A)
                 (A)
 Beta  Orbitals:
       Occupied  (A) (A) (A) (A) (A) (A) (A) (A) (A) (A) (A) (A)
                 (A) (A) (A) (A) (A) (A) (A) (A) (A) (A) (A) (A)
                 (A) (A) (A) (A) (A) (A)
       Virtual   (A) (A) (A) (A) (A) (A) (A) (A) (A) (A) (A) (A)
                 (A) (A) (A) (A) (A) (A) (A) (A) (A) (A) (A) (A)
                 (A) (A) (A) (A) (A) (A) (A) (A) (A) (A) (A) (A)
                 (A) (A) (A) (A) (A) (A) (A) (A) (A) (A) (A) (A)
                 (A) (A) (A) (A) (A) (A) (A) (A) (A) (A) (A) (A)
                 (A) (A) (A) (A) (A) (A) (A) (A) (A) (A) (A) (A)
                 (A) (A) (A) (A) (A) (A) (A) (A) (A) (A) (A) (A)
                 (A) (A) (A) (A) (A) (A) (A) (A) (A) (A) (A) (A)
                 (A) (A) (A) (A) (A) (A) (A) (A) (A) (A) (A) (A)
                 (A) (A) (A) (A) (A) (A) (A) (A) (A) (A) (A) (A)
                 (A) (A) (A) (A) (A) (A) (A) (A) (A) (A) (A) (A)
                 (A) (A) (A) (A) (A) (A) (A) (A) (A) (A) (A) (A)
                 (A) (A) (A) (A) (A) (A) (A) (A) (A) (A) (A) (A)
                 (A) (A) (A) (A) (A) (A) (A) (A) (A) (A) (A) (A)
                 (A) (A) (A) (A) (A) (A) (A) (A) (A) (A) (A) (A)
                 (A) (A) (A) (A) (A) (A) (A) (A) (A) (A) (A) (A)
                 (A) (A)
 The electronic state is 2-A.
 Alpha  occ. eigenvalues --  -19.71529 -19.68416 -19.63258 -10.70759 -10.60721
 Alpha  occ. eigenvalues --  -10.57550 -10.56833 -10.53896  -1.25754  -1.18888
 Alpha  occ. eigenvalues --   -1.16465  -0.90350  -0.86901  -0.78082  -0.71110
 Alpha  occ. eigenvalues --   -0.67063  -0.64069  -0.58711  -0.58537  -0.56491
 Alpha  occ. eigenvalues --   -0.53834  -0.49470  -0.47717  -0.46813  -0.45629
 Alpha  occ. eigenvalues --   -0.44807  -0.42155  -0.39450  -0.38641  -0.37059
 Alpha  occ. eigenvalues --   -0.36096
 Alpha virt. eigenvalues --   -0.01523  -0.00742   0.00116   0.01822   0.02340
 Alpha virt. eigenvalues --    0.02747   0.03896   0.05322   0.05463   0.06522
 Alpha virt. eigenvalues --    0.07053   0.07950   0.08300   0.08907   0.10240
 Alpha virt. eigenvalues --    0.11565   0.12499   0.12581   0.13272   0.13348
 Alpha virt. eigenvalues --    0.14613   0.14999   0.15746   0.16495   0.16805
 Alpha virt. eigenvalues --    0.17404   0.18523   0.19146   0.19504   0.20358
 Alpha virt. eigenvalues --    0.20990   0.22609   0.23052   0.23496   0.25629
 Alpha virt. eigenvalues --    0.26000   0.26307   0.27193   0.28962   0.30253
 Alpha virt. eigenvalues --    0.30844   0.31493   0.32387   0.33213   0.33756
 Alpha virt. eigenvalues --    0.34585   0.36872   0.37097   0.37457   0.40387
 Alpha virt. eigenvalues --    0.41474   0.45042   0.45267   0.46798   0.49777
 Alpha virt. eigenvalues --    0.50934   0.54315   0.56959   0.57608   0.59206
 Alpha virt. eigenvalues --    0.61095   0.63781   0.64164   0.67124   0.67967
 Alpha virt. eigenvalues --    0.69192   0.70548   0.72882   0.73088   0.73382
 Alpha virt. eigenvalues --    0.75010   0.77771   0.79245   0.81272   0.83722
 Alpha virt. eigenvalues --    0.89961   0.92300   0.95197   1.00471   1.03036
 Alpha virt. eigenvalues --    1.03406   1.05662   1.07522   1.10728   1.13979
 Alpha virt. eigenvalues --    1.15648   1.17156   1.18509   1.19410   1.21808
 Alpha virt. eigenvalues --    1.22935   1.25522   1.28428   1.30507   1.32829
 Alpha virt. eigenvalues --    1.34699   1.36299   1.38973   1.39079   1.43774
 Alpha virt. eigenvalues --    1.46470   1.48852   1.51337   1.57408   1.58187
 Alpha virt. eigenvalues --    1.59364   1.60192   1.61549   1.62982   1.64549
 Alpha virt. eigenvalues --    1.66947   1.69811   1.71210   1.73302   1.74783
 Alpha virt. eigenvalues --    1.80104   1.80935   1.83775   1.86552   1.90919
 Alpha virt. eigenvalues --    1.95029   1.97942   2.01794   2.04412   2.06908
 Alpha virt. eigenvalues --    2.11507   2.13256   2.20797   2.31211   2.35432
 Alpha virt. eigenvalues --    2.36333   2.44336   2.49691   2.51022   2.51712
 Alpha virt. eigenvalues --    2.54305   2.55647   2.61569   2.62623   2.64511
 Alpha virt. eigenvalues --    2.65591   2.70337   2.71549   2.74154   2.79930
 Alpha virt. eigenvalues --    2.82786   2.83154   2.91574   2.94232   2.95508
 Alpha virt. eigenvalues --    2.98255   3.01342   3.02299   3.06700   3.09454
 Alpha virt. eigenvalues --    3.11718   3.13451   3.14787   3.18751   3.25351
 Alpha virt. eigenvalues --    3.29280   3.32054   3.38278   3.44015   3.57571
 Alpha virt. eigenvalues --    3.59611   3.67098   3.73295   3.84583   3.85229
 Alpha virt. eigenvalues --    3.86105   3.90555   4.03238   4.11445   4.17056
 Alpha virt. eigenvalues --    4.27666   5.03570   5.13476   5.17207   5.21425
 Alpha virt. eigenvalues --    5.31376   5.45427   5.52969   5.72395   5.94650
 Alpha virt. eigenvalues --   23.55313  23.93226  23.93708  24.05689  25.08584
 Alpha virt. eigenvalues --   49.91300  49.99736  50.10849
  Beta  occ. eigenvalues --  -19.70089 -19.68420 -19.63253 -10.70754 -10.60721
  Beta  occ. eigenvalues --  -10.57121 -10.56750 -10.53896  -1.25754  -1.16459
  Beta  occ. eigenvalues --   -1.12634  -0.90129  -0.86406  -0.77787  -0.70212
  Beta  occ. eigenvalues --   -0.64527  -0.62481  -0.58534  -0.56517  -0.54459
  Beta  occ. eigenvalues --   -0.53187  -0.49445  -0.46809  -0.45471  -0.43673
  Beta  occ. eigenvalues --   -0.42153  -0.39247  -0.38634  -0.36508  -0.35886
  Beta virt. eigenvalues --   -0.14649  -0.01192  -0.00319   0.00218   0.01829
  Beta virt. eigenvalues --    0.02390   0.02844   0.04016   0.05465   0.05690
  Beta virt. eigenvalues --    0.06679   0.07146   0.07965   0.08464   0.08967
  Beta virt. eigenvalues --    0.10397   0.11974   0.12604   0.12719   0.13294
  Beta virt. eigenvalues --    0.13427   0.14663   0.15024   0.15870   0.16368
  Beta virt. eigenvalues --    0.16866   0.17573   0.18548   0.19174   0.19724
  Beta virt. eigenvalues --    0.20507   0.21038   0.22322   0.23127   0.23633
  Beta virt. eigenvalues --    0.25676   0.26200   0.26290   0.27412   0.28928
  Beta virt. eigenvalues --    0.30242   0.30952   0.31701   0.32618   0.33372
  Beta virt. eigenvalues --    0.33734   0.34614   0.36925   0.37536   0.37895
  Beta virt. eigenvalues --    0.40463   0.41569   0.45212   0.45617   0.46942
  Beta virt. eigenvalues --    0.49843   0.50947   0.54677   0.57102   0.57844
  Beta virt. eigenvalues --    0.59377   0.61363   0.63911   0.64380   0.67178
  Beta virt. eigenvalues --    0.68009   0.69237   0.70618   0.73054   0.73264
  Beta virt. eigenvalues --    0.73902   0.75312   0.77831   0.79369   0.81315
  Beta virt. eigenvalues --    0.84737   0.90000   0.92358   0.95288   1.00745
  Beta virt. eigenvalues --    1.04013   1.04244   1.05989   1.08975   1.11938
  Beta virt. eigenvalues --    1.15105   1.16325   1.17478   1.18808   1.19590
  Beta virt. eigenvalues --    1.22133   1.22951   1.25692   1.28547   1.30822
  Beta virt. eigenvalues --    1.33329   1.34778   1.36476   1.39142   1.39634
  Beta virt. eigenvalues --    1.44091   1.47012   1.49284   1.51345   1.57552
  Beta virt. eigenvalues --    1.58744   1.59705   1.60278   1.61708   1.63378
  Beta virt. eigenvalues --    1.64885   1.67072   1.69827   1.71986   1.73404
  Beta virt. eigenvalues --    1.74888   1.80124   1.81017   1.83843   1.86673
  Beta virt. eigenvalues --    1.91406   1.95102   1.98240   2.01968   2.04674
  Beta virt. eigenvalues --    2.07195   2.11957   2.13560   2.20797   2.31262
  Beta virt. eigenvalues --    2.35447   2.36754   2.44918   2.50438   2.51059
  Beta virt. eigenvalues --    2.51881   2.54407   2.55877   2.61554   2.62630
  Beta virt. eigenvalues --    2.64513   2.65706   2.70425   2.72014   2.74281
  Beta virt. eigenvalues --    2.80047   2.83319   2.83583   2.91669   2.94427
  Beta virt. eigenvalues --    2.98282   2.99011   3.01451   3.03270   3.07193
  Beta virt. eigenvalues --    3.10109   3.13535   3.14173   3.15243   3.21655
  Beta virt. eigenvalues --    3.25397   3.29624   3.32469   3.38469   3.44003
  Beta virt. eigenvalues --    3.58412   3.61586   3.67820   3.73741   3.84772
  Beta virt. eigenvalues --    3.86072   3.88894   3.90677   4.03273   4.11601
  Beta virt. eigenvalues --    4.17187   4.27665   5.06061   5.13465   5.17197
  Beta virt. eigenvalues --    5.28786   5.31406   5.45452   5.55606   5.72391
  Beta virt. eigenvalues --    5.94649  23.55454  23.93227  23.93716  24.05689
  Beta virt. eigenvalues --   25.08931  49.90763  49.99737  50.10850
          Condensed to atoms (all electrons):
               1          2          3          4          5          6
     1  O    7.881424   0.272043  -0.007824   0.086146  -0.045324   0.030986
     2  H    0.272043   0.463425   0.033794  -0.044286   0.003338   0.004085
     3  C   -0.007824   0.033794   5.759864   0.272785  -0.352959   1.076198
     4  H    0.086146  -0.044286   0.272785   0.344929  -0.045053   0.010655
     5  C   -0.045324   0.003338  -0.352959  -0.045053  11.013850  -5.244372
     6  C    0.030986   0.004085   1.076198   0.010655  -5.244372  10.652886
     7  O   -0.000011  -0.000155  -0.076978  -0.000206   0.233541   0.189729
     8  O    0.000379   0.000097  -0.063631  -0.003192  -0.327375   0.159425
     9  C    0.000156  -0.000164   0.015902   0.000189  -0.312273   0.097907
    10  C   -0.000015   0.000019  -0.009696  -0.000284  -0.023930  -0.062265
    11  H    0.000023  -0.000004   0.001420  -0.000022  -0.009006   0.015069
    12  H    0.000015   0.000008   0.000530  -0.000005  -0.007417  -0.000984
    13  H   -0.000003  -0.000001  -0.001571  -0.000025   0.007093  -0.007669
    14  H    0.000015   0.000005   0.001604   0.000012   0.002661   0.005271
    15  H   -0.000001  -0.000013   0.001364  -0.000047  -0.034939   0.009870
               7          8          9         10         11         12
     1  O   -0.000011   0.000379   0.000156  -0.000015   0.000023   0.000015
     2  H   -0.000155   0.000097  -0.000164   0.000019  -0.000004   0.000008
     3  C   -0.076978  -0.063631   0.015902  -0.009696   0.001420   0.000530
     4  H   -0.000206  -0.003192   0.000189  -0.000284  -0.000022  -0.000005
     5  C    0.233541  -0.327375  -0.312273  -0.023930  -0.009006  -0.007417
     6  C    0.189729   0.159425   0.097907  -0.062265   0.015069  -0.000984
     7  O    8.034470  -0.139981   0.058274  -0.073432   0.003060  -0.020176
     8  O   -0.139981   8.317156   0.198724  -0.044853  -0.088417  -0.008847
     9  C    0.058274   0.198724   5.416510   0.040360   0.443218   0.398909
    10  C   -0.073432  -0.044853   0.040360   5.451896  -0.056718  -0.020180
    11  H    0.003060  -0.088417   0.443218  -0.056718   0.532733  -0.037253
    12  H   -0.020176  -0.008847   0.398909  -0.020180  -0.037253   0.513365
    13  H   -0.000975   0.018175  -0.042377   0.398089  -0.000754  -0.004337
    14  H    0.001325  -0.006269  -0.041974   0.419698  -0.010894   0.004773
    15  H    0.005044  -0.020070   0.007435   0.384243   0.011127  -0.011656
              13         14         15
     1  O   -0.000003   0.000015  -0.000001
     2  H   -0.000001   0.000005  -0.000013
     3  C   -0.001571   0.001604   0.001364
     4  H   -0.000025   0.000012  -0.000047
     5  C    0.007093   0.002661  -0.034939
     6  C   -0.007669   0.005271   0.009870
     7  O   -0.000975   0.001325   0.005044
     8  O    0.018175  -0.006269  -0.020070
     9  C   -0.042377  -0.041974   0.007435
    10  C    0.398089   0.419698   0.384243
    11  H   -0.000754  -0.010894   0.011127
    12  H   -0.004337   0.004773  -0.011656
    13  H    0.534223  -0.032778  -0.031910
    14  H   -0.032778   0.538026  -0.048369
    15  H   -0.031910  -0.048369   0.543503
          Atomic-Atomic Spin Densities.
               1          2          3          4          5          6
     1  O    0.909290   0.010040  -0.066379  -0.052511  -0.034408   0.027134
     2  H    0.010040  -0.030302   0.000010   0.001995  -0.000039  -0.001042
     3  C   -0.066379   0.000010   0.308250   0.028414  -0.086378   0.061203
     4  H   -0.052511   0.001995   0.028414  -0.002848   0.028060  -0.024167
     5  C   -0.034408  -0.000039  -0.086378   0.028060   0.579341  -0.439312
     6  C    0.027134  -0.001042   0.061203  -0.024167  -0.439312   0.324530
     7  O    0.000135  -0.000004   0.000205  -0.000107  -0.006911   0.008153
     8  O    0.000060  -0.000013   0.001182  -0.000089   0.003444  -0.001469
     9  C    0.000106   0.000006   0.002483  -0.000459  -0.016647   0.014502
    10  C   -0.000002   0.000007  -0.000467   0.000099   0.004653  -0.002599
    11  H    0.000017  -0.000002   0.000636  -0.000074  -0.004230   0.003457
    12  H    0.000003  -0.000001  -0.000106  -0.000011   0.000422  -0.000299
    13  H   -0.000002   0.000001  -0.000110   0.000006   0.001182  -0.000636
    14  H   -0.000000  -0.000001  -0.000054   0.000001   0.000060  -0.000316
    15  H    0.000017  -0.000000   0.000235  -0.000064  -0.002172   0.001763
               7          8          9         10         11         12
     1  O    0.000135   0.000060   0.000106  -0.000002   0.000017   0.000003
     2  H   -0.000004  -0.000013   0.000006   0.000007  -0.000002  -0.000001
     3  C    0.000205   0.001182   0.002483  -0.000467   0.000636  -0.000106
     4  H   -0.000107  -0.000089  -0.000459   0.000099  -0.000074  -0.000011
     5  C   -0.006911   0.003444  -0.016647   0.004653  -0.004230   0.000422
     6  C    0.008153  -0.001469   0.014502  -0.002599   0.003457  -0.000299
     7  O   -0.000887   0.001214  -0.000730  -0.000155  -0.000042   0.000154
     8  O    0.001214  -0.003748  -0.000416   0.000647  -0.000223  -0.000211
     9  C   -0.000730  -0.000416  -0.000231   0.000202   0.000218   0.000205
    10  C   -0.000155   0.000647   0.000202  -0.002283   0.000016  -0.000115
    11  H   -0.000042  -0.000223   0.000218   0.000016   0.000148   0.000046
    12  H    0.000154  -0.000211   0.000205  -0.000115   0.000046  -0.000055
    13  H    0.000012   0.000019  -0.000346   0.000010  -0.000108   0.000017
    14  H    0.000037  -0.000044   0.000051   0.000265   0.000021  -0.000011
    15  H   -0.000072  -0.000118   0.000158  -0.000010   0.000053   0.000049
              13         14         15
     1  O   -0.000002  -0.000000   0.000017
     2  H    0.000001  -0.000001  -0.000000
     3  C   -0.000110  -0.000054   0.000235
     4  H    0.000006   0.000001  -0.000064
     5  C    0.001182   0.000060  -0.002172
     6  C   -0.000636  -0.000316   0.001763
     7  O    0.000012   0.000037  -0.000072
     8  O    0.000019  -0.000044  -0.000118
     9  C   -0.000346   0.000051   0.000158
    10  C    0.000010   0.000265  -0.000010
    11  H   -0.000108   0.000021   0.000053
    12  H    0.000017  -0.000011   0.000049
    13  H   -0.000032   0.000054  -0.000069
    14  H    0.000054  -0.000089   0.000017
    15  H   -0.000069   0.000017   0.000104
 Mulliken charges and spin densities:
               1          2
     1  O   -0.218008   0.793501
     2  H    0.267810  -0.019347
     3  C   -0.650801   0.249124
     4  H    0.378402  -0.021755
     5  C    1.142164   0.027066
     6  C   -0.936791  -0.029099
     7  O   -0.213528   0.001002
     8  O    0.008678   0.000236
     9  C   -0.280795  -0.000899
    10  C   -0.402934   0.000269
    11  H    0.196419  -0.000068
    12  H    0.193255   0.000089
    13  H    0.164819   0.000000
    14  H    0.166893  -0.000010
    15  H    0.184419  -0.000108
 Sum of Mulliken charges =  -0.00000   1.00000
 Mulliken charges and spin densities with hydrogens summed into heavy atoms:
               1          2
     1  O    0.049801   0.774154
     3  C   -0.272399   0.227368
     5  C    1.142164   0.027066
     6  C   -0.936791  -0.029099
     7  O   -0.213528   0.001002
     8  O    0.008678   0.000236
     9  C    0.108879  -0.000879
    10  C    0.113197   0.000151
 APT charges:
               1
     1  O   -0.157690
     2  H    0.349547
     3  C   -0.212209
     4  H    0.064395
     5  C   -0.331281
     6  C    1.605129
     7  O   -0.837065
     8  O   -1.012969
     9  C    0.558703
    10  C   -0.043786
    11  H   -0.017168
    12  H   -0.013859
    13  H    0.007056
    14  H    0.010411
    15  H    0.030786
 Sum of APT charges =   0.00000
 APT charges with hydrogens summed into heavy atoms:
               1
     1  O    0.191857
     3  C   -0.147814
     5  C   -0.331281
     6  C    1.605129
     7  O   -0.837065
     8  O   -1.012969
     9  C    0.527677
    10  C    0.004467
 Electronic spatial extent (au):  <R**2>=           1673.2307
 Charge=             -0.0000 electrons
 Dipole moment (field-independent basis, Debye):
    X=             -0.3772    Y=             -0.3054    Z=             -0.7839  Tot=              0.9219
 Quadrupole moment (field-independent basis, Debye-Ang):
   XX=            -32.7095   YY=            -52.2378   ZZ=            -48.0690
   XY=              8.0335   XZ=             -2.4312   YZ=             -0.4175
 Traceless Quadrupole moment (field-independent basis, Debye-Ang):
   XX=             11.6293   YY=             -7.8990   ZZ=             -3.7303
   XY=              8.0335   XZ=             -2.4312   YZ=             -0.4175
 Octapole moment (field-independent basis, Debye-Ang**2):
  XXX=             19.7781  YYY=             -5.3359  ZZZ=             -1.7742  XYY=              7.6511
  XXY=             25.8846  XXZ=            -16.9961  XZZ=             -4.6630  YZZ=              1.3866
  YYZ=              0.1252  XYZ=             -0.7650
 Hexadecapole moment (field-independent basis, Debye-Ang**3):
 XXXX=          -1565.3897 YYYY=           -191.1267 ZZZZ=           -124.3422 XXXY=            154.2865
 XXXZ=            -48.0102 YYYX=             10.4687 YYYZ=              0.6664 ZZZX=              6.9088
 ZZZY=             -0.0964 XXYY=           -312.5435 XXZZ=           -338.8058 YYZZ=            -47.8753
 XXYZ=              0.8402 YYXZ=              3.4870 ZZXY=              1.1790
 N-N= 3.349167484438D+02 E-N=-1.654219689800D+03  KE= 4.188433441348D+02
  Exact polarizability: 124.745  -5.477  60.243   1.986   0.505  50.181
 Approx polarizability: 113.919 -11.397  78.541   3.143   1.278  57.188
                          Isotropic Fermi Contact Couplings
        Atom                 a.u.       MegaHertz       Gauss      10(-4) cm-1
     1  O(17)              0.11430     -69.28915     -24.72409     -23.11237
     2  H(1)              -0.01359     -60.73477     -21.67168     -20.25894
     3  C(13)              0.31506     354.18322     126.38138     118.14281
     4  H(1)              -0.02372    -106.01376     -37.82834     -35.36238
     5  C(13)              0.04734      53.22478      18.99192      17.75387
     6  C(13)              0.00342       3.84537       1.37213       1.28268
     7  O(17)              0.00019      -0.11816      -0.04216      -0.03941
     8  O(17)             -0.00248       1.50115       0.53565       0.50073
     9  C(13)             -0.00014      -0.15974      -0.05700      -0.05328
    10  C(13)             -0.00011      -0.11874      -0.04237      -0.03961
    11  H(1)              -0.00000      -0.01725      -0.00615      -0.00575
    12  H(1)              -0.00001      -0.04938      -0.01762      -0.01647
    13  H(1)              -0.00001      -0.05131      -0.01831      -0.01711
    14  H(1)              -0.00000      -0.00417      -0.00149      -0.00139
    15  H(1)               0.00000       0.00413       0.00148       0.00138
 --------------------------------------------------------
       Center         ----  Spin Dipole Couplings  ----
                      3XX-RR        3YY-RR        3ZZ-RR
 --------------------------------------------------------
     1   Atom        3.226520     -1.628346     -1.598174
     2   Atom       -0.038490      0.117497     -0.079006
     3   Atom        0.230570     -0.120402     -0.110168
     4   Atom        0.173634     -0.082660     -0.090974
     5   Atom        0.042599      0.009010     -0.051609
     6   Atom        0.007272     -0.003917     -0.003355
     7   Atom        0.027126     -0.004315     -0.022811
     8   Atom        0.003098      0.001257     -0.004355
     9   Atom        0.000763     -0.000362     -0.000400
    10   Atom        0.000806     -0.000378     -0.000427
    11   Atom        0.000828     -0.000424     -0.000404
    12   Atom        0.000935     -0.000485     -0.000450
    13   Atom        0.000540     -0.000270     -0.000271
    14   Atom        0.000802     -0.000413     -0.000389
    15   Atom        0.000876     -0.000456     -0.000420
 --------------------------------------------------------
                        XY            XZ            YZ
 --------------------------------------------------------
     1   Atom       -0.223247      0.432089     -0.018560
     2   Atom        0.019255     -0.001676     -0.088614
     3   Atom       -0.037312      0.034374     -0.009636
     4   Atom        0.043828      0.070047      0.023221
     5   Atom       -0.063005     -0.013810      0.024882
     6   Atom       -0.003402      0.001235     -0.000830
     7   Atom       -0.006228      0.016899      0.002624
     8   Atom       -0.000442      0.000854      0.003217
     9   Atom        0.000087      0.000137      0.000004
    10   Atom       -0.000016     -0.000067      0.000038
    11   Atom        0.000179      0.000220      0.000015
    12   Atom       -0.000155      0.000292     -0.000001
    13   Atom       -0.000011     -0.000067      0.000001
    14   Atom        0.000164     -0.000251     -0.000029
    15   Atom       -0.000191     -0.000284      0.000019
 --------------------------------------------------------


 ---------------------------------------------------------------------------------
              Anisotropic Spin Dipole Couplings in Principal Axis System
 ---------------------------------------------------------------------------------

       Atom             a.u.   MegaHertz   Gauss  10(-4) cm-1        Axes

              Baa    -1.6392   118.611    42.323    39.564  0.0794  0.8995 -0.4296
     1 O(17)  Bbb    -1.6360   118.376    42.240    39.486 -0.0599  0.4345  0.8987
              Bcc     3.2751  -236.987   -84.563   -79.050  0.9950 -0.0456  0.0884
 
              Baa    -0.1135   -60.533   -21.600   -20.191 -0.0723  0.3625  0.9292
     2 H(1)   Bbb    -0.0399   -21.290    -7.597    -7.102  0.9927 -0.0639  0.1022
              Bcc     0.1534    81.822    29.196    27.293  0.0964  0.9298 -0.3553
 
              Baa    -0.1270   -17.042    -6.081    -5.685  0.0559  0.9115  0.4076
     3 C(13)  Bbb    -0.1111   -14.902    -5.317    -4.971 -0.1347 -0.3976  0.9076
              Bcc     0.2381    31.944    11.398    10.655  0.9893 -0.1057  0.1006
 
              Baa    -0.1143   -60.998   -21.766   -20.347 -0.1474 -0.4441  0.8838
     4 H(1)   Bbb    -0.0849   -45.320   -16.171   -15.117 -0.2573  0.8800  0.3993
              Bcc     0.1993   106.318    37.937    35.464  0.9550  0.1686  0.2440
 
              Baa    -0.0618    -8.292    -2.959    -2.766 -0.1521 -0.4455  0.8823
     5 C(13)  Bbb    -0.0339    -4.546    -1.622    -1.516  0.6177  0.6540  0.4367
              Bcc     0.0957    12.838     4.581     4.282  0.7716 -0.6114 -0.1756
 
              Baa    -0.0050    -0.673    -0.240    -0.224  0.2273  0.9280  0.2952
     6 C(13)  Bbb    -0.0034    -0.454    -0.162    -0.151 -0.1912 -0.2547  0.9479
              Bcc     0.0084     1.127     0.402     0.376  0.9549 -0.2719  0.1196
 
              Baa    -0.0288     2.082     0.743     0.695 -0.3029 -0.1776  0.9363
     7 O(17)  Bbb    -0.0043     0.308     0.110     0.103  0.0799  0.9743  0.2106
              Bcc     0.0330    -2.390    -0.853    -0.797  0.9497 -0.1386  0.2809
 
              Baa    -0.0059     0.428     0.153     0.143 -0.1059 -0.4121  0.9049
     8 O(17)  Bbb     0.0027    -0.196    -0.070    -0.066  0.0979  0.9013  0.4219
              Bcc     0.0032    -0.232    -0.083    -0.077  0.9895 -0.1333  0.0551
 
              Baa    -0.0004    -0.056    -0.020    -0.019 -0.1238  0.1317  0.9835
     9 C(13)  Bbb    -0.0004    -0.049    -0.018    -0.016 -0.0596  0.9884 -0.1398
              Bcc     0.0008     0.105     0.038     0.035  0.9905  0.0759  0.1145
 
              Baa    -0.0004    -0.060    -0.022    -0.020  0.0412 -0.4574  0.8883
    10 C(13)  Bbb    -0.0004    -0.048    -0.017    -0.016  0.0387  0.8891  0.4561
              Bcc     0.0008     0.109     0.039     0.036  0.9984 -0.0156 -0.0543
 
              Baa    -0.0005    -0.246    -0.088    -0.082 -0.2101  0.7631  0.6112
    11 H(1)   Bbb    -0.0004    -0.229    -0.082    -0.076 -0.0458 -0.6321  0.7735
              Bcc     0.0009     0.475     0.170     0.158  0.9766  0.1345  0.1678
 
              Baa    -0.0005    -0.286    -0.102    -0.095 -0.2132 -0.6537  0.7261
    12 H(1)   Bbb    -0.0005    -0.253    -0.090    -0.084 -0.0540  0.7500  0.6593
              Bcc     0.0010     0.539     0.192     0.180  0.9755 -0.1013  0.1952
 
              Baa    -0.0003    -0.147    -0.053    -0.049  0.0808 -0.0268  0.9964
    13 H(1)   Bbb    -0.0003    -0.144    -0.051    -0.048  0.0154  0.9996  0.0256
              Bcc     0.0005     0.291     0.104     0.097  0.9966 -0.0133 -0.0812
 
              Baa    -0.0004    -0.236    -0.084    -0.079  0.2342 -0.5110  0.8270
    14 H(1)   Bbb    -0.0004    -0.231    -0.082    -0.077 -0.0059  0.8499  0.5269
              Bcc     0.0009     0.467     0.166     0.156  0.9722  0.1283 -0.1961
 
              Baa    -0.0005    -0.267    -0.095    -0.089  0.2354  0.7130  0.6604
    15 H(1)   Bbb    -0.0005    -0.246    -0.088    -0.082  0.0554 -0.6883  0.7233
              Bcc     0.0010     0.513     0.183     0.171  0.9703 -0.1337 -0.2015
 

 ---------------------------------------------------------------------------------

 Calling FoFJK, ICntrl=    100127 FMM=F ISym2X=0 I1Cent= 0 IOpClX= 1 NMat=1 NMatS=1 NMatT=0.
 Full mass-weighted force constant matrix:
 Low frequencies --- -466.0291 -208.2102 -127.4044  -12.3530   -0.0009   -0.0008
 Low frequencies ---   -0.0007   22.2963   27.7062
 ******    3 imaginary frequencies (negative Signs) ****** 
 Diagonal vibrational polarizability:
       69.1842430      35.0076993      80.9854110
 Harmonic frequencies (cm**-1), IR intensities (KM/Mole), Raman scattering
 activities (A**4/AMU), depolarization ratios for plane and unpolarized
 incident light, reduced masses (AMU), force constants (mDyne/A),
 and normal coordinates:
                      1                      2                      3
                      A                      A                      A
 Frequencies --   -465.9731              -202.7359              -119.9646
 Red. masses --      2.0680                 2.5976                 5.8997
 Frc consts  --      0.2646                 0.0629                 0.0500
 IR Inten    --    100.7767                10.5226                 7.9557
  Atom  AN      X      Y      Z        X      Y      Z        X      Y      Z
     1   8     0.21   0.05   0.06     0.08   0.06  -0.15    -0.21   0.32   0.06
     2   1     0.15   0.05   0.03     0.01  -0.14  -0.68    -0.54   0.24  -0.20
     3   6    -0.10  -0.08  -0.07    -0.04  -0.08   0.28     0.00  -0.35  -0.10
     4   1    -0.82  -0.33  -0.33    -0.10  -0.17   0.57     0.03  -0.35  -0.09
     5   6    -0.05  -0.01  -0.01    -0.02  -0.01   0.08     0.04  -0.18  -0.05
     6   6    -0.02   0.02   0.01    -0.01   0.01   0.00     0.07  -0.06   0.01
     7   8    -0.02   0.02   0.00    -0.00   0.01   0.01     0.15  -0.04   0.07
     8   8    -0.01   0.01   0.00    -0.00   0.02  -0.03    -0.02   0.01  -0.03
     9   6    -0.01   0.00   0.00    -0.00   0.02  -0.04    -0.00   0.11   0.00
    10   6    -0.00   0.00   0.00    -0.01  -0.01  -0.05     0.02   0.06   0.02
    11   1    -0.01   0.00   0.00     0.00   0.03  -0.07    -0.06   0.17  -0.05
    12   1    -0.01   0.00   0.00     0.00   0.03  -0.02     0.05   0.16   0.06
    13   1    -0.00   0.00   0.01    -0.01  -0.01  -0.05     0.03   0.13   0.03
    14   1    -0.00   0.00   0.00    -0.02  -0.03  -0.07    -0.03   0.02  -0.04
    15   1    -0.00   0.00   0.00    -0.02  -0.03  -0.02     0.08   0.01   0.06
                      4                      5                      6
                      A                      A                      A
 Frequencies --     75.1364               113.9953               154.0556
 Red. masses --      3.6848                 3.5782                 2.7701
 Frc consts  --      0.0123                 0.0274                 0.0387
 IR Inten    --      1.3369                 0.7317                22.9559
  Atom  AN      X      Y      Z        X      Y      Z        X      Y      Z
     1   8     0.05   0.04  -0.13    -0.00  -0.01  -0.04     0.13   0.05  -0.02
     2   1    -0.01   0.15   0.13    -0.05   0.02   0.04     0.08   0.25   0.47
     3   6     0.05   0.03  -0.07     0.02  -0.05  -0.04     0.06   0.13   0.07
     4   1     0.06   0.09  -0.19     0.01  -0.05  -0.10     0.14   0.27   0.05
     5   6     0.02  -0.03   0.06     0.03   0.01   0.04    -0.02  -0.14   0.00
     6   6     0.01  -0.07   0.13     0.04   0.06   0.03    -0.02  -0.12  -0.04
     7   8    -0.01  -0.07   0.15     0.10   0.10  -0.16     0.07  -0.09  -0.04
     8   8     0.02  -0.07   0.14     0.00   0.04   0.22    -0.11  -0.05  -0.05
     9   6     0.04  -0.05  -0.07     0.02   0.07   0.02    -0.09   0.13   0.01
    10   6    -0.17   0.19  -0.18    -0.20  -0.21  -0.05    -0.04   0.02   0.05
    11   1     0.09  -0.13   0.01     0.10   0.18  -0.21    -0.21   0.25  -0.10
    12   1     0.14  -0.14  -0.24     0.12   0.19   0.18     0.00   0.23   0.14
    13   1    -0.16   0.18  -0.38    -0.17  -0.10  -0.20    -0.01   0.30   0.09
    14   1    -0.28   0.29   0.00    -0.36  -0.36  -0.22    -0.24  -0.13  -0.12
    15   1    -0.25   0.28  -0.27    -0.21  -0.36   0.21     0.18  -0.16   0.19
                      7                      8                      9
                      A                      A                      A
 Frequencies --    180.3477               227.6446               278.8038
 Red. masses --      1.5698                 1.2831                 3.4890
 Frc consts  --      0.0301                 0.0392                 0.1598
 IR Inten    --     81.5792                 2.6482                22.6465
  Atom  AN      X      Y      Z        X      Y      Z        X      Y      Z
     1   8    -0.01  -0.01  -0.10    -0.03  -0.01  -0.01    -0.04   0.01  -0.00
     2   1    -0.35   0.35   0.80    -0.04  -0.02  -0.04     0.25  -0.19  -0.51
     3   6    -0.04  -0.08   0.06    -0.02  -0.01  -0.01     0.00   0.08  -0.13
     4   1    -0.04  -0.03  -0.08    -0.06  -0.05  -0.05    -0.02   0.08  -0.39
     5   6    -0.02   0.00   0.11    -0.01   0.05   0.04    -0.05  -0.08   0.37
     6   6    -0.00   0.03   0.01    -0.01   0.01   0.02    -0.02  -0.05   0.11
     7   8    -0.01   0.03  -0.04    -0.07  -0.01  -0.01     0.01  -0.02  -0.10
     8   8     0.02   0.02  -0.03     0.04  -0.03   0.01    -0.02  -0.02  -0.03
     9   6     0.02  -0.02  -0.02     0.05  -0.01  -0.01     0.00   0.08  -0.07
    10   6     0.06  -0.01  -0.00     0.06   0.02  -0.01     0.10  -0.01  -0.02
    11   1     0.03  -0.05   0.02     0.02  -0.00  -0.01    -0.05   0.14  -0.12
    12   1    -0.02  -0.05  -0.04     0.08  -0.01  -0.01     0.05   0.13   0.00
    13   1     0.04  -0.10   0.04     0.12   0.61  -0.02     0.06  -0.22   0.12
    14   1     0.16   0.04   0.03    -0.42  -0.19  -0.16     0.35   0.04  -0.04
    15   1     0.00   0.05  -0.06     0.49  -0.27   0.16     0.00   0.07  -0.07
                     10                     11                     12
                      A                      A                      A
 Frequencies --    337.9294               422.3359               524.0815
 Red. masses --      2.9537                 4.1724                 3.4756
 Frc consts  --      0.1987                 0.4385                 0.5624
 IR Inten    --      9.6773                 1.8582                 4.0781
  Atom  AN      X      Y      Z        X      Y      Z        X      Y      Z
     1   8    -0.01  -0.01  -0.00    -0.04  -0.00  -0.01    -0.12  -0.02  -0.03
     2   1    -0.09   0.03   0.09    -0.00   0.01   0.03    -0.21  -0.02  -0.04
     3   6    -0.01  -0.04   0.03    -0.10   0.10   0.05    -0.14   0.20   0.07
     4   1    -0.04  -0.07   0.08    -0.16   0.09   0.11    -0.59  -0.15  -0.20
     5   6     0.03   0.10  -0.09    -0.14  -0.11  -0.17    -0.14  -0.01  -0.02
     6   6    -0.00  -0.05  -0.01    -0.06   0.00   0.05     0.03  -0.05  -0.05
     7   8    -0.18  -0.11  -0.03     0.12   0.07   0.04     0.16  -0.02   0.02
     8   8     0.04  -0.10   0.10    -0.08  -0.01   0.24     0.11  -0.09  -0.08
     9   6     0.10   0.21  -0.01    -0.01  -0.03  -0.16     0.16   0.01   0.10
    10   6     0.06   0.02  -0.02     0.21  -0.03  -0.11    -0.03   0.01   0.03
    11   1    -0.05   0.43  -0.24     0.05  -0.05  -0.17     0.04   0.12   0.01
    12   1     0.36   0.39   0.20     0.08  -0.04  -0.19     0.23   0.08   0.19
    13   1     0.03  -0.30   0.01     0.19   0.01   0.30    -0.01  -0.04  -0.32
    14   1     0.34   0.05  -0.07     0.44  -0.04  -0.21    -0.20   0.04   0.12
    15   1    -0.17   0.10   0.02     0.45  -0.06  -0.23    -0.25   0.06   0.11
                     13                     14                     15
                      A                      A                      A
 Frequencies --    582.9604               661.2678               703.1805
 Red. masses --      5.1655                 1.6218                 1.5052
 Frc consts  --      1.0343                 0.4178                 0.4385
 IR Inten    --     15.5115                55.0488               120.3642
  Atom  AN      X      Y      Z        X      Y      Z        X      Y      Z
     1   8    -0.02  -0.02  -0.00    -0.01   0.03  -0.01     0.06  -0.01   0.02
     2   1    -0.38  -0.02  -0.06     0.78   0.04   0.15    -0.35   0.02   0.04
     3   6     0.01   0.01   0.02    -0.12  -0.12  -0.01    -0.04   0.01  -0.17
     4   1    -0.32  -0.38  -0.14     0.25   0.48   0.06     0.07  -0.04   0.90
     5   6     0.14   0.44   0.06    -0.06   0.10   0.01    -0.05   0.02   0.05
     6   6     0.03  -0.12   0.00    -0.03  -0.01  -0.01    -0.03  -0.00  -0.00
     7   8     0.20  -0.07   0.01     0.07   0.02   0.01     0.03   0.02   0.01
     8   8    -0.11  -0.10   0.01     0.01  -0.05  -0.01     0.00  -0.03  -0.01
     9   6    -0.20  -0.02  -0.08     0.03  -0.01   0.01     0.02  -0.01   0.01
    10   6    -0.02  -0.01  -0.00     0.00   0.00   0.00     0.01   0.00   0.00
    11   1    -0.20  -0.02  -0.08    -0.03   0.05  -0.04    -0.02   0.04  -0.03
    12   1    -0.12  -0.01  -0.08     0.08   0.04   0.06     0.06   0.03   0.06
    13   1    -0.04   0.02   0.31     0.01   0.00  -0.05     0.01   0.00  -0.04
    14   1     0.15  -0.00  -0.05    -0.02   0.02   0.03    -0.02   0.02   0.04
    15   1     0.17  -0.02  -0.12    -0.03   0.02  -0.01    -0.02   0.02  -0.01
                     16                     17                     18
                      A                      A                      A
 Frequencies --    783.6165               796.8175               885.1175
 Red. masses --      7.4196                 1.2782                 2.3745
 Frc consts  --      2.6843                 0.4782                 1.0960
 IR Inten    --     26.7646                 6.3945                89.3358
  Atom  AN      X      Y      Z        X      Y      Z        X      Y      Z
     1   8     0.00  -0.00   0.00    -0.01   0.00  -0.00    -0.07   0.01  -0.02
     2   1    -0.00   0.01   0.03     0.08   0.01   0.03     0.43   0.06   0.18
     3   6    -0.03  -0.01   0.01    -0.03   0.01  -0.02    -0.03   0.03  -0.03
     4   1     0.00   0.03   0.21    -0.05   0.01   0.11    -0.31  -0.19   0.37
     5   6     0.00   0.05  -0.24    -0.02   0.02   0.03     0.01   0.01   0.01
     6   6    -0.06  -0.12   0.64     0.03  -0.03  -0.07     0.12  -0.07   0.01
     7   8     0.03  -0.00  -0.19     0.01  -0.06   0.01    -0.01  -0.16  -0.03
     8   8     0.01   0.04  -0.16    -0.01   0.04   0.03    -0.02   0.20   0.03
     9   6     0.04   0.05   0.01     0.02   0.08   0.01     0.01  -0.01   0.02
    10   6     0.02   0.02   0.01     0.01   0.03  -0.01     0.01  -0.05  -0.02
    11   1     0.03  -0.14   0.31     0.06  -0.23   0.46     0.26  -0.02  -0.15
    12   1    -0.12  -0.14  -0.24    -0.09  -0.24  -0.44    -0.20   0.06   0.18
    13   1     0.01  -0.09  -0.14    -0.01  -0.18  -0.03     0.03   0.14  -0.04
    14   1    -0.04  -0.12  -0.16     0.09  -0.20  -0.39    -0.07   0.12   0.27
    15   1    -0.17  -0.07   0.28    -0.14  -0.15   0.39     0.12   0.09  -0.32
                     19                     20                     21
                      A                      A                      A
 Frequencies --    901.0386               964.8213              1076.6797
 Red. masses --      2.1347                 1.6840                 3.8866
 Frc consts  --      1.0211                 0.9236                 2.6546
 IR Inten    --     22.2836                53.0699                29.7851
  Atom  AN      X      Y      Z        X      Y      Z        X      Y      Z
     1   8    -0.05   0.01  -0.02    -0.07   0.01  -0.03    -0.01   0.01  -0.01
     2   1     0.34   0.04   0.14     0.53   0.07   0.22     0.14   0.02   0.06
     3   6     0.00   0.03  -0.02     0.10   0.03  -0.01     0.08  -0.00   0.00
     4   1    -0.21  -0.16   0.25    -0.28  -0.51   0.26    -0.03  -0.27   0.01
     5   6     0.00  -0.05  -0.01     0.08  -0.03   0.01     0.05   0.02   0.01
     6   6     0.08   0.04   0.03    -0.03   0.04   0.01    -0.14  -0.03  -0.03
     7   8    -0.02   0.02  -0.00    -0.01   0.08   0.01     0.02   0.02   0.01
     8   8     0.15  -0.06  -0.02    -0.05  -0.08  -0.01    -0.21   0.04  -0.02
     9   6    -0.08   0.01  -0.11    -0.03  -0.01   0.05     0.32  -0.06  -0.17
    10   6    -0.15   0.03   0.09     0.07   0.00  -0.05    -0.07   0.02   0.18
    11   1     0.03  -0.02  -0.13    -0.24   0.04   0.11     0.32  -0.01  -0.27
    12   1     0.11  -0.02  -0.20    -0.01   0.01   0.07     0.41  -0.09  -0.26
    13   1    -0.19   0.02   0.68     0.08  -0.07  -0.30    -0.08   0.01   0.28
    14   1     0.19  -0.01  -0.08    -0.05  -0.04  -0.08    -0.06   0.05   0.24
    15   1     0.15  -0.08   0.06    -0.10   0.01   0.06    -0.09  -0.03   0.28
                     22                     23                     24
                      A                      A                      A
 Frequencies --   1127.3499              1201.8407              1279.6048
 Red. masses --      2.0802                 1.7710                 3.9974
 Frc consts  --      1.5577                 1.5071                 3.8564
 IR Inten    --     24.5102                 6.0694               727.3589
  Atom  AN      X      Y      Z        X      Y      Z        X      Y      Z
     1   8    -0.00   0.00  -0.00    -0.00   0.00  -0.00    -0.00  -0.01   0.00
     2   1     0.02   0.00   0.01     0.03   0.00   0.01    -0.12  -0.01  -0.04
     3   6     0.01  -0.00   0.00     0.02  -0.00   0.00    -0.07   0.01  -0.01
     4   1     0.01  -0.05  -0.00     0.02  -0.07  -0.01    -0.08   0.33   0.05
     5   6     0.01   0.01   0.00     0.00  -0.00   0.00    -0.00  -0.01  -0.00
     6   6    -0.03  -0.00   0.00    -0.06  -0.01  -0.01     0.39   0.16   0.06
     7   8     0.00   0.01  -0.00     0.01   0.04   0.01    -0.05   0.01  -0.00
     8   8    -0.06   0.01  -0.05     0.01  -0.07  -0.01    -0.19  -0.10  -0.02
     9   6     0.10  -0.03   0.21     0.03   0.19   0.01     0.11  -0.00  -0.04
    10   6    -0.10   0.02  -0.16    -0.03  -0.14  -0.01    -0.02  -0.06  -0.01
    11   1     0.08   0.04   0.13     0.31  -0.14   0.35    -0.63   0.11   0.28
    12   1     0.20  -0.03   0.19    -0.27  -0.10  -0.34    -0.00  -0.09  -0.16
    13   1    -0.14   0.01   0.48     0.02   0.28   0.04    -0.01   0.11   0.07
    14   1     0.43  -0.00  -0.37    -0.02   0.14   0.40    -0.01   0.10   0.24
    15   1     0.39  -0.15  -0.25     0.12   0.08  -0.45     0.02  -0.01  -0.10
                     25                     26                     27
                      A                      A                      A
 Frequencies --   1346.3252              1400.2998              1429.8346
 Red. masses --      1.1978                 1.2649                 1.3668
 Frc consts  --      1.2792                 1.4614                 1.6464
 IR Inten    --     86.3207                25.9014                 9.6854
  Atom  AN      X      Y      Z        X      Y      Z        X      Y      Z
     1   8     0.00   0.00  -0.00     0.00   0.00   0.00    -0.00  -0.00  -0.00
     2   1     0.01   0.00   0.00     0.01   0.00   0.00    -0.01  -0.00  -0.00
     3   6     0.01  -0.00   0.00     0.01  -0.00   0.00    -0.01   0.00  -0.00
     4   1     0.01  -0.03  -0.01     0.02  -0.05  -0.01    -0.03   0.05   0.01
     5   6    -0.00   0.00   0.00    -0.00   0.00  -0.00     0.00  -0.00   0.00
     6   6    -0.05  -0.03  -0.01    -0.05  -0.01  -0.01     0.05   0.01   0.01
     7   8     0.01  -0.02  -0.00     0.01  -0.01  -0.00    -0.01   0.01   0.00
     8   8     0.04   0.08   0.00     0.03   0.02   0.02    -0.04  -0.02  -0.02
     9   6    -0.03  -0.00   0.00     0.05  -0.01  -0.04    -0.09   0.01   0.09
    10   6    -0.00  -0.06   0.01     0.03  -0.01  -0.12     0.08  -0.01  -0.07
    11   1    -0.55   0.08   0.24    -0.34   0.00   0.23     0.47  -0.01  -0.28
    12   1     0.69  -0.07  -0.28    -0.27   0.10   0.21     0.45  -0.13  -0.28
    13   1     0.01   0.06  -0.04    -0.03   0.01   0.52     0.04  -0.02   0.33
    14   1    -0.03   0.02   0.13    -0.21   0.22   0.34    -0.33   0.06   0.18
    15   1     0.03   0.04  -0.18    -0.24  -0.15   0.34    -0.30   0.02   0.17
                     28                     29                     30
                      A                      A                      A
 Frequencies --   1492.5205              1501.2992              1513.6341
 Red. masses --      1.0413                 1.0686                 1.0747
 Frc consts  --      1.3667                 1.4190                 1.4506
 IR Inten    --     10.9243                 3.9568                15.6008
  Atom  AN      X      Y      Z        X      Y      Z        X      Y      Z
     1   8     0.00   0.00   0.00    -0.00  -0.00  -0.00     0.00   0.00   0.00
     2   1     0.00   0.00   0.00    -0.01  -0.00  -0.00     0.01   0.00   0.00
     3   6     0.00   0.00   0.00    -0.00  -0.00  -0.00     0.00   0.00   0.00
     4   1     0.00  -0.00  -0.00    -0.02   0.03   0.01     0.02  -0.03  -0.01
     5   6    -0.00   0.00  -0.00     0.00  -0.00   0.00    -0.00   0.00  -0.00
     6   6    -0.00   0.00  -0.00     0.02  -0.00   0.00    -0.02   0.00  -0.00
     7   8     0.00  -0.01  -0.00    -0.00   0.01   0.00     0.01  -0.01  -0.00
     8   8     0.00   0.00   0.00    -0.02  -0.01  -0.01     0.01   0.01   0.01
     9   6    -0.01  -0.02   0.01    -0.01  -0.01  -0.06     0.05  -0.01   0.03
    10   6    -0.01  -0.04  -0.01     0.02  -0.01   0.02     0.03  -0.01   0.02
    11   1     0.00   0.06  -0.13     0.18  -0.36   0.39    -0.22   0.26  -0.22
    12   1    -0.00  -0.05  -0.04     0.26   0.33   0.40    -0.28  -0.20  -0.18
    13   1     0.07   0.64  -0.13     0.02   0.21   0.16     0.01   0.15   0.28
    14   1     0.56   0.11   0.01    -0.05  -0.19  -0.24    -0.20  -0.29  -0.34
    15   1    -0.36  -0.04   0.27    -0.30   0.24  -0.17    -0.34   0.35  -0.30
                     31                     32                     33
                      A                      A                      A
 Frequencies --   1612.4844              1839.1618              2386.0219
 Red. masses --      1.3124                11.3111                 6.6537
 Frc consts  --      2.0105                22.5421                22.3185
 IR Inten    --     50.9301               370.5931                35.0372
  Atom  AN      X      Y      Z        X      Y      Z        X      Y      Z
     1   8    -0.04  -0.01  -0.01    -0.01  -0.00  -0.00    -0.02  -0.01  -0.01
     2   1    -0.11  -0.02  -0.05    -0.01  -0.01  -0.00    -0.04  -0.00  -0.02
     3   6     0.02  -0.02  -0.00     0.05  -0.02   0.00     0.49  -0.14   0.01
     4   1    -0.64   0.73   0.15    -0.19   0.20   0.04    -0.56   0.41   0.09
     5   6     0.14  -0.03   0.01     0.02  -0.02   0.00    -0.48   0.13  -0.02
     6   6    -0.05  -0.03  -0.01    -0.27   0.71   0.08     0.07  -0.02   0.00
     7   8    -0.01   0.03   0.00     0.17  -0.47  -0.05    -0.00  -0.00   0.00
     8   8     0.01   0.01   0.00    -0.01  -0.06  -0.01     0.00   0.00   0.00
     9   6     0.01   0.00   0.00    -0.03   0.02   0.00    -0.00  -0.00   0.00
    10   6    -0.00   0.00  -0.00     0.01  -0.00   0.01     0.00   0.00  -0.00
    11   1    -0.03   0.03  -0.01     0.17  -0.10   0.06    -0.00  -0.00  -0.00
    12   1    -0.04  -0.01  -0.01     0.13   0.09   0.02     0.00   0.00  -0.00
    13   1    -0.00   0.00   0.01     0.01  -0.04  -0.05    -0.00   0.00  -0.00
    14   1     0.00  -0.00  -0.01    -0.03  -0.01   0.00     0.00   0.00   0.00
    15   1    -0.00   0.00  -0.00     0.05   0.02  -0.04    -0.00  -0.00   0.00
                     34                     35                     36
                      A                      A                      A
 Frequencies --   3075.7190              3107.9554              3150.9796
 Red. masses --      1.0354                 1.0607                 1.1015
 Frc consts  --      5.7708                 6.0365                 6.4433
 IR Inten    --     10.6735                18.8483                15.5035
  Atom  AN      X      Y      Z        X      Y      Z        X      Y      Z
     1   8     0.00   0.00  -0.00    -0.00  -0.00   0.00     0.00   0.00  -0.00
     2   1     0.00  -0.00   0.00    -0.00   0.00  -0.00     0.00  -0.00   0.00
     3   6     0.00  -0.00   0.00    -0.00   0.00  -0.00     0.00  -0.00   0.00
     4   1    -0.00  -0.00  -0.00     0.00  -0.00   0.00    -0.00  -0.00  -0.00
     5   6    -0.00   0.00  -0.00     0.00  -0.00   0.00    -0.00   0.00  -0.00
     6   6     0.00   0.00   0.00    -0.00  -0.00  -0.00     0.00   0.00  -0.00
     7   8     0.00  -0.00  -0.00    -0.00   0.00  -0.00    -0.00  -0.00  -0.00
     8   8    -0.00  -0.00  -0.00     0.00   0.00  -0.00     0.00  -0.00   0.00
     9   6     0.00   0.00  -0.00     0.03  -0.02   0.06    -0.01  -0.02  -0.01
    10   6    -0.03  -0.00   0.04    -0.01   0.00  -0.01    -0.06   0.05  -0.03
    11   1     0.00   0.01   0.00    -0.20  -0.45  -0.26     0.11   0.25   0.15
    12   1     0.00  -0.02   0.02    -0.11   0.68  -0.43    -0.01   0.03  -0.02
    13   1     0.61  -0.07   0.06     0.13  -0.01   0.02     0.64  -0.06   0.05
    14   1    -0.12   0.49  -0.31     0.01  -0.06   0.03     0.12  -0.57   0.37
    15   1    -0.19  -0.42  -0.24     0.01   0.02   0.01    -0.02  -0.00  -0.01
                     37                     38                     39
                      A                      A                      A
 Frequencies --   3154.9883              3175.5612              3783.7107
 Red. masses --      1.1049                 1.1074                 1.0667
 Frc consts  --      6.4798                 6.5792                 8.9980
 IR Inten    --      2.2122                15.0828                84.3412
  Atom  AN      X      Y      Z        X      Y      Z        X      Y      Z
     1   8     0.00   0.00  -0.00     0.00   0.00  -0.00    -0.00  -0.06   0.02
     2   1     0.00  -0.00   0.00     0.00  -0.00   0.00     0.05   0.93  -0.35
     3   6     0.00  -0.00   0.00    -0.00   0.00   0.00    -0.00   0.00  -0.00
     4   1    -0.00   0.00  -0.00    -0.00  -0.00  -0.00     0.01  -0.00   0.00
     5   6    -0.00  -0.00  -0.00    -0.00   0.00   0.00     0.00  -0.00   0.00
     6   6    -0.00   0.00   0.00     0.00  -0.00  -0.00    -0.00   0.00  -0.00
     7   8     0.00  -0.00   0.00    -0.00   0.00   0.00     0.00  -0.00  -0.00
     8   8     0.00  -0.00  -0.00    -0.00   0.00   0.00     0.00   0.00   0.00
     9   6     0.01   0.05   0.00    -0.01  -0.07  -0.01    -0.00   0.00  -0.00
    10   6    -0.05  -0.05  -0.02    -0.02  -0.06  -0.00     0.00   0.00   0.00
    11   1    -0.16  -0.35  -0.22     0.22   0.50   0.31     0.00   0.00   0.00
    12   1     0.05  -0.31   0.20    -0.06   0.35  -0.24     0.00  -0.00   0.00
    13   1     0.41  -0.05   0.03     0.08  -0.02   0.01     0.00   0.00  -0.00
    14   1    -0.04   0.12  -0.09    -0.07   0.30  -0.21    -0.00   0.00  -0.00
    15   1     0.25   0.55   0.32     0.19   0.41   0.25    -0.00   0.00   0.00

 -------------------
 - Thermochemistry -
 -------------------
 Temperature   298.150 Kelvin.  Pressure   1.00000 Atm.
 Atom     1 has atomic number  8 and mass  15.99491
 Atom     2 has atomic number  1 and mass   1.00783
 Atom     3 has atomic number  6 and mass  12.00000
 Atom     4 has atomic number  1 and mass   1.00783
 Atom     5 has atomic number  6 and mass  12.00000
 Atom     6 has atomic number  6 and mass  12.00000
 Atom     7 has atomic number  8 and mass  15.99491
 Atom     8 has atomic number  8 and mass  15.99491
 Atom     9 has atomic number  6 and mass  12.00000
 Atom    10 has atomic number  6 and mass  12.00000
 Atom    11 has atomic number  1 and mass   1.00783
 Atom    12 has atomic number  1 and mass   1.00783
 Atom    13 has atomic number  1 and mass   1.00783
 Atom    14 has atomic number  1 and mass   1.00783
 Atom    15 has atomic number  1 and mass   1.00783
 Molecular mass:   115.03952 amu.
 Principal axes and moments of inertia in atomic units:
                           1         2         3
     Eigenvalues --   287.026222617.815352730.40421
           X            0.99993   0.00874  -0.00841
           Y           -0.00882   0.99992  -0.00917
           Z            0.00833   0.00925   0.99992
 This molecule is an asymmetric top.
 Rotational symmetry number  1.
 Rotational temperatures (Kelvin)      0.30176     0.03309     0.03172
 Rotational constants (GHZ):           6.28772     0.68941     0.66098
    3 imaginary frequencies ignored.
 Zero-point vibrational energy     282612.5 (Joules/Mol)
                                   67.54601 (Kcal/Mol)
 Warning -- explicit consideration of  10 degrees of freedom as
           vibrations may cause significant error
 Vibrational temperatures:    108.10   164.01   221.65   259.48   327.53
          (Kelvin)            401.14   486.21   607.65   754.04   838.75
                              951.42  1011.72  1127.45  1146.44  1273.49
                             1296.39  1388.16  1549.10  1622.01  1729.18
                             1841.07  1937.06  2014.72  2057.21  2147.40
                             2160.03  2177.78  2320.01  2646.14  3432.95
                             4425.27  4471.65  4533.56  4539.32  4568.92
                             5443.92
 
 Zero-point correction=                           0.107641 (Hartree/Particle)
 Thermal correction to Energy=                    0.115877
 Thermal correction to Enthalpy=                  0.116821
 Thermal correction to Gibbs Free Energy=         0.073495
 Sum of electronic and zero-point Energies=           -420.075313
 Sum of electronic and thermal Energies=              -420.067078
 Sum of electronic and thermal Enthalpies=            -420.066133
 Sum of electronic and thermal Free Energies=         -420.109459
 
                     E (Thermal)             CV                S
                      KCal/Mol        Cal/Mol-Kelvin    Cal/Mol-Kelvin
 Total                   72.714             28.473             91.186
 Electronic               0.000              0.000              1.377
 Translational            0.889              2.981             40.136
 Rotational               0.889              2.981             29.108
 Vibrational             70.936             22.511             20.565
 Vibration     1          0.599              1.966              4.014
 Vibration     2          0.607              1.938              3.200
 Vibration     3          0.620              1.898              2.622
 Vibration     4          0.629              1.866              2.325
 Vibration     5          0.651              1.799              1.897
 Vibration     6          0.679              1.713              1.541
 Vibration     7          0.718              1.600              1.222
 Vibration     8          0.785              1.422              0.884
 Vibration     9          0.879              1.197              0.601
 Vibration    10          0.940              1.068              0.480
                       Q            Log10(Q)             Ln(Q)
 Total Bot       0.156504D-33        -33.805475        -77.839982
 Total V=0       0.508273D+16         15.706097         36.164624
 Vib (Bot)       0.314689D-47        -47.502118       -109.377670
 Vib (Bot)    1  0.274293D+01          0.438215          1.009027
 Vib (Bot)    2  0.179511D+01          0.254092          0.585069
 Vib (Bot)    3  0.131464D+01          0.118808          0.273567
 Vib (Bot)    4  0.111355D+01          0.046710          0.107554
 Vib (Bot)    5  0.866088D+00         -0.062438         -0.143769
 Vib (Bot)    6  0.690029D+00         -0.161133         -0.371022
 Vib (Bot)    7  0.550196D+00         -0.259483         -0.597482
 Vib (Bot)    8  0.415014D+00         -0.381938         -0.879444
 Vib (Bot)    9  0.306839D+00         -0.513089         -1.181432
 Vib (Bot)   10  0.260618D+00         -0.583996         -1.344701
 Vib (V=0)       0.102200D+03          2.009453          4.626936
 Vib (V=0)    1  0.328813D+01          0.516949          1.190319
 Vib (V=0)    2  0.236345D+01          0.373546          0.860121
 Vib (V=0)    3  0.190652D+01          0.280241          0.645278
 Vib (V=0)    4  0.172065D+01          0.235694          0.542705
 Vib (V=0)    5  0.150005D+01          0.176107          0.405501
 Vib (V=0)    6  0.135214D+01          0.131021          0.301687
 Vib (V=0)    7  0.124345D+01          0.094628          0.217888
 Vib (V=0)    8  0.114980D+01          0.060621          0.139586
 Vib (V=0)    9  0.108664D+01          0.036087          0.083093
 Vib (V=0)   10  0.106385D+01          0.026879          0.061890
 Electronic      0.200000D+01          0.301030          0.693147
 Translational   0.484981D+08          7.685724         17.697035
 Rotational      0.512731D+06          5.709889         13.147506
 ***** Axes restored to original set *****
 -------------------------------------------------------------------
 Center     Atomic                   Forces (Hartrees/Bohr)
 Number     Number              X              Y              Z
 -------------------------------------------------------------------
      1        8           0.025253465    0.006786612    0.005739009
      2        1           0.001335261    0.000929612    0.000861490
      3        6          -0.004268205   -0.001185274   -0.002192404
      4        1          -0.030508286   -0.003754959   -0.004401980
      5        6           0.004602862   -0.003711981   -0.001039906
      6        6           0.003377539    0.000687818    0.001073561
      7        8          -0.000569156    0.000128864   -0.000160899
      8        8           0.000247162   -0.000024394    0.000073623
      9        6           0.000527606    0.000097951    0.000045902
     10        6          -0.000022660    0.000019849   -0.000022795
     11        1           0.000003704    0.000011043    0.000006355
     12        1           0.000000153    0.000016413    0.000023724
     13        1          -0.000007887   -0.000001335    0.000007717
     14        1           0.000008404    0.000001687    0.000000550
     15        1           0.000020038   -0.000001907   -0.000013947
 -------------------------------------------------------------------
 Cartesian Forces:  Max     0.030508286 RMS     0.006251381

 GradGradGradGradGradGradGradGradGradGradGradGradGradGradGradGradGradGrad
 Berny optimization.
 Search for a local minimum.
 Step number   1 out of a maximum of    2
 All quantities printed in internal units (Hartrees-Bohrs-Radians)
 Second derivative matrix not updated -- analytic derivatives used.
 ITU=  0
     Eigenvalues ---   -0.02758  -0.00809  -0.00381   0.00115   0.00174
     Eigenvalues ---    0.00205   0.00312   0.00584   0.01528   0.02186
     Eigenvalues ---    0.03227   0.03419   0.04353   0.06014   0.06502
     Eigenvalues ---    0.07578   0.07717   0.08699   0.09048   0.10189
     Eigenvalues ---    0.11264   0.13783   0.14770   0.17103   0.19881
     Eigenvalues ---    0.27386   0.29473   0.33573   0.49185   0.53101
     Eigenvalues ---    0.64998   0.76604   0.79057   0.86037   0.87714
     Eigenvalues ---    0.91407   0.93677   1.71886   2.47631
 Eigenvalue     1 is  -2.76D-02 should be greater than     0.000000 Eigenvector:
                          X4        X1        Y4        X2        Y1
   1                    0.74341  -0.47920   0.20902  -0.20781  -0.15557
                          Z4        Y3        Y2        Z1        X3
   1                    0.15338   0.14829  -0.12844  -0.12084   0.08018
 Eigenvalue     2 is  -8.09D-03 should be greater than     0.000000 Eigenvector:
                          Z4        Z1        Z3        X1        Z2
   1                    0.56961  -0.47950   0.45748   0.25206  -0.21951
                          Z5        Z13       X4        Y1        Z10
   1                    0.21840  -0.09456  -0.08303  -0.07851  -0.07704
 Eigenvalue     3 is  -3.81D-03 should be greater than     0.000000 Eigenvector:
                          X2        Y1        Y3        Z2        Y4
   1                    0.45442  -0.39801   0.35977   0.33284   0.30990
                          Y2        Y5        X7        X1        Y11
   1                   -0.26665   0.21500  -0.16987   0.16380  -0.14483
 Quadratic step=1.642D+00 exceeds max=3.000D-01 adjusted using Lamda=-1.067D-01.
 Angle between NR and scaled steps=  24.05 degrees.
 Angle between quadratic step and forces=  14.02 degrees.
 Linear search not attempted -- first point.
 B after Tr=     0.011680    0.001202    0.002021
         Rot=    1.000000    0.000414    0.000244   -0.000333 Ang=   0.07 deg.
 Variable       Old X    -DE/DX   Delta X   Delta X   Delta X     New X
                                 (Linear)    (Quad)   (Total)
    X1        8.62759   0.02525   0.00000   0.16469   0.17636   8.80395
    Y1       -0.48460   0.00679   0.00000   0.02520   0.03278  -0.45182
    Z1        0.60697   0.00574   0.00000   0.03336   0.04004   0.64701
    X2        8.71713   0.00134   0.00000   0.01058   0.02145   8.73858
    Y2        1.22961   0.00093   0.00000   0.01777   0.02474   1.25435
    Z2       -0.05180   0.00086   0.00000   0.00181   0.00704  -0.04476
    X3        4.28370  -0.00427   0.00000  -0.02204  -0.00987   4.27382
    Y3       -0.59381  -0.00119   0.00000  -0.01980  -0.01590  -0.60971
    Z3       -0.14670  -0.00219   0.00000  -0.01758  -0.01298  -0.15967
    X4        6.40952  -0.03051   0.00000  -0.23563  -0.22307   6.18646
    Y4       -1.18549  -0.00375   0.00000  -0.03789  -0.03270  -1.21819
    Z4       -0.11026  -0.00440   0.00000  -0.03690  -0.03086  -0.14112
    X5        2.09499   0.00460   0.00000  -0.01124   0.00052   2.09551
    Y5        0.04291  -0.00371   0.00000  -0.01723  -0.01482   0.02809
    Z5       -0.20162  -0.00104   0.00000  -0.01237  -0.00936  -0.21098
    X6       -0.56762   0.00338   0.00000  -0.00382   0.00753  -0.56009
    Y6        0.76194   0.00069   0.00000   0.00275   0.00328   0.76522
    Z6       -0.35711   0.00107   0.00000   0.00228   0.00339  -0.35373
    X7       -1.29996  -0.00057   0.00000  -0.01222  -0.00241  -1.30236
    Y7        2.89499   0.00013   0.00000   0.00055   0.00078   2.89576
    Z7       -0.12082  -0.00016   0.00000   0.00203   0.00102  -0.11980
    X8       -2.02566   0.00025   0.00000  -0.01132   0.00157  -2.02409
    Y8       -1.24120  -0.00002   0.00000   0.00297   0.00216  -1.23904
    Z8       -0.80077   0.00007   0.00000   0.00014   0.00219  -0.79857
    X9       -4.70640   0.00053   0.00000  -0.00961   0.00305  -4.70335
    Y9       -0.76569   0.00010   0.00000   0.00358   0.00085  -0.76484
    Z9       -0.96188   0.00005   0.00000   0.00032   0.00068  -0.96120
   X10       -5.86801  -0.00002   0.00000  -0.00997   0.00127  -5.86675
   Y10       -0.53163   0.00002   0.00000   0.00202   0.00068  -0.53095
   Z10        1.64633  -0.00002   0.00000   0.00051   0.00011   1.64643
   X11       -5.43927   0.00000   0.00000  -0.00725   0.00699  -5.43228
   Y11       -2.39623   0.00001   0.00000   0.00258  -0.00148  -2.39771
   Z11       -1.97923   0.00001   0.00000  -0.00031   0.00104  -1.97819
   X12       -5.00821   0.00000   0.00000  -0.00685   0.00522  -5.00299
   Y12        0.93836   0.00002   0.00000   0.00317  -0.00069   0.93767
   Z12       -2.08096   0.00002   0.00000   0.00023  -0.00097  -2.08194
   X13       -7.91244  -0.00001   0.00000  -0.00854   0.00263  -7.90981
   Y13       -0.31547  -0.00000   0.00000   0.00217  -0.00068  -0.31615
   Z13        1.47384   0.00001   0.00000   0.00092  -0.00065   1.47318
   X14       -5.48126   0.00001   0.00000  -0.00700   0.00482  -5.47644
   Y14       -2.22294   0.00000   0.00000   0.00100   0.00083  -2.22211
   Z14        2.75991   0.00000   0.00000  -0.00105   0.00014   2.76004
   X15       -5.12122   0.00002   0.00000  -0.00571   0.00394  -5.11727
   Y15        1.11629  -0.00000   0.00000   0.00021   0.00017   1.11647
   Z15        2.63134  -0.00001   0.00000   0.00058  -0.00082   2.63052
         Item               Value     Threshold  Converged?
 Maximum Force            0.030508     0.000450     NO 
 RMS     Force            0.006251     0.000300     NO 
 Maximum Displacement     0.223066     0.001800     NO 
 RMS     Displacement     0.044159     0.001200     NO 
 Predicted change in Energy=-1.325804D-02
 GradGradGradGradGradGradGradGradGradGradGradGradGradGradGradGradGradGrad


 ----------------------------------------------------------------------

 Electric dipole moment (input orientation):
 (Debye = 10**-18 statcoulomb cm , SI units = C m)
                  (au)            (Debye)         (10**-30 SI)
   Tot        0.362722D+00      0.921947D+00      0.307528D+01
   x         -0.148385D+00     -0.377158D+00     -0.125806D+01
   y         -0.120163D+00     -0.305423D+00     -0.101878D+01
   z         -0.308399D+00     -0.783872D+00     -0.261471D+01

 Dipole polarizability, Alpha (input orientation).
 (esu units = cm**3 , SI units = C**2 m**2 J**-1)
 Alpha(0;0):
               (au)            (10**-24 esu)      (10**-40 SI)
   iso        0.783894D+02      0.116161D+02      0.129247D+02
   aniso      0.708056D+02      0.104923D+02      0.116743D+02
   xx         0.124745D+03      0.184853D+02      0.205677D+02
   yx        -0.547736D+01     -0.811660D+00     -0.903094D+00
   yy         0.602425D+02      0.892702D+01      0.993265D+01
   zx         0.198593D+01      0.294285D+00      0.327436D+00
   zy         0.505444D+00      0.748990D-01      0.833364D-01
   zz         0.501806D+02      0.743600D+01      0.827367D+01

 ----------------------------------------------------------------------

 Dipole orientation:
     8          7.63441576          1.28887321         -3.88497854
     1          7.85979460         -0.53534067         -3.92938173
     6          3.99974112          0.82375331         -1.43096963
     1          5.96172124          1.54811532         -2.13558562
     6          1.98483598          0.04629291         -0.69982754
     6         -0.42599658         -0.87662920          0.28341935
     8         -1.34499577         -2.85851332         -0.32452903
     8         -1.42393924          0.75392793          1.92069885
     6         -3.83112708          0.05689819          2.99681750
     6         -5.97180436          0.61568062          1.17689153
     1         -3.96209176          1.20000784          4.70177631
     1         -3.77265120         -1.93891820          3.50724964
     1         -7.77658252          0.20545285          2.08828982
     1         -5.95170450          2.60390412          0.63217101
     1         -5.81621979         -0.55348024         -0.51202831

 Electric dipole moment (dipole orientation):
 (Debye = 10**-18 statcoulomb cm , SI units = C m)
                  (au)            (Debye)         (10**-30 SI)
   Tot        0.362722D+00      0.921947D+00      0.307528D+01
   x          0.000000D+00      0.000000D+00      0.000000D+00
   y          0.000000D+00      0.000000D+00      0.000000D+00
   z          0.362722D+00      0.921947D+00      0.307528D+01

 Dipole polarizability, Alpha (dipole orientation).
 (esu units = cm**3 , SI units = C**2 m**2 J**-1)
 Alpha(0;0):
               (au)            (10**-24 esu)      (10**-40 SI)
   iso        0.783894D+02      0.116161D+02      0.129247D+02
   aniso      0.708056D+02      0.104923D+02      0.116743D+02
   xx         0.111203D+03      0.164785D+02      0.183348D+02
   yx         0.110978D+02      0.164452D+01      0.182978D+01
   yy         0.600205D+02      0.889412D+01      0.989604D+01
   zx        -0.271174D+02     -0.401839D+01     -0.447106D+01
   zy        -0.111761D+01     -0.165613D+00     -0.184269D+00
   zz         0.639451D+02      0.947569D+01      0.105431D+02

 ----------------------------------------------------------------------
 1\1\GINC-AJ\Freq\UM062X\6-311++G(d,p)\C5H7O3(2)\AAYUSH\23-Jun-2025\0\\
 # freq 6-311++g(d,p) m062x\\Title Card Required\\0,2\O,4.565524,-0.256
 439,0.321194\H,4.612907,0.650683,-0.027414\C,2.266834,-0.314229,-0.077
 628\H,3.391773,-0.627332,-0.058349\C,1.108621,0.022707,-0.106693\C,-0.
 300371,0.403203,-0.188976\O,-0.687907,1.531961,-0.063936\O,-1.071932,-
 0.656815,-0.423747\C,-2.490519,-0.405188,-0.509004\C,-3.105218,-0.2813
 26,0.871199\H,-2.878337,-1.268029,-1.047362\H,-2.650231,0.496559,-1.10
 1198\H,-4.187082,-0.166939,0.779922\H,-2.900558,-1.176328,1.460479\H,-
 2.710032,0.590717,1.392444\\Version=ES64L-G16RevA.03\State=2-A\HF=-420
 .1829542\S2=0.756714\S2-1=0.\S2A=0.750033\RMSD=7.248e-09\RMSF=6.251e-0
 3\ZeroPoint=0.1076414\Thermal=0.1158766\Dipole=-0.1483855,-0.1201628,-
 0.3083988\DipoleDeriv=0.0788335,-0.0261558,0.0291133,-0.0279871,-0.228
 0962,-0.0538083,0.2212453,-0.0737511,-0.3238076,0.4824533,0.0168603,0.
 0015926,0.1777812,0.2311737,0.0642912,-0.0631933,0.0636539,0.3350133,-
 0.2693487,0.037985,0.0370774,-0.0589463,-0.1892445,-0.0061843,0.037829
 5,0.0113191,-0.1780345,-0.2341499,0.0098543,-0.0649389,-0.0729102,0.22
 57743,-0.0009808,-0.1755314,0.0107351,0.2015604,-0.7878519,0.078575,-0
 .0234607,0.056016,-0.1253908,-0.0043134,-0.0824413,-0.0123888,-0.08059
 91,2.5936758,-0.0021312,0.111217,0.4486129,1.8005925,0.1544517,0.26143
 97,0.199462,0.4211186,-1.0011177,0.2697608,0.0037387,0.1174985,-1.1491
 879,-0.0611747,-0.0307832,-0.0725457,-0.3608902,-1.8075917,-0.400509,-
 0.0364588,-0.6087942,-0.8745897,-0.095386,-0.1834456,-0.1387051,-0.356
 7244,1.0636174,0.1046787,-0.04549,-0.0377373,0.256502,0.0024264,-0.016
 7548,0.047288,0.3559902,-0.0844764,-0.0353798,0.0159752,0.0066957,0.03
 63471,-0.0190525,0.0469195,-0.0509792,-0.0832292,-0.0339855,-0.0249415
 ,-0.0007697,-0.0618832,-0.0234416,-0.0914871,-0.0191848,-0.0652526,0.0
 059243,-0.0274591,-0.0364792,0.0289866,0.0623736,-0.004237,0.0884285,0
 .0081364,0.0435433,-0.0098811,-0.1326904,0.011791,-0.0007934,0.0178205
 ,0.0951144,0.0029186,-0.004307,0.0162194,0.0587443,0.0760791,0.0513092
 ,-0.0185582,0.0211178,-0.0425751,0.0843097,0.0186834,0.0494958,-0.0022
 717,0.0840122,-0.0552178,-0.0372311,-0.0396579,-0.008741,-0.064439,-0.
 0186126,-0.028094,0.0170867\Polar=124.7449883,-5.4773558,60.2425397,1.
 9859343,0.5054436,50.1806285\Quadrupole=8.6460887,-5.872733,-2.7733558
 ,5.9727453,-1.8075166,-0.310435\PG=C01 [X(C5H7O3)]\NImag=3\\0.05921320
 ,0.02365798,0.44728903,0.01022487,-0.17193058,0.06677922,-0.02409663,-
 0.01400568,-0.00047222,0.02133256,-0.03054005,-0.44566782,0.16664447,0
 .02690171,0.44782804,0.00503912,0.17374574,-0.06985827,-0.00405683,-0.
 16939855,0.06768455,-0.09030479,-0.02335217,-0.02624770,-0.00324818,-0
 .00103382,-0.00038639,1.22871326,0.01835103,0.01142107,0.00478389,-0.0
 0122445,0.00163269,0.00097281,-0.31982629,0.14090359,-0.01003377,0.001
 97767,0.00224600,0.00288468,-0.00061322,0.00010745,0.03761196,-0.00845
 351,0.05144150,0.06485766,0.01276733,0.01760005,0.00322679,0.00398852,
 -0.00054949,-0.13105897,0.02682330,-0.00419965,0.04458078,-0.01627262,
 -0.01185553,-0.00068078,-0.01069825,-0.00363878,-0.00505792,0.06675146
 ,-0.05071020,0.00014914,-0.03883160,0.05844642,-0.00636010,-0.00362491
 ,0.00094286,0.00184244,0.00324441,0.00231385,0.01735589,-0.00464002,-0
 .02765751,-0.01265972,0.00539370,0.01655579,-0.00904130,0.00124537,-0.
 00068242,0.00358360,0.00136384,-0.00001026,-1.00476575,0.27464686,-0.0
 2568063,0.01632792,-0.00275744,-0.00067259,1.31908500,0.00658595,-0.00
 130759,0.00166690,-0.00145150,0.00000835,-0.00024187,0.27357241,-0.107
 07146,0.00632997,-0.00824102,0.00344227,-0.00102156,-0.33161568,0.1977
 8541,0.00163885,0.00009330,-0.00005709,0.00002320,0.00021064,-0.000272
 74,-0.02987555,0.00730266,-0.02946145,-0.00136757,-0.00008377,0.004377
 79,0.04863570,-0.00471308,0.06184588,-0.00244249,-0.00005695,-0.001837
 86,-0.00277110,-0.00237093,0.00044857,0.00905641,-0.00014634,-0.000879
 48,0.00462719,0.00275874,0.00177352,-0.24642261,0.04685147,-0.00914220
 ,0.66202755,-0.00159982,-0.00004973,-0.00043524,0.00057389,0.00046036,
 0.00006324,0.00395056,0.00144120,0.00068944,0.00277635,0.00417848,0.00
 021074,0.02855391,-0.06510400,0.00336583,-0.14726062,0.94474669,-0.000
 65920,-0.00041726,-0.00017026,-0.00050667,-0.00016391,0.00022312,0.002
 77468,-0.00045690,0.00293707,0.00158315,0.00021806,0.00468995,-0.01485
 984,0.00640044,-0.07260417,0.02298513,0.09133089,0.22649264,0.00146391
 ,-0.00018547,0.00085706,0.00088222,0.00098154,-0.00021500,-0.00491738,
 -0.00001107,-0.00004346,-0.00236326,-0.00162926,-0.00097116,-0.0236308
 7,0.04920995,0.00236910,-0.18688174,0.21783543,0.02068291,0.18577601,-
 0.00055964,0.00008896,-0.00037888,-0.00056606,-0.00084099,0.00004022,-
 0.00059864,0.00217230,-0.00005155,0.00138884,0.00062475,0.00070114,0.0
 4391222,-0.03058836,-0.00321673,0.20540950,-0.67289452,-0.06521091,-0.
 23473923,0.80740453,0.00002415,0.00012941,0.00000567,0.00008047,-0.000
 02604,-0.00016363,-0.00083461,0.00033999,0.00003067,-0.00025488,-0.000
 01443,-0.00059614,0.00227166,-0.00285436,0.02150423,0.01912328,-0.0624
 5242,-0.08778783,-0.01865427,0.08864571,0.04547185,0.00058872,-0.00013
 400,0.00075385,0.00142377,0.00096104,-0.00031916,-0.00440578,0.0015315
 8,0.00029724,-0.00052353,0.00052044,-0.00048829,-0.05641110,-0.0327853
 9,-0.01200658,-0.18645821,-0.09490599,-0.02347419,0.02903628,-0.024847
 98,-0.00566323,0.48895206,0.00039803,0.00008740,0.00032178,0.00043009,
 0.00018626,-0.00011210,0.00111530,-0.00033913,-0.00010956,-0.00070683,
 -0.00063009,-0.00031004,-0.01232768,0.00602847,-0.00144716,-0.06907582
 ,-0.22274769,-0.02856791,-0.02624027,-0.10399952,-0.02327357,0.0862576
 2,0.41203084,0.00012160,0.00002278,0.00013493,0.00021170,0.00010736,-0
 .00008352,-0.00027002,0.00007422,0.00039652,-0.00018932,-0.00003195,-0
 .00036906,-0.00803792,-0.00379616,0.00965581,-0.02152402,-0.03214778,-
 0.07345518,-0.00457999,-0.02251252,0.02689293,0.04907516,0.05606193,0.
 09624479,-0.00032488,0.00007088,-0.00030549,-0.00057027,-0.00041834,0.
 00009012,0.00174601,-0.00029904,-0.00000019,0.00043737,0.00015463,0.00
 025990,0.00380461,-0.00055022,0.00067550,-0.05087240,-0.03398638,-0.01
 204267,-0.00113145,0.01986603,0.00293817,-0.17617912,0.02090152,-0.011
 66415,0.44290919,-0.00001083,-0.00001447,0.00002755,0.00004253,0.00003
 572,-0.00002514,-0.00063328,0.00056679,0.00012429,0.00003429,0.0001654
 6,0.00004701,-0.00373399,-0.00345211,-0.00195241,-0.03484259,0.0146496
 1,-0.00223548,-0.00016843,-0.00390528,-0.00003303,0.04264882,-0.100141
 07,0.00151723,0.04273410,0.65103652,0.00001684,0.00000178,-0.00002193,
 -0.00001742,-0.00000973,0.00004958,-0.00014674,0.00012412,-0.00015645,
 0.00001741,0.00012210,-0.00024600,-0.00131486,-0.00195592,0.00545009,-
 0.01165895,-0.00492715,-0.00186473,-0.00206081,0.00241977,-0.00553603,
 -0.00837959,0.00037839,-0.06651868,0.03493473,0.00062216,0.54935942,0.
 00003807,-0.00001018,0.00005637,0.00011343,0.00007972,-0.00002573,-0.0
 0028774,0.00005501,0.00003030,-0.00005622,-0.00003245,0.00003076,-0.00
 076079,-0.00017782,-0.00166639,0.00170849,0.00757803,0.00385476,0.0005
 6236,-0.00300861,0.00075203,-0.03963206,0.00227539,0.03554153,-0.08602
 733,0.00039313,0.03379820,0.56903872,-0.00001895,-0.00000255,-0.000022
 19,-0.00001798,-0.00000934,0.00001514,0.00008222,-0.00003880,-0.000092
 96,0.00003036,0.00001826,0.00000873,0.00018088,-0.00003268,0.00052052,
 -0.00154451,0.00063391,0.00095093,0.00088555,0.00062568,-0.00113718,0.
 00631482,0.00157589,-0.00455357,0.00015526,-0.08602038,-0.00865903,0.0
 0405849,0.58868732,0.00000822,0.00000206,0.00000769,0.00002763,0.00001
 943,-0.00000673,-0.00015581,0.00001016,0.00003458,-0.00000624,-0.00001
 412,0.00000600,0.00017489,-0.00004259,-0.00046728,0.00005158,0.0043397
 8,0.00179046,0.00165930,-0.00153668,-0.00132592,0.00059852,-0.00246053
 ,0.00688224,0.04582352,-0.00960474,-0.20342583,0.03939126,-0.00583187,
 0.51061950,0.00003793,-0.00000115,0.00004720,0.00008379,0.00005474,-0.
 00001890,-0.00043814,0.00019555,0.00001496,-0.00004264,0.00002005,-0.0
 0005680,-0.00133300,-0.00118655,0.00013540,-0.00384943,0.00632024,-0.0
 0145168,0.00157820,-0.00144103,0.00009497,-0.03266188,-0.03159075,-0.0
 1751985,-0.07421134,-0.06844216,-0.04310301,0.00694562,0.01222581,0.00
 688757,0.10040126,0.00001766,-0.00000465,0.00002045,0.00001682,0.00001
 092,-0.00001086,0.00000515,-0.00004256,0.00004529,-0.00002113,-0.00002
 157,-0.00000821,0.00021010,0.00033502,-0.00029803,0.00236738,-0.001977
 66,0.00011045,-0.00200833,0.00117934,-0.00033915,0.00560769,0.00801868
 ,0.00514781,-0.08080399,-0.23371010,-0.10824030,0.00057263,0.00030736,
 0.00050421,0.08184640,0.24187725,-0.00000333,0.00000511,-0.00000110,0.
 00000618,0.00000069,-0.00000043,0.00000758,0.00000799,0.00001816,-0.00
 000124,-0.00000610,-0.00000783,-0.00016660,-0.00005167,0.00004980,0.00
 059788,0.00242601,0.00035953,0.00109033,-0.00024638,0.00047507,-0.0030
 6601,-0.00187382,0.00033747,-0.04808484,-0.10610651,-0.11737838,-0.009
 61554,-0.02538870,-0.01538315,0.04954413,0.11699226,0.12387819,0.00001
 172,0.00000114,0.00002312,0.00005621,0.00004081,-0.00000643,-0.0000817
 4,-0.00007131,-0.00001926,-0.00001110,0.00000425,-0.00006132,-0.000423
 29,-0.00025637,0.00076353,0.00236454,0.00904724,0.00030227,0.00066274,
 -0.00375744,-0.00054241,-0.02623548,0.02975486,-0.02194266,-0.05256384
 ,0.02017077,-0.01494756,0.00387648,-0.01246445,0.00787272,0.00343118,-
 0.00862839,0.00712599,0.06924753,-0.00002527,0.00001198,-0.00003300,-0
 .00002084,-0.00001948,0.00001372,0.00007943,0.00003484,-0.00007032,0.0
 0002221,0.00000495,0.00000872,0.00032958,-0.00019029,0.00062984,-0.002
 68327,-0.00106002,-0.00107566,-0.00200081,-0.00006806,-0.00108540,0.00
 818791,-0.00181650,0.00081884,0.03062569,-0.23989746,0.12320661,-0.001
 57688,0.00492777,-0.00314051,0.00271211,-0.01798515,0.01337370,-0.0352
 3520,0.25454521,-0.00002590,-0.00000087,-0.00001427,-0.00001668,-0.000
 01329,0.00000522,0.00011425,-0.00004366,0.00005776,0.00004739,0.000026
 35,0.00000285,0.00004728,-0.00021202,-0.00015161,-0.00047127,0.0036123
 0,0.00127248,0.00157347,-0.00139167,-0.00020162,-0.00374376,-0.0003830
 4,0.00021266,-0.01959038,0.11924846,-0.12993667,-0.00298815,0.02562204
 ,-0.01672224,0.00333095,-0.01348649,0.01051527,0.01952256,-0.13181351,
 0.13780459,0.00002366,-0.00000371,0.00002824,0.00005513,0.00003799,-0.
 00001024,-0.00008853,-0.00001110,0.00004089,-0.00003807,-0.00002130,-0
 .00002735,-0.00021840,0.00006794,-0.00026309,0.00152296,0.00166386,0.0
 0025620,-0.00006727,-0.00064095,0.00021623,-0.00138459,-0.00083697,0.0
 0321642,-0.01243644,0.00095137,-0.00449177,-0.31394173,0.02823214,-0.0
 2275980,0.00035297,0.00031744,0.00020379,0.00023537,-0.00036989,0.0002
 6373,0.34033335,0.00000294,0.00000113,0.00000206,0.00000071,0.00000209
 ,-0.00000062,-0.00002520,0.00000767,0.00004977,-0.00000561,-0.00000491
 ,-0.00000501,0.00003990,0.00006717,-0.00017753,0.00011008,-0.00137733,
 -0.00055038,-0.00053567,0.00036277,0.00066389,0.00130886,0.00148119,-0
 .00069482,0.00202799,-0.00239851,0.00087576,0.02784873,-0.04854167,0.0
 0228044,-0.00012568,-0.00006308,0.00015263,0.00003516,0.00001301,-0.00
 006258,-0.03120381,0.04824207,-0.00001587,0.00000288,-0.00000876,-0.00
 002819,-0.00002149,0.00000433,0.00012751,-0.00003366,-0.00000811,0.000
 01607,0.00000489,-0.00000922,0.00025296,0.00016817,0.00043148,-0.00068
 880,-0.00333189,-0.00137564,-0.00051982,0.00129744,0.00033529,0.007598
 25,0.00060534,-0.00598995,0.02798922,-0.00276509,0.00712299,-0.0249282
 9,0.00273880,-0.05013252,-0.00078860,-0.00060861,0.00104682,-0.0006946
 9,0.00085183,0.00082872,0.02422948,-0.00230294,0.05121548,-0.00000449,
 0.00000458,-0.00001622,-0.00002375,-0.00001533,0.00000884,0.00000593,0
 .00002335,-0.00003512,0.00000507,0.00000120,0.00001893,0.00006045,0.00
 000724,0.00004252,-0.00046679,-0.00153546,-0.00024140,-0.00044577,0.00
 061123,0.00021737,0.00245581,-0.00005538,-0.00086198,0.00069037,-0.012
 30786,0.00916778,-0.05684212,0.04313885,-0.02966915,0.00021023,0.00028
 045,-0.00085873,-0.00066194,0.00023634,0.00286184,-0.00423201,0.026838
 82,-0.01747421,0.05725671,0.00001244,-0.00000013,-0.00000359,0.0000048
 1,0.00000362,0.00000622,-0.00006243,0.00001916,0.00000176,-0.00001696,
 -0.00000746,0.00000472,-0.00007995,0.00007253,-0.00012495,0.00024927,-
 0.00087914,0.00023861,-0.00057411,0.00039681,0.00035869,-0.00104535,0.
 00033196,-0.00019835,-0.00072005,0.00393104,-0.00283764,0.04277874,-0.
 23526924,0.11996368,-0.00046965,0.00073877,0.00041189,0.00088174,0.000
 99431,-0.00111591,0.00000407,-0.00198058,-0.00001481,-0.04726219,0.250
 49407,-0.00000239,-0.00000431,-0.00000083,-0.00000644,-0.00000139,-0.0
 0000050,0.00003343,-0.00002729,0.00000780,0.00000561,0.00000779,0.0000
 0423,0.00003750,0.00005848,-0.00007423,0.00016756,0.00038196,0.0000594
 9,-0.00008941,-0.00023800,0.00020760,-0.00152546,-0.00101189,0.0028898
 3,-0.00695893,0.02805974,-0.01965489,-0.02742795,0.11768781,-0.1239322
 1,-0.00051456,-0.00020092,0.00107800,0.00307740,-0.00177278,-0.0048452
 2,-0.00034265,0.00061990,-0.00172253,0.02892542,-0.13074591,0.13667648
 ,-0.00002027,0.00000204,-0.00002884,-0.00004757,-0.00003144,0.00001178
 ,0.00007540,-0.00003706,0.00001154,0.00003102,0.00003214,0.00001588,0.
 00014552,-0.00003042,0.00003761,-0.00114237,0.00098875,0.00079655,-0.0
 0052399,-0.00102823,0.00023109,0.00143510,-0.00029911,-0.00157651,0.00
 472952,0.01316413,0.00818576,-0.08473519,-0.08125849,-0.04990423,-0.00
 050477,0.00022014,0.00322042,0.00009161,-0.00028110,-0.00092533,-0.010
 11638,-0.02631723,-0.01507501,0.00199228,0.00629962,0.00462087,0.08859
 009,0.00000118,0.00000290,0.00001716,0.00001420,0.00000836,-0.00001002
 ,-0.00002471,0.00000285,0.00002378,-0.00000805,-0.00001204,-0.00000941
 ,0.00003208,0.00000729,-0.00010912,0.00023459,-0.00002014,-0.00057096,
 -0.00081982,-0.00055841,0.00107788,0.00037992,-0.00006669,0.00018497,0
 .00024193,-0.00084577,-0.00112093,-0.08083393,-0.22686152,-0.10448873,
 -0.00011793,0.00133743,0.00030293,0.00047720,0.00050490,0.00001390,0.0
 0181293,0.00418901,0.00340914,-0.00996583,-0.01884571,-0.01281318,0.08
 857626,0.24115754,0.00002692,-0.00000279,0.00001616,0.00002815,0.00002
 062,-0.00000228,-0.00010848,0.00003919,0.00000601,-0.00004156,-0.00003
 295,-0.00000756,0.00000514,0.00026528,-0.00022652,0.00105506,-0.003125
 70,-0.00056693,-0.00109823,0.00167905,0.00068785,0.00034326,0.00218219
 ,0.00276921,-0.01406449,-0.02692404,-0.01724248,-0.04680318,-0.1018584
 6,-0.10794460,0.00339824,0.00037208,-0.00498742,-0.00047326,0.00008791
 ,0.00117205,-0.00056010,-0.00085055,-0.00173839,0.00791410,0.01405559,
 0.00930696,0.05037841,0.11409258,0.11875794\\-0.02525347,-0.00678661,-
 0.00573901,-0.00133526,-0.00092961,-0.00086149,0.00426820,0.00118527,0
 .00219240,0.03050829,0.00375496,0.00440198,-0.00460286,0.00371198,0.00
 103991,-0.00337754,-0.00068782,-0.00107356,0.00056916,-0.00012886,0.00
 016090,-0.00024716,0.00002439,-0.00007362,-0.00052761,-0.00009795,-0.0
 0004590,0.00002266,-0.00001985,0.00002279,-0.00000370,-0.00001104,-0.0
 0000636,-0.00000015,-0.00001641,-0.00002372,0.00000789,0.00000133,-0.0
 0000772,-0.00000840,-0.00000169,-0.00000055,-0.00002004,0.00000191,0.0
 0001395\\\@


 WHAT, THEN, IS TIME?  IF NO ONE ASKS ME, I KNOW WHAT IT IS.
 IF I WISH TO EXPLAIN WHAT IT IS TO HIM WHO ASKS ME, I DO NOT KNOW.
                                   -- ST. AUGUSTINE (FIFTH CENTURY)
 Job cpu time:       0 days  0 hours 51 minutes 23.8 seconds.
 Elapsed time:       0 days  0 hours  2 minutes  8.5 seconds.
 File lengths (MBytes):  RWF=    153 Int=      0 D2E=      0 Chk=      8 Scr=      1
 Normal termination of Gaussian 16 at Mon Jun 23 00:25:01 2025.
