 Entering Gaussian System, Link 0=g16
 Initial command:
 /opt/g16/l1.exe "/home/aayush/scratches/g16/Gau-8576.inp" -scrdir="/home/aayush/scratches/g16/"
 Entering Link 1 = /opt/g16/l1.exe PID=      8579.
  
 Copyright (c) 1988,1990,1992,1993,1995,1998,2003,2009,2016,
            Gaussian, Inc.  All Rights Reserved.
  
 This is part of the Gaussian(R) 16 program.  It is based on
 the Gaussian(R) 09 system (copyright 2009, Gaussian, Inc.),
 the Gaussian(R) 03 system (copyright 2003, Gaussian, Inc.),
 the Gaussian(R) 98 system (copyright 1998, Gaussian, Inc.),
 the Gaussian(R) 94 system (copyright 1995, Gaussian, Inc.),
 the Gaussian 92(TM) system (copyright 1992, Gaussian, Inc.),
 the Gaussian 90(TM) system (copyright 1990, Gaussian, Inc.),
 the Gaussian 88(TM) system (copyright 1988, Gaussian, Inc.),
 the Gaussian 86(TM) system (copyright 1986, Carnegie Mellon
 University), and the Gaussian 82(TM) system (copyright 1983,
 Carnegie Mellon University). Gaussian is a federally registered
 trademark of Gaussian, Inc.
  
 This software contains proprietary and confidential information,
 including trade secrets, belonging to Gaussian, Inc.
  
 This software is provided under written license and may be
 used, copied, transmitted, or stored only in accord with that
 written license.
  
 The following legend is applicable only to US Government
 contracts under FAR:
  
                    RESTRICTED RIGHTS LEGEND
  
 Use, reproduction and disclosure by the US Government is
 subject to restrictions as set forth in subparagraphs (a)
 and (c) of the Commercial Computer Software - Restricted
 Rights clause in FAR 52.227-19.
  
 Gaussian, Inc.
 340 Quinnipiac St., Bldg. 40, Wallingford CT 06492
  
  
 ---------------------------------------------------------------
 Warning -- This program may not be used in any manner that
 competes with the business of Gaussian, Inc. or will provide
 assistance to any competitor of Gaussian, Inc.  The licensee
 of this program is prohibited from giving any competitor of
 Gaussian, Inc. access to this program.  By using this program,
 the user acknowledges that Gaussian, Inc. is engaged in the
 business of creating and licensing software in the field of
 computational chemistry and represents and warrants to the
 licensee that it is not a competitor of Gaussian, Inc. and that
 it will not use this program in any manner prohibited above.
 ---------------------------------------------------------------
  

 Cite this work as:
 Gaussian 16, Revision A.03,
 M. J. Frisch, G. W. Trucks, H. B. Schlegel, G. E. Scuseria, 
 M. A. Robb, J. R. Cheeseman, G. Scalmani, V. Barone, 
 G. A. Petersson, H. Nakatsuji, X. Li, M. Caricato, A. V. Marenich, 
 J. Bloino, B. G. Janesko, R. Gomperts, B. Mennucci, H. P. Hratchian, 
 J. V. Ortiz, A. F. Izmaylov, J. L. Sonnenberg, D. Williams-Young, 
 F. Ding, F. Lipparini, F. Egidi, J. Goings, B. Peng, A. Petrone, 
 T. Henderson, D. Ranasinghe, V. G. Zakrzewski, J. Gao, N. Rega, 
 G. Zheng, W. Liang, M. Hada, M. Ehara, K. Toyota, R. Fukuda, 
 J. Hasegawa, M. Ishida, T. Nakajima, Y. Honda, O. Kitao, H. Nakai, 
 T. Vreven, K. Throssell, J. A. Montgomery, Jr., J. E. Peralta, 
 F. Ogliaro, M. J. Bearpark, J. J. Heyd, E. N. Brothers, K. N. Kudin, 
 V. N. Staroverov, T. A. Keith, R. Kobayashi, J. Normand, 
 K. Raghavachari, A. P. Rendell, J. C. Burant, S. S. Iyengar, 
 J. Tomasi, M. Cossi, J. M. Millam, M. Klene, C. Adamo, R. Cammi, 
 J. W. Ochterski, R. L. Martin, K. Morokuma, O. Farkas, 
 J. B. Foresman, and D. J. Fox, Gaussian, Inc., Wallingford CT, 2016.
 
 ******************************************
 Gaussian 16:  ES64L-G16RevA.03 25-Dec-2016
                16-Aug-2025 
 ******************************************
 %chk=ethyl_propiolate.chk
 %nprocshared=24
 Will use up to   24 processors via shared memory.
 %mem=12GB
 --------------------------
 # freq 6-311++g(d,p) m062x
 --------------------------
 1/10=4,30=1,38=1/1,3;
 2/12=2,17=6,18=5,40=1/2;
 3/5=4,6=6,7=1111,11=2,25=1,30=1,71=2,74=-55,140=1/1,2,3;
 4//1;
 5/5=2,38=5,98=1/2;
 8/6=4,10=90,11=11/1;
 11/6=1,8=1,9=11,15=111,16=1/1,2,10;
 10/6=1/2;
 6/7=2,8=2,9=2,10=2,28=1/1;
 7/8=1,10=1,25=1/1,2,3,16;
 1/10=4,30=1/3;
 99//99;
 -------------------
 Title Card Required
 -------------------
 Symbolic Z-matrix:
 Charge =  0 Multiplicity = 2
 O                     4.50032  -0.26634   0.33718 
 H                     4.53096   0.6213   -0.04088 
 C                     2.19283  -0.32271  -0.06287 
 H                     3.72243  -0.7147   -0.10621 
 C                     1.03607   0.01631  -0.09273 
 C                    -0.36827   0.39001  -0.17825 
 O                    -0.7525    1.51893  -0.05062 
 O                    -1.1353   -0.6704   -0.41264 
 C                    -2.55404  -0.41988  -0.49778 
 C                    -3.16822  -0.29737   0.88259 
 H                    -2.94099  -1.28255  -1.03682 
 H                    -2.7139    0.48218  -1.08944 
 H                    -4.2501   -0.18368   0.79133 
 H                    -2.96302  -1.19266   1.47118 
 H                    -2.77387   0.57461   1.40458 
 

 GradGradGradGradGradGradGradGradGradGradGradGradGradGradGradGradGradGrad
 Berny optimization.
 Initialization pass.
 Trust Radius=3.00D-01 FncErr=1.00D-07 GrdErr=1.00D-07 EigMax=2.50D+02 EigMin=1.00D-04
 Number of steps in this run=      2 maximum allowed number of steps=      2.
 GradGradGradGradGradGradGradGradGradGradGradGradGradGradGradGradGradGrad

                          Input orientation:                          
 ---------------------------------------------------------------------
 Center     Atomic      Atomic             Coordinates (Angstroms)
 Number     Number       Type             X           Y           Z
 ---------------------------------------------------------------------
      1          8           0        4.500315   -0.266341    0.337180
      2          1           0        4.530964    0.621295   -0.040878
      3          6           0        2.192827   -0.322710   -0.062865
      4          1           0        3.722428   -0.714699   -0.106214
      5          6           0        1.036066    0.016307   -0.092731
      6          6           0       -0.368271    0.390014   -0.178254
      7          8           0       -0.752503    1.518927   -0.050616
      8          8           0       -1.135302   -0.670398   -0.412639
      9          6           0       -2.554042   -0.419882   -0.497780
     10          6           0       -3.168224   -0.297367    0.882592
     11          1           0       -2.940991   -1.282545   -1.036823
     12          1           0       -2.713897    0.482176   -1.089442
     13          1           0       -4.250102   -0.183679    0.791332
     14          1           0       -2.963017   -1.192664    1.471176
     15          1           0       -2.773868    0.574612    1.404581
 ---------------------------------------------------------------------
                    Distance matrix (angstroms):
                    1          2          3          4          5
     1  O    0.000000
     2  H    0.965280   0.000000
     3  C    2.342587   2.521609   0.000000
     4  H    1.001365   1.562971   1.579625   0.000000
     5  C    3.502247   3.547254   1.205786   2.784078   0.000000
     6  C    4.939596   4.906615   2.660923   4.237853   1.455724
     7  O    5.561444   5.359185   3.473722   5.001718   2.336369
     8  O    5.699620   5.823508   3.364472   4.867587   2.299727
     9  C    7.105258   7.175662   4.767741   6.295579   3.639121
    10  C    7.687973   7.808600   5.443840   6.973736   4.327320
    11  H    7.635024   7.774743   5.312811   6.752010   4.288975
    12  H    7.391913   7.321670   5.077169   6.620085   3.908029
    13  H    8.762584   8.857069   6.500794   8.040448   5.363314
    14  H    7.605613   7.857258   5.449113   6.885622   4.460951
    15  H    7.400019   7.446617   5.256105   6.793135   4.131494
                    6          7          8          9         10
     6  C    0.000000
     7  O    1.199321   0.000000
     8  O    1.329566   2.251830   0.000000
     9  C    2.352791   2.684116   1.443201   0.000000
    10  C    3.072072   3.163149   2.439169   1.515802   0.000000
    11  H    3.186453   3.689218   2.006201   1.088340   2.169416
    12  H    2.518078   2.449710   2.068442   1.090562   2.168644
    13  H    4.042008   3.980068   3.374673   2.143413   1.091656
    14  H    3.458062   3.815095   2.676203   2.154354   1.090916
    15  H    2.885540   2.663690   2.745403   2.157851   1.090109
                   11         12         13         14         15
    11  H    0.000000
    12  H    1.780051   0.000000
    13  H    2.502684   2.518055   0.000000
    14  H    2.509706   3.069839   1.771109   0.000000
    15  H    3.072038   2.496456   1.769278   1.778617   0.000000
 Stoichiometry    C5H7O3(2)
 Framework group  C1[X(C5H7O3)]
 Deg. of freedom    39
 Full point group                 C1      NOp   1
 Largest Abelian subgroup         C1      NOp   1
 Largest concise Abelian subgroup C1      NOp   1
                         Standard orientation:                         
 ---------------------------------------------------------------------
 Center     Atomic      Atomic             Coordinates (Angstroms)
 Number     Number       Type             X           Y           Z
 ---------------------------------------------------------------------
      1          8           0        4.560373   -0.248570    0.327721
      2          1           0        4.590474    0.638413   -0.051910
      3          6           0        2.253053   -0.307384   -0.072940
      4          1           0        3.782961   -0.698302   -0.115114
      5          6           0        1.096047    0.030711   -0.103770
      6          6           0       -0.308543    0.403212   -0.190396
      7          8           0       -0.693661    1.532062   -0.064891
      8          8           0       -1.074705   -0.658192   -0.423128
      9          6           0       -2.493606   -0.408893   -0.509156
     10          6           0       -3.108311   -0.284377    0.870804
     11          1           0       -2.879740   -1.272806   -1.046780
     12          1           0       -2.653953    0.491989   -1.102476
     13          1           0       -4.190245   -0.171664    0.779005
     14          1           0       -2.902616   -1.178469    1.461048
     15          1           0       -2.714772    0.588827    1.391360
 ---------------------------------------------------------------------
 Rotational constants (GHZ):           6.2774834           0.6878390           0.6595161
 Standard basis: 6-311++G(d,p) (5D, 7F)
 There are   233 symmetry adapted cartesian basis functions of A   symmetry.
 There are   225 symmetry adapted basis functions of A   symmetry.
   225 basis functions,   351 primitive gaussians,   233 cartesian basis functions
    31 alpha electrons       30 beta electrons
       nuclear repulsion energy       335.0056648433 Hartrees.
 NAtoms=   15 NActive=   15 NUniq=   15 SFac= 1.00D+00 NAtFMM=   60 NAOKFM=F Big=F
 Integral buffers will be    131072 words long.
 Raffenetti 2 integral format.
 Two-electron integral symmetry is turned on.
 One-electron integrals computed using PRISM.
 NBasis=   225 RedAO= T EigKep=  5.07D-06  NBF=   225
 NBsUse=   224 1.00D-06 EigRej=  3.63D-07 NBFU=   224
 ExpMin= 3.60D-02 ExpMax= 8.59D+03 ExpMxC= 1.30D+03 IAcc=3 IRadAn=         5 AccDes= 0.00D+00
 Harris functional with IExCor= 1009 and IRadAn=       5 diagonalized for initial guess.
 HarFok:  IExCor= 1009 AccDes= 0.00D+00 IRadAn=         5 IDoV= 1 UseB2=F ITyADJ=14
 ICtDFT=  3500011 ScaDFX=  1.000000  1.000000  1.000000  1.000000
 FoFCou: FMM=F IPFlag=           0 FMFlag=      100000 FMFlg1=           0
         NFxFlg=           0 DoJE=T BraDBF=F KetDBF=T FulRan=T
         wScrn=  0.000000 ICntrl=       500 IOpCl=  0 I1Cent=   200000004 NGrid=           0
         NMat0=    1 NMatS0=      1 NMatT0=    0 NMatD0=    1 NMtDS0=    0 NMtDT0=    0
 Petite list used in FoFCou.
 Initial guess <Sx>= 0.0000 <Sy>= 0.0000 <Sz>= 0.5000 <S**2>= 0.7500 S= 0.5000
 Requested convergence on RMS density matrix=1.00D-08 within 128 cycles.
 Requested convergence on MAX density matrix=1.00D-06.
 Requested convergence on             energy=1.00D-06.
 No special actions if energy rises.
 Restarting incremental Fock formation.
 SCF Done:  E(UM062X) =  -420.175500797     A.U. after   24 cycles
            NFock= 24  Conv=0.31D-08     -V/T= 2.0032
 <Sx>= 0.0000 <Sy>= 0.0000 <Sz>= 0.5000 <S**2>= 0.7705 S= 0.5102
 <L.S>=  0.00000000000    
 Annihilation of the first spin contaminant:
 S**2 before annihilation     0.7705,   after     0.7503
 DoSCS=F DFT=T ScalE2(SS,OS)=  1.000000  1.000000
 Range of M.O.s used for correlation:     1   224
 NBasis=   225 NAE=    31 NBE=    30 NFC=     0 NFV=     0
 NROrb=    224 NOA=    31 NOB=    30 NVA=   193 NVB=   194

 **** Warning!!: The largest alpha MO coefficient is  0.81668912D+02


 **** Warning!!: The largest beta MO coefficient is  0.94783792D+02

 Symmetrizing basis deriv contribution to polar:
 IMax=3 JMax=2 DiffMx= 0.00D+00
 G2DrvN: will do    16 centers at a time, making    1 passes.
 Calling FoFCou, ICntrl=  3107 FMM=F I1Cent=   0 AccDes= 0.00D+00.
 End of G2Drv F.D. properties file   721 does not exist.
 End of G2Drv F.D. properties file   722 does not exist.
 End of G2Drv F.D. properties file   788 does not exist.
          IDoAtm=111111111111111
          Differentiating once with respect to electric field.
                with respect to dipole field.
          Differentiating once with respect to nuclear coordinates.
 Keep R1 and R2 ints in memory in canonical form, NReq=671901989.
          There are    48 degrees of freedom in the 1st order CPHF.  IDoFFX=6 NUNeed=     3.
     45 vectors produced by pass  0 Test12= 2.46D-14 2.08D-09 XBig12= 1.41D+02 4.59D+00.
 AX will form    45 AO Fock derivatives at one time.
     45 vectors produced by pass  1 Test12= 2.46D-14 2.08D-09 XBig12= 3.11D+01 1.13D+00.
     45 vectors produced by pass  2 Test12= 2.46D-14 2.08D-09 XBig12= 1.59D+00 1.67D-01.
     45 vectors produced by pass  3 Test12= 2.46D-14 2.08D-09 XBig12= 3.05D-02 3.49D-02.
     45 vectors produced by pass  4 Test12= 2.46D-14 2.08D-09 XBig12= 5.62D-04 4.36D-03.
     45 vectors produced by pass  5 Test12= 2.46D-14 2.08D-09 XBig12= 6.91D-06 2.65D-04.
     39 vectors produced by pass  6 Test12= 2.46D-14 2.08D-09 XBig12= 6.49D-08 2.01D-05.
     22 vectors produced by pass  7 Test12= 2.46D-14 2.08D-09 XBig12= 4.84D-10 1.51D-06.
      4 vectors produced by pass  8 Test12= 2.46D-14 2.08D-09 XBig12= 3.47D-12 1.60D-07.
      3 vectors produced by pass  9 Test12= 2.46D-14 2.08D-09 XBig12= 3.65D-14 1.90D-08.
 InvSVY:  IOpt=1 It=  1 EMax= 7.11D-15
 Solved reduced A of dimension   338 with    48 vectors.
 Isotropic polarizability for W=    0.000000       84.94 Bohr**3.
 End of Minotr F.D. properties file   721 does not exist.
 End of Minotr F.D. properties file   722 does not exist.
 End of Minotr F.D. properties file   788 does not exist.

 **********************************************************************

            Population analysis using the SCF density.

 **********************************************************************

 Orbital symmetries:
 Alpha Orbitals:
       Occupied  (A) (A) (A) (A) (A) (A) (A) (A) (A) (A) (A) (A)
                 (A) (A) (A) (A) (A) (A) (A) (A) (A) (A) (A) (A)
                 (A) (A) (A) (A) (A) (A) (A)
       Virtual   (A) (A) (A) (A) (A) (A) (A) (A) (A) (A) (A) (A)
                 (A) (A) (A) (A) (A) (A) (A) (A) (A) (A) (A) (A)
                 (A) (A) (A) (A) (A) (A) (A) (A) (A) (A) (A) (A)
                 (A) (A) (A) (A) (A) (A) (A) (A) (A) (A) (A) (A)
                 (A) (A) (A) (A) (A) (A) (A) (A) (A) (A) (A) (A)
                 (A) (A) (A) (A) (A) (A) (A) (A) (A) (A) (A) (A)
                 (A) (A) (A) (A) (A) (A) (A) (A) (A) (A) (A) (A)
                 (A) (A) (A) (A) (A) (A) (A) (A) (A) (A) (A) (A)
                 (A) (A) (A) (A) (A) (A) (A) (A) (A) (A) (A) (A)
                 (A) (A) (A) (A) (A) (A) (A) (A) (A) (A) (A) (A)
                 (A) (A) (A) (A) (A) (A) (A) (A) (A) (A) (A) (A)
                 (A) (A) (A) (A) (A) (A) (A) (A) (A) (A) (A) (A)
                 (A) (A) (A) (A) (A) (A) (A) (A) (A) (A) (A) (A)
                 (A) (A) (A) (A) (A) (A) (A) (A) (A) (A) (A) (A)
                 (A) (A) (A) (A) (A) (A) (A) (A) (A) (A) (A) (A)
                 (A) (A) (A) (A) (A) (A) (A) (A) (A) (A) (A) (A)
                 (A)
 Beta  Orbitals:
       Occupied  (A) (A) (A) (A) (A) (A) (A) (A) (A) (A) (A) (A)
                 (A) (A) (A) (A) (A) (A) (A) (A) (A) (A) (A) (A)
                 (A) (A) (A) (A) (A) (A)
       Virtual   (A) (A) (A) (A) (A) (A) (A) (A) (A) (A) (A) (A)
                 (A) (A) (A) (A) (A) (A) (A) (A) (A) (A) (A) (A)
                 (A) (A) (A) (A) (A) (A) (A) (A) (A) (A) (A) (A)
                 (A) (A) (A) (A) (A) (A) (A) (A) (A) (A) (A) (A)
                 (A) (A) (A) (A) (A) (A) (A) (A) (A) (A) (A) (A)
                 (A) (A) (A) (A) (A) (A) (A) (A) (A) (A) (A) (A)
                 (A) (A) (A) (A) (A) (A) (A) (A) (A) (A) (A) (A)
                 (A) (A) (A) (A) (A) (A) (A) (A) (A) (A) (A) (A)
                 (A) (A) (A) (A) (A) (A) (A) (A) (A) (A) (A) (A)
                 (A) (A) (A) (A) (A) (A) (A) (A) (A) (A) (A) (A)
                 (A) (A) (A) (A) (A) (A) (A) (A) (A) (A) (A) (A)
                 (A) (A) (A) (A) (A) (A) (A) (A) (A) (A) (A) (A)
                 (A) (A) (A) (A) (A) (A) (A) (A) (A) (A) (A) (A)
                 (A) (A) (A) (A) (A) (A) (A) (A) (A) (A) (A) (A)
                 (A) (A) (A) (A) (A) (A) (A) (A) (A) (A) (A) (A)
                 (A) (A) (A) (A) (A) (A) (A) (A) (A) (A) (A) (A)
                 (A) (A)
 The electronic state is 2-A.
 Alpha  occ. eigenvalues --  -19.68940 -19.67875 -19.63892 -10.71344 -10.61082
 Alpha  occ. eigenvalues --  -10.60786 -10.57898 -10.54190  -1.26379  -1.18539
 Alpha  occ. eigenvalues --   -1.17100  -0.91291  -0.87765  -0.78570  -0.70930
 Alpha  occ. eigenvalues --   -0.66993  -0.64709  -0.59089  -0.57064  -0.55418
 Alpha  occ. eigenvalues --   -0.54090  -0.49910  -0.47247  -0.46290  -0.45886
 Alpha  occ. eigenvalues --   -0.42747  -0.42187  -0.40210  -0.39140  -0.38404
 Alpha  occ. eigenvalues --   -0.37159
 Alpha virt. eigenvalues --   -0.02296  -0.00388   0.00134   0.01631   0.02275
 Alpha virt. eigenvalues --    0.02684   0.03483   0.04882   0.05317   0.06136
 Alpha virt. eigenvalues --    0.06913   0.07742   0.08064   0.08648   0.10267
 Alpha virt. eigenvalues --    0.11440   0.12215   0.12290   0.13084   0.13254
 Alpha virt. eigenvalues --    0.14360   0.14764   0.15396   0.16095   0.16633
 Alpha virt. eigenvalues --    0.17255   0.18254   0.19011   0.19606   0.20472
 Alpha virt. eigenvalues --    0.21170   0.22384   0.22980   0.23331   0.25393
 Alpha virt. eigenvalues --    0.26053   0.26239   0.27776   0.28644   0.29912
 Alpha virt. eigenvalues --    0.30401   0.31127   0.31615   0.32710   0.33321
 Alpha virt. eigenvalues --    0.34159   0.35785   0.36626   0.37193   0.40054
 Alpha virt. eigenvalues --    0.40928   0.44761   0.46245   0.47662   0.49483
 Alpha virt. eigenvalues --    0.50673   0.54183   0.56639   0.57804   0.58809
 Alpha virt. eigenvalues --    0.60847   0.63277   0.63811   0.66622   0.67604
 Alpha virt. eigenvalues --    0.68777   0.69850   0.71883   0.72845   0.73009
 Alpha virt. eigenvalues --    0.74177   0.75228   0.77546   0.78104   0.81035
 Alpha virt. eigenvalues --    0.88202   0.91916   0.94237   0.98138   1.01135
 Alpha virt. eigenvalues --    1.04072   1.05399   1.06836   1.12432   1.14690
 Alpha virt. eigenvalues --    1.16029   1.16904   1.17648   1.18623   1.20938
 Alpha virt. eigenvalues --    1.22429   1.25044   1.28213   1.30038   1.33351
 Alpha virt. eigenvalues --    1.34497   1.35747   1.38449   1.39015   1.44531
 Alpha virt. eigenvalues --    1.46689   1.50137   1.51126   1.56869   1.57420
 Alpha virt. eigenvalues --    1.58935   1.60051   1.60871   1.62417   1.62737
 Alpha virt. eigenvalues --    1.63935   1.66724   1.69511   1.70514   1.72727
 Alpha virt. eigenvalues --    1.74686   1.78754   1.83021   1.86255   1.88191
 Alpha virt. eigenvalues --    1.92382   1.96885   2.01277   2.02464   2.07471
 Alpha virt. eigenvalues --    2.12284   2.13722   2.20215   2.25551   2.30468
 Alpha virt. eigenvalues --    2.34268   2.37569   2.41705   2.50659   2.51079
 Alpha virt. eigenvalues --    2.53196   2.54894   2.61345   2.62422   2.64063
 Alpha virt. eigenvalues --    2.68100   2.69422   2.71084   2.73582   2.79363
 Alpha virt. eigenvalues --    2.79998   2.81985   2.82401   2.91091   2.93879
 Alpha virt. eigenvalues --    2.97720   2.99176   3.00696   3.02697   3.06431
 Alpha virt. eigenvalues --    3.13414   3.14171   3.16793   3.25055   3.28528
 Alpha virt. eigenvalues --    3.30469   3.35200   3.37889   3.43660   3.55103
 Alpha virt. eigenvalues --    3.64060   3.69596   3.73130   3.84344   3.85715
 Alpha virt. eigenvalues --    3.89294   3.89832   4.00271   4.04932   4.14974
 Alpha virt. eigenvalues --    4.27286   5.10365   5.12996   5.16677   5.30742
 Alpha virt. eigenvalues --    5.40077   5.45041   5.65403   5.72222   5.94061
 Alpha virt. eigenvalues --   23.42331  23.92931  23.93063  24.05344  24.92317
 Alpha virt. eigenvalues --   49.95012  49.99327  50.10248
  Beta  occ. eigenvalues --  -19.68952 -19.67178 -19.63888 -10.71323 -10.61083
  Beta  occ. eigenvalues --  -10.59596 -10.57781 -10.54190  -1.26385  -1.17101
  Beta  occ. eigenvalues --   -1.16007  -0.90645  -0.86627  -0.77983  -0.70230
  Beta  occ. eigenvalues --   -0.64875  -0.64100  -0.59093  -0.57110  -0.54288
  Beta  occ. eigenvalues --   -0.50731  -0.49889  -0.47257  -0.45861  -0.42996
  Beta  occ. eigenvalues --   -0.42472  -0.39698  -0.39152  -0.36857  -0.36243
  Beta virt. eigenvalues --   -0.15740  -0.01178  -0.00191   0.00388   0.01654
  Beta virt. eigenvalues --    0.02282   0.02960   0.03648   0.05308   0.05801
  Beta virt. eigenvalues --    0.06712   0.06966   0.07760   0.08136   0.08665
  Beta virt. eigenvalues --    0.10380   0.11639   0.12426   0.12552   0.13091
  Beta virt. eigenvalues --    0.13333   0.14484   0.14858   0.15734   0.16422
  Beta virt. eigenvalues --    0.16703   0.17348   0.18374   0.19132   0.19635
  Beta virt. eigenvalues --    0.20500   0.21336   0.22385   0.23039   0.23411
  Beta virt. eigenvalues --    0.25445   0.26054   0.26331   0.27984   0.28733
  Beta virt. eigenvalues --    0.30054   0.30496   0.31508   0.31867   0.32802
  Beta virt. eigenvalues --    0.33431   0.34182   0.36009   0.36825   0.37299
  Beta virt. eigenvalues --    0.40135   0.41057   0.44888   0.46288   0.48317
  Beta virt. eigenvalues --    0.49652   0.50728   0.54318   0.56846   0.58163
  Beta virt. eigenvalues --    0.59220   0.61042   0.63554   0.64293   0.66661
  Beta virt. eigenvalues --    0.67646   0.68802   0.69848   0.72152   0.72847
  Beta virt. eigenvalues --    0.73076   0.74473   0.77121   0.78098   0.79317
  Beta virt. eigenvalues --    0.81160   0.88126   0.91994   0.94530   0.98896
  Beta virt. eigenvalues --    1.01253   1.04280   1.05777   1.07365   1.13387
  Beta virt. eigenvalues --    1.14837   1.16509   1.17823   1.18256   1.19073
  Beta virt. eigenvalues --    1.21202   1.22448   1.25236   1.28347   1.30735
  Beta virt. eigenvalues --    1.33589   1.34624   1.36217   1.38654   1.39401
  Beta virt. eigenvalues --    1.45230   1.47024   1.50625   1.51176   1.57257
  Beta virt. eigenvalues --    1.57727   1.59114   1.60247   1.61776   1.63000
  Beta virt. eigenvalues --    1.63738   1.64560   1.66862   1.69543   1.70746
  Beta virt. eigenvalues --    1.72772   1.74686   1.78806   1.83167   1.86445
  Beta virt. eigenvalues --    1.88389   1.92738   1.97110   2.01374   2.02723
  Beta virt. eigenvalues --    2.07626   2.12342   2.14186   2.20246   2.26176
  Beta virt. eigenvalues --    2.30554   2.34395   2.37927   2.42346   2.50367
  Beta virt. eigenvalues --    2.50974   2.53190   2.54934   2.61357   2.62434
  Beta virt. eigenvalues --    2.64123   2.68167   2.69061   2.70720   2.73656
  Beta virt. eigenvalues --    2.79522   2.80854   2.82588   2.83424   2.91250
  Beta virt. eigenvalues --    2.93931   2.97596   3.00316   3.00782   3.04790
  Beta virt. eigenvalues --    3.07156   3.13814   3.14890   3.17465   3.25084
  Beta virt. eigenvalues --    3.29111   3.30867   3.35767   3.38234   3.43606
  Beta virt. eigenvalues --    3.56971   3.64131   3.69857   3.74209   3.84358
  Beta virt. eigenvalues --    3.85725   3.89732   3.90560   4.00463   4.04998
  Beta virt. eigenvalues --    4.14985   4.27277   5.12256   5.12969   5.16609
  Beta virt. eigenvalues --    5.30799   5.42112   5.45036   5.66560   5.72186
  Beta virt. eigenvalues --    5.94051  23.43136  23.92930  23.93100  24.05345
  Beta virt. eigenvalues --   24.93294  49.94301  49.99329  50.10259
          Condensed to atoms (all electrons):
               1          2          3          4          5          6
     1  O    7.724689   0.298931  -0.012649   0.327520  -0.027429   0.016387
     2  H    0.298931   0.437522   0.026171  -0.040766  -0.001864   0.005651
     3  C   -0.012649   0.026171   5.944568   0.023884  -0.325097   1.038159
     4  H    0.327520  -0.040766   0.023884   0.327413  -0.080138   0.049382
     5  C   -0.027429  -0.001864  -0.325097  -0.080138  12.304671  -6.439509
     6  C    0.016387   0.005651   1.038159   0.049382  -6.439509  11.784876
     7  O    0.000042  -0.000091  -0.065161   0.000076   0.262256   0.151568
     8  O    0.000222   0.000024  -0.044519  -0.000196  -0.361028   0.166487
     9  C    0.000068  -0.000075   0.023980   0.000786  -0.385132   0.154674
    10  C    0.000004   0.000053  -0.012101  -0.000158   0.007952  -0.094496
    11  H    0.000016   0.000003   0.001731  -0.000018  -0.013810   0.019074
    12  H   -0.000003  -0.000010   0.001331   0.000093  -0.012324   0.003847
    13  H   -0.000001   0.000002  -0.001751  -0.000020   0.010535  -0.010605
    14  H    0.000014  -0.000003   0.001853   0.000022   0.000269   0.008030
    15  H   -0.000006  -0.000009   0.000644  -0.000002  -0.035100   0.010519
               7          8          9         10         11         12
     1  O    0.000042   0.000222   0.000068   0.000004   0.000016  -0.000003
     2  H   -0.000091   0.000024  -0.000075   0.000053   0.000003  -0.000010
     3  C   -0.065161  -0.044519   0.023980  -0.012101   0.001731   0.001331
     4  H    0.000076  -0.000196   0.000786  -0.000158  -0.000018   0.000093
     5  C    0.262256  -0.361028  -0.385132   0.007952  -0.013810  -0.012324
     6  C    0.151568   0.166487   0.154674  -0.094496   0.019074   0.003847
     7  O    8.027086  -0.139493   0.055434  -0.072299   0.002780  -0.020192
     8  O   -0.139493   8.312939   0.203194  -0.044688  -0.086872  -0.009546
     9  C    0.055434   0.203194   5.423721   0.040153   0.443182   0.398994
    10  C   -0.072299  -0.044688   0.040153   5.453731  -0.056548  -0.020458
    11  H    0.002780  -0.086872   0.443182  -0.056548   0.530001  -0.037027
    12  H   -0.020192  -0.009546   0.398994  -0.020458  -0.037027   0.512756
    13  H   -0.000976   0.018025  -0.043484   0.399270  -0.000897  -0.004388
    14  H    0.001358  -0.006501  -0.041907   0.419269  -0.010868   0.004852
    15  H    0.005002  -0.019966   0.008365   0.383462   0.011054  -0.011810
              13         14         15
     1  O   -0.000001   0.000014  -0.000006
     2  H    0.000002  -0.000003  -0.000009
     3  C   -0.001751   0.001853   0.000644
     4  H   -0.000020   0.000022  -0.000002
     5  C    0.010535   0.000269  -0.035100
     6  C   -0.010605   0.008030   0.010519
     7  O   -0.000976   0.001358   0.005002
     8  O    0.018025  -0.006501  -0.019966
     9  C   -0.043484  -0.041907   0.008365
    10  C    0.399270   0.419269   0.383462
    11  H   -0.000897  -0.010868   0.011054
    12  H   -0.004388   0.004852  -0.011810
    13  H    0.531757  -0.032489  -0.031585
    14  H   -0.032489   0.536831  -0.048483
    15  H   -0.031585  -0.048483   0.543241
          Atomic-Atomic Spin Densities.
               1          2          3          4          5          6
     1  O    0.377988   0.005136  -0.094669   0.016396  -0.041383   0.024107
     2  H    0.005136  -0.012147  -0.001303   0.001130   0.001387  -0.001794
     3  C   -0.094669  -0.001303   0.875788  -0.036058  -0.028293   0.059517
     4  H    0.016396   0.001130  -0.036058  -0.017158  -0.012462   0.012446
     5  C   -0.041383   0.001387  -0.028293  -0.012462   0.872575  -0.711998
     6  C    0.024107  -0.001794   0.059517   0.012446  -0.711998   0.509854
     7  O    0.000129  -0.000040   0.001478   0.000022  -0.014104   0.012806
     8  O    0.000064  -0.000003   0.003810   0.000037   0.010582  -0.007381
     9  C    0.000093   0.000004   0.002958  -0.000027  -0.011112   0.011119
    10  C    0.000002   0.000002  -0.001576  -0.000058   0.004211  -0.003620
    11  H    0.000009  -0.000002   0.001018   0.000026  -0.004895   0.003801
    12  H    0.000006  -0.000001  -0.000250  -0.000007   0.002081  -0.001158
    13  H   -0.000002   0.000001  -0.000359  -0.000006   0.002863  -0.002067
    14  H    0.000002  -0.000001   0.000123   0.000007  -0.000511   0.000309
    15  H    0.000005   0.000000  -0.000003   0.000000   0.001169  -0.000779
               7          8          9         10         11         12
     1  O    0.000129   0.000064   0.000093   0.000002   0.000009   0.000006
     2  H   -0.000040  -0.000003   0.000004   0.000002  -0.000002  -0.000001
     3  C    0.001478   0.003810   0.002958  -0.001576   0.001018  -0.000250
     4  H    0.000022   0.000037  -0.000027  -0.000058   0.000026  -0.000007
     5  C   -0.014104   0.010582  -0.011112   0.004211  -0.004895   0.002081
     6  C    0.012806  -0.007381   0.011119  -0.003620   0.003801  -0.001158
     7  O   -0.003199   0.002712  -0.000194   0.000131  -0.000020   0.000288
     8  O    0.002712  -0.008885  -0.001754   0.001360   0.000092  -0.000551
     9  C   -0.000194  -0.001754  -0.003970   0.003268  -0.000319  -0.000095
    10  C    0.000131   0.001360   0.003268  -0.005558   0.000779  -0.000054
    11  H   -0.000020   0.000092  -0.000319   0.000779  -0.000341  -0.000051
    12  H    0.000288  -0.000551  -0.000095  -0.000054  -0.000051  -0.000215
    13  H    0.000124  -0.000066  -0.000500  -0.000011  -0.000097   0.000004
    14  H   -0.000022  -0.000084  -0.000185   0.000481  -0.000032   0.000009
    15  H   -0.000099  -0.000233  -0.000832   0.000837  -0.000146   0.000070
              13         14         15
     1  O   -0.000002   0.000002   0.000005
     2  H    0.000001  -0.000001   0.000000
     3  C   -0.000359   0.000123  -0.000003
     4  H   -0.000006   0.000007   0.000000
     5  C    0.002863  -0.000511   0.001169
     6  C   -0.002067   0.000309  -0.000779
     7  O    0.000124  -0.000022  -0.000099
     8  O   -0.000066  -0.000084  -0.000233
     9  C   -0.000500  -0.000185  -0.000832
    10  C   -0.000011   0.000481   0.000837
    11  H   -0.000097  -0.000032  -0.000146
    12  H    0.000004   0.000009   0.000070
    13  H    0.000070  -0.000017   0.000028
    14  H   -0.000017  -0.000064  -0.000030
    15  H    0.000028  -0.000030  -0.000189
 Mulliken charges and spin densities:
               1          2
     1  O   -0.327805   0.287882
     2  H    0.274463  -0.007632
     3  C   -0.601042   0.782181
     4  H    0.392122  -0.035711
     5  C    1.095748   0.070110
     6  C   -0.864042  -0.094839
     7  O   -0.207388   0.000012
     8  O    0.011918  -0.000300
     9  C   -0.281954  -0.001547
    10  C   -0.403143   0.000193
    11  H    0.198201  -0.000177
    12  H    0.193886   0.000076
    13  H    0.166609  -0.000034
    14  H    0.167752  -0.000016
    15  H    0.184675  -0.000199
 Sum of Mulliken charges =  -0.00000   1.00000
 Mulliken charges and spin densities with hydrogens summed into heavy atoms:
               1          2
     1  O    0.338781   0.244538
     3  C   -0.601042   0.782181
     5  C    1.095748   0.070110
     6  C   -0.864042  -0.094839
     7  O   -0.207388   0.000012
     8  O    0.011918  -0.000300
     9  C    0.110133  -0.001648
    10  C    0.115893  -0.000055
 APT charges:
               1
     1  O   -0.497167
     2  H    0.309408
     3  C    0.033430
     4  H    0.027968
     5  C   -0.151426
     6  C    1.611455
     7  O   -0.857502
     8  O   -1.018119
     9  C    0.566618
    10  C   -0.045555
    11  H   -0.016316
    12  H   -0.014004
    13  H    0.007787
    14  H    0.011677
    15  H    0.031746
 Sum of APT charges =  -0.00000
 APT charges with hydrogens summed into heavy atoms:
               1
     1  O   -0.159790
     3  C    0.033430
     5  C   -0.151426
     6  C    1.611455
     7  O   -0.857502
     8  O   -1.018119
     9  C    0.536298
    10  C    0.005655
 Electronic spatial extent (au):  <R**2>=           1685.8251
 Charge=             -0.0000 electrons
 Dipole moment (field-independent basis, Debye):
    X=             -1.4244    Y=             -0.4571    Z=             -1.1416  Tot=              1.8818
 Quadrupole moment (field-independent basis, Debye-Ang):
   XX=            -39.3588   YY=            -51.8107   ZZ=            -48.0317
   XY=              7.3682   XZ=             -4.1026   YZ=             -0.2032
 Traceless Quadrupole moment (field-independent basis, Debye-Ang):
   XX=              7.0416   YY=             -5.4103   ZZ=             -1.6313
   XY=              7.3682   XZ=             -4.1026   YZ=             -0.2032
 Octapole moment (field-independent basis, Debye-Ang**2):
  XXX=            -25.4511  YYY=             -5.3458  ZZZ=             -1.7824  XYY=              8.6135
  XXY=             23.6145  XXZ=            -24.7668  XZZ=             -5.0855  YZZ=              1.4935
  YYZ=             -0.0099  XYZ=              0.1930
 Hexadecapole moment (field-independent basis, Debye-Ang**3):
 XXXX=          -1837.6920 YYYY=           -190.4375 ZZZZ=           -124.2658 XXXY=            150.7682
 XXXZ=            -85.1163 YYYX=              9.4859 YYYZ=              0.8410 ZZZX=              6.5760
 ZZZY=              0.0166 XXYY=           -309.5331 XXZZ=           -341.3079 YYZZ=            -47.8166
 XXYZ=              5.3937 YYXZ=              2.8660 ZZXY=              1.6508
 N-N= 3.350056648433D+02 E-N=-1.654177468869D+03  KE= 4.188408916566D+02
  Exact polarizability: 141.336  -8.603  62.373   1.555   0.589  51.103
 Approx polarizability: 120.793 -13.197  80.435   3.012   1.872  57.991
                          Isotropic Fermi Contact Couplings
        Atom                 a.u.       MegaHertz       Gauss      10(-4) cm-1
     1  O(17)              0.05277     -31.99142     -11.41534     -10.67119
     2  H(1)              -0.00496     -22.16046      -7.90740      -7.39193
     3  C(13)              0.79577     894.59750     319.21463     298.40561
     4  H(1)              -0.01876     -83.85129     -29.92023     -27.96978
     5  C(13)              0.12649     142.20206      50.74123      47.43350
     6  C(13)              0.01320      14.83592       5.29382       4.94873
     7  O(17)             -0.00123       0.74748       0.26672       0.24933
     8  O(17)             -0.00832       5.04229       1.79921       1.68193
     9  C(13)             -0.00062      -0.70223      -0.25057      -0.23424
    10  C(13)             -0.00036      -0.40892      -0.14591      -0.13640
    11  H(1)              -0.00001      -0.02571      -0.00918      -0.00858
    12  H(1)              -0.00004      -0.15918      -0.05680      -0.05310
    13  H(1)              -0.00004      -0.17415      -0.06214      -0.05809
    14  H(1)              -0.00000      -0.01106      -0.00394      -0.00369
    15  H(1)               0.00001       0.02667       0.00952       0.00890
 --------------------------------------------------------
       Center         ----  Spin Dipole Couplings  ----
                      3XX-RR        3YY-RR        3ZZ-RR
 --------------------------------------------------------
     1   Atom        1.465606     -0.728047     -0.737559
     2   Atom       -0.008578      0.044867     -0.036289
     3   Atom        0.549359     -0.293497     -0.255862
     4   Atom        0.109561     -0.048004     -0.061557
     5   Atom        0.166185     -0.029430     -0.136755
     6   Atom        0.016497     -0.010135     -0.006362
     7   Atom        0.072407     -0.004819     -0.067588
     8   Atom        0.004647      0.007016     -0.011664
     9   Atom        0.000356     -0.000132     -0.000224
    10   Atom        0.001033     -0.000425     -0.000608
    11   Atom        0.001164     -0.000601     -0.000564
    12   Atom        0.001319     -0.000685     -0.000633
    13   Atom        0.000698     -0.000344     -0.000354
    14   Atom        0.001104     -0.000574     -0.000530
    15   Atom        0.001175     -0.000613     -0.000562
 --------------------------------------------------------
                        XY            XZ            YZ
 --------------------------------------------------------
     1   Atom       -0.123428      0.126492     -0.017341
     2   Atom        0.020387     -0.003937     -0.042031
     3   Atom       -0.066224      0.134326     -0.022227
     4   Atom        0.041522      0.063628      0.050630
     5   Atom       -0.179745     -0.050898      0.057296
     6   Atom       -0.009291      0.002667     -0.002704
     7   Atom       -0.014220      0.054089      0.010399
     8   Atom       -0.000277      0.004002      0.011167
     9   Atom        0.000030      0.000273     -0.000026
    10   Atom       -0.000077      0.000059      0.000119
    11   Atom        0.000207      0.000277     -0.000024
    12   Atom       -0.000209      0.000378      0.000037
    13   Atom       -0.000028     -0.000112      0.000004
    14   Atom        0.000214     -0.000393     -0.000022
    15   Atom       -0.000329     -0.000441      0.000014
 --------------------------------------------------------


 ---------------------------------------------------------------------------------
              Anisotropic Spin Dipole Couplings in Principal Axis System
 ---------------------------------------------------------------------------------

       Atom             a.u.   MegaHertz   Gauss  10(-4) cm-1        Axes

              Baa    -0.7513    54.361    19.397    18.133 -0.0186  0.5330  0.8459
     1 O(17)  Bbb    -0.7286    52.719    18.811    17.585  0.0781  0.8443 -0.5302
              Bcc     1.4798  -107.080   -38.209   -35.718  0.9968 -0.0562  0.0573
 
              Baa    -0.0546   -29.120   -10.391    -9.713 -0.1017  0.4049  0.9087
     2 H(1)   Bbb    -0.0135    -7.214    -2.574    -2.406  0.9612 -0.1955  0.1947
              Bcc     0.0681    36.334    12.965    12.120  0.2564  0.8932 -0.3693
 
              Baa    -0.3038   -40.771   -14.548   -13.600  0.0076  0.9153  0.4027
     3 C(13)  Bbb    -0.2728   -36.608   -13.063   -12.211 -0.1790 -0.3950  0.9011
              Bcc     0.5766    77.379    27.611    25.811  0.9838 -0.0790  0.1608
 
              Baa    -0.1084   -57.832   -20.636   -19.291 -0.1217 -0.5872  0.8002
     4 H(1)   Bbb    -0.0384   -20.487    -7.310    -6.834 -0.4250  0.7594  0.4926
              Bcc     0.1468    78.319    27.946    26.124  0.8970  0.2801  0.3420
 
              Baa    -0.1667   -22.365    -7.980    -7.460 -0.1952 -0.5845  0.7876
     5 C(13)  Bbb    -0.1190   -15.970    -5.699    -5.327  0.5027  0.6299  0.5921
              Bcc     0.2857    38.335    13.679    12.787  0.8422 -0.5115 -0.1708
 
              Baa    -0.0135    -1.814    -0.647    -0.605  0.2656  0.9304  0.2525
     6 C(13)  Bbb    -0.0063    -0.849    -0.303    -0.283 -0.1953 -0.2046  0.9592
              Bcc     0.0198     2.664     0.950     0.888  0.9441 -0.3040  0.1274
 
              Baa    -0.0886     6.408     2.286     2.137 -0.3274 -0.1710  0.9293
     7 O(17)  Bbb    -0.0034     0.245     0.087     0.082  0.0441  0.9797  0.1958
              Bcc     0.0919    -6.652    -2.374    -2.219  0.9439 -0.1051  0.3132
 
              Baa    -0.0175     1.267     0.452     0.423 -0.1670 -0.4100  0.8966
     8 O(17)  Bbb     0.0050    -0.362    -0.129    -0.121  0.9672 -0.2448  0.0682
              Bcc     0.0125    -0.906    -0.323    -0.302  0.1916  0.8786  0.4375
 
              Baa    -0.0003    -0.045    -0.016    -0.015 -0.3669  0.1702  0.9145
     9 C(13)  Bbb    -0.0001    -0.017    -0.006    -0.006  0.0340  0.9849 -0.1697
              Bcc     0.0005     0.062     0.022     0.021  0.9296  0.0312  0.3672
 
              Baa    -0.0007    -0.090    -0.032    -0.030 -0.0512 -0.4472  0.8930
    10 C(13)  Bbb    -0.0004    -0.049    -0.018    -0.016  0.0298  0.8930  0.4490
              Bcc     0.0010     0.139     0.050     0.046  0.9982 -0.0496  0.0324
 
              Baa    -0.0007    -0.358    -0.128    -0.119 -0.1806  0.7513  0.6347
    11 H(1)   Bbb    -0.0006    -0.298    -0.106    -0.099 -0.0437 -0.6509  0.7579
              Bcc     0.0012     0.656     0.234     0.219  0.9826  0.1092  0.1504
 
              Baa    -0.0008    -0.416    -0.148    -0.139  0.1933  0.7051 -0.6822
    12 H(1)   Bbb    -0.0006    -0.336    -0.120    -0.112 -0.0620  0.7027  0.7087
              Bcc     0.0014     0.751     0.268     0.251  0.9792 -0.0947  0.1796
 
              Baa    -0.0004    -0.195    -0.070    -0.065  0.1035 -0.0434  0.9937
    13 H(1)   Bbb    -0.0003    -0.184    -0.066    -0.061  0.0316  0.9987  0.0403
              Bcc     0.0007     0.379     0.135     0.126  0.9941 -0.0272 -0.1047
 
              Baa    -0.0006    -0.340    -0.121    -0.113  0.2473 -0.5575  0.7925
    14 H(1)   Bbb    -0.0006    -0.310    -0.111    -0.103  0.0282  0.8217  0.5692
              Bcc     0.0012     0.650     0.232     0.217  0.9685  0.1184 -0.2189
 
              Baa    -0.0007    -0.389    -0.139    -0.130  0.2741  0.6980  0.6616
    15 H(1)   Bbb    -0.0006    -0.323    -0.115    -0.108  0.0484 -0.6971  0.7153
              Bcc     0.0013     0.712     0.254     0.238  0.9605 -0.1641 -0.2248
 

 ---------------------------------------------------------------------------------

 Calling FoFJK, ICntrl=    100127 FMM=F ISym2X=0 I1Cent= 0 IOpClX= 1 NMat=1 NMatS=1 NMatT=0.
 Full mass-weighted force constant matrix:
 Low frequencies --- -538.9099 -133.5549  -47.7957  -34.6127  -19.0793  -14.9136
 Low frequencies ---  -12.7677   -0.0011   -0.0011
 ******    4 imaginary frequencies (negative Signs) ****** 
 Diagonal vibrational polarizability:
      224.8012931      96.0996064     137.0714923
 Harmonic frequencies (cm**-1), IR intensities (KM/Mole), Raman scattering
 activities (A**4/AMU), depolarization ratios for plane and unpolarized
 incident light, reduced masses (AMU), force constants (mDyne/A),
 and normal coordinates:
                      1                      2                      3
                      A                      A                      A
 Frequencies --   -538.9092              -131.6000               -45.7392
 Red. masses --      1.0403                 1.1016                 8.2864
 Frc consts  --      0.1780                 0.0112                 0.0102
 IR Inten    --     95.9086                66.8166                 0.4311
  Atom  AN      X      Y      Z        X      Y      Z        X      Y      Z
     1   8     0.01   0.01   0.03     0.01  -0.01  -0.05     0.21  -0.32  -0.22
     2   1    -0.02  -0.07  -0.13    -0.10   0.34   0.75     0.34  -0.28  -0.12
     3   6    -0.02   0.01   0.02    -0.00  -0.02   0.04     0.01   0.37   0.32
     4   1     0.78  -0.37  -0.48     0.04   0.32  -0.45    -0.11  -0.01   0.02
     5   6    -0.02   0.00   0.00    -0.00  -0.03   0.03    -0.04   0.18   0.16
     6   6    -0.01   0.00  -0.00     0.00  -0.01   0.00    -0.06   0.07   0.03
     7   8    -0.01   0.00  -0.00     0.01  -0.00  -0.02    -0.16   0.05  -0.07
     8   8    -0.01  -0.00  -0.00    -0.00  -0.01   0.01     0.04  -0.00   0.05
     9   6    -0.00  -0.00  -0.00    -0.00   0.00  -0.00     0.03  -0.12  -0.05
    10   6    -0.00   0.00   0.00    -0.01   0.02  -0.01    -0.06  -0.07  -0.09
    11   1    -0.01   0.00   0.00    -0.00  -0.00   0.01     0.12  -0.19  -0.00
    12   1    -0.00  -0.00   0.00     0.01  -0.00  -0.01    -0.01  -0.18  -0.12
    13   1    -0.00   0.00   0.00    -0.01   0.03  -0.01    -0.07  -0.16  -0.16
    14   1    -0.00   0.00   0.00    -0.01   0.03   0.01    -0.03  -0.01  -0.01
    15   1     0.00   0.00  -0.00    -0.00   0.03  -0.02    -0.16   0.00  -0.13
                      4                      5                      6
                      A                      A                      A
 Frequencies --    -31.6833                74.0881               110.2998
 Red. masses --      5.5020                 4.1800                 4.8466
 Frc consts  --      0.0033                 0.0135                 0.0347
 IR Inten    --      7.3121                 2.6894                 1.6531
  Atom  AN      X      Y      Z        X      Y      Z        X      Y      Z
     1   8     0.05   0.21  -0.25    -0.02  -0.02   0.02    -0.12  -0.03  -0.03
     2   1    -0.19   0.05  -0.63    -0.12   0.00   0.07    -0.13  -0.03  -0.02
     3   6    -0.05  -0.25   0.32    -0.07  -0.11   0.24    -0.00  -0.14  -0.12
     4   1    -0.00  -0.10   0.17    -0.05  -0.04   0.11    -0.01  -0.10  -0.16
     5   6    -0.00  -0.11   0.17    -0.03   0.02  -0.02     0.05   0.09   0.06
     6   6     0.02  -0.04   0.07    -0.01   0.07  -0.13     0.06   0.12   0.06
     7   8     0.07  -0.02   0.05     0.02   0.08  -0.17     0.06   0.14  -0.15
     8   8    -0.01  -0.00   0.01    -0.02   0.08  -0.15     0.07   0.06   0.26
     9   6     0.00   0.06  -0.09    -0.04   0.06   0.05     0.08   0.01   0.02
    10   6    -0.08   0.06  -0.12     0.16  -0.20   0.16    -0.17  -0.23  -0.07
    11   1     0.00   0.09  -0.13    -0.09   0.15  -0.05     0.21   0.07  -0.17
    12   1     0.08   0.08  -0.08    -0.13   0.17   0.23     0.14   0.08   0.13
    13   1    -0.07   0.11  -0.19     0.15  -0.19   0.36    -0.16  -0.20  -0.25
    14   1    -0.16   0.04  -0.13     0.26  -0.31  -0.04    -0.28  -0.32  -0.18
    15   1    -0.08   0.03  -0.08     0.24  -0.30   0.27    -0.26  -0.31   0.14
                      7                      8                      9
                      A                      A                      A
 Frequencies --    127.1048               195.2131               230.4329
 Red. masses --      3.5064                 3.9090                 1.3789
 Frc consts  --      0.0334                 0.0878                 0.0431
 IR Inten    --      6.0554                75.5731                 7.2223
  Atom  AN      X      Y      Z        X      Y      Z        X      Y      Z
     1   8     0.19   0.04   0.04     0.30   0.01   0.05     0.05  -0.00   0.01
     2   1     0.24   0.03   0.03     0.11   0.08   0.21    -0.00   0.02   0.06
     3   6     0.07   0.16  -0.02    -0.10  -0.23  -0.04    -0.04  -0.07  -0.01
     4   1     0.10   0.12   0.14     0.17   0.05   0.30     0.03   0.01   0.06
     5   6    -0.02  -0.14  -0.05    -0.01   0.07  -0.15    -0.00   0.08  -0.02
     6   6    -0.01  -0.09  -0.03    -0.04   0.08  -0.03    -0.02   0.02  -0.00
     7   8     0.10  -0.04  -0.08    -0.05   0.06   0.05    -0.09  -0.01   0.01
     8   8    -0.12  -0.02   0.05    -0.02   0.06   0.02     0.03  -0.02   0.01
     9   6    -0.10   0.14   0.03    -0.05  -0.06   0.02     0.03  -0.02   0.00
    10   6    -0.15  -0.07   0.02    -0.09  -0.01  -0.00     0.03   0.03  -0.01
    11   1    -0.17   0.30  -0.17     0.04  -0.14   0.09     0.01  -0.01   0.01
    12   1     0.03   0.28   0.21    -0.13  -0.12  -0.05     0.05  -0.02  -0.01
    13   1    -0.12   0.18  -0.00    -0.13  -0.42  -0.04     0.09   0.62  -0.04
    14   1    -0.37  -0.26  -0.18     0.21   0.16   0.16    -0.46  -0.18  -0.15
    15   1     0.01  -0.28   0.26    -0.41   0.22  -0.15     0.45  -0.26   0.16
                     10                     11                     12
                      A                      A                      A
 Frequencies --    246.3208               333.2663               419.7675
 Red. masses --      8.6641                 2.8406                 3.8305
 Frc consts  --      0.3097                 0.1859                 0.3977
 IR Inten    --     15.5020                10.4853                 8.6326
  Atom  AN      X      Y      Z        X      Y      Z        X      Y      Z
     1   8     0.17   0.02   0.02     0.01  -0.00   0.00     0.02   0.00  -0.00
     2   1     0.25  -0.01  -0.03    -0.02   0.01   0.03    -0.19   0.03   0.06
     3   6    -0.07  -0.07  -0.37    -0.01  -0.04   0.01    -0.10   0.06   0.01
     4   1     0.08   0.08   0.13     0.01  -0.01   0.00    -0.00  -0.06   0.15
     5   6    -0.12  -0.07   0.61     0.03   0.10  -0.04    -0.13  -0.13  -0.13
     6   6    -0.08   0.00   0.14    -0.01  -0.07   0.01    -0.07   0.02   0.07
     7   8    -0.07   0.04  -0.16    -0.18  -0.12  -0.04     0.06   0.08   0.03
     8   8    -0.04   0.03  -0.09     0.03  -0.10   0.08    -0.07   0.01   0.23
     9   6    -0.04   0.03  -0.08     0.08   0.22  -0.02    -0.01  -0.03  -0.16
    10   6     0.15  -0.01   0.01     0.06   0.02  -0.01     0.21  -0.02  -0.11
    11   1    -0.06   0.04  -0.06    -0.07   0.44  -0.25     0.06  -0.05  -0.17
    12   1    -0.07   0.04  -0.05     0.34   0.40   0.19     0.08  -0.03  -0.20
    13   1     0.13  -0.09   0.21     0.02  -0.32   0.03     0.19   0.01   0.30
    14   1     0.33  -0.00  -0.04     0.36   0.05  -0.07     0.44  -0.04  -0.21
    15   1     0.19   0.01  -0.05    -0.18   0.11   0.02     0.45  -0.06  -0.22
                     13                     14                     15
                      A                      A                      A
 Frequencies --    452.2232               551.6482               597.4915
 Red. masses --      1.0764                 6.0987                 6.9127
 Frc consts  --      0.1297                 1.0935                 1.4540
 IR Inten    --    152.8073                13.9319                50.4939
  Atom  AN      X      Y      Z        X      Y      Z        X      Y      Z
     1   8    -0.03   0.01   0.02    -0.02  -0.01  -0.01    -0.01   0.00   0.00
     2   1     0.81  -0.12  -0.21    -0.07   0.02   0.05    -0.12  -0.00  -0.04
     3   6    -0.01  -0.04   0.03     0.08  -0.07   0.00     0.37  -0.07   0.03
     4   1    -0.07   0.39  -0.35     0.03  -0.05  -0.05     0.05  -0.14  -0.10
     5   6    -0.00  -0.00  -0.02     0.20   0.45   0.06     0.28  -0.22  -0.02
     6   6    -0.01   0.01   0.00     0.01  -0.13   0.02     0.07   0.09   0.06
     7   8    -0.00   0.01   0.01     0.18  -0.07   0.00    -0.32  -0.02  -0.04
     8   8    -0.01   0.00   0.02    -0.17  -0.06   0.05    -0.08   0.21   0.07
     9   6    -0.01  -0.00  -0.01    -0.27  -0.03  -0.13    -0.17   0.01  -0.08
    10   6     0.01  -0.00  -0.01     0.00  -0.01  -0.02    -0.00  -0.01  -0.01
    11   1     0.00  -0.01  -0.01    -0.22  -0.08  -0.08     0.06  -0.21   0.09
    12   1    -0.00  -0.01  -0.02    -0.23  -0.06  -0.18    -0.35  -0.14  -0.26
    13   1     0.01   0.00   0.03    -0.03   0.04   0.46    -0.02   0.04   0.33
    14   1     0.03  -0.01  -0.02     0.25  -0.02  -0.11     0.16  -0.06  -0.14
    15   1     0.04  -0.01  -0.02     0.29  -0.05  -0.17     0.21  -0.08  -0.05
                     16                     17                     18
                      A                      A                      A
 Frequencies --    771.3214               798.7964               894.4554
 Red. masses --     10.2522                 1.2094                 3.0652
 Frc consts  --      3.5937                 0.4547                 1.4449
 IR Inten    --     16.8729                 4.9235                 7.5083
  Atom  AN      X      Y      Z        X      Y      Z        X      Y      Z
     1   8     0.00  -0.00   0.00    -0.00  -0.00  -0.00    -0.00  -0.00  -0.00
     2   1     0.02   0.01   0.02     0.00   0.00   0.00     0.00   0.00   0.01
     3   6    -0.03  -0.00   0.03    -0.03   0.01  -0.00    -0.04   0.00  -0.00
     4   1     0.02  -0.01  -0.01    -0.00   0.01   0.01     0.00   0.00   0.01
     5   6     0.01   0.05  -0.27    -0.02   0.02   0.01    -0.01   0.05   0.01
     6   6    -0.07  -0.13   0.78     0.02  -0.03  -0.04     0.02  -0.10  -0.02
     7   8     0.03   0.02  -0.23     0.01  -0.05   0.00     0.01  -0.15  -0.02
     8   8     0.02   0.04  -0.21    -0.01   0.03   0.02    -0.14   0.22   0.04
     9   6     0.04   0.03   0.01     0.03   0.08   0.01     0.08  -0.02   0.10
    10   6     0.01   0.01   0.02     0.02   0.03  -0.01     0.13  -0.07  -0.09
    11   1     0.01  -0.09   0.21     0.06  -0.23   0.47     0.21  -0.01   0.00
    12   1    -0.11  -0.09  -0.13    -0.08  -0.24  -0.43    -0.25   0.06   0.30
    13   1     0.02  -0.05  -0.16    -0.00  -0.18  -0.06     0.19   0.09  -0.61
    14   1    -0.08  -0.06  -0.05     0.08  -0.21  -0.39    -0.22   0.10   0.27
    15   1    -0.15  -0.02   0.20    -0.15  -0.15   0.41    -0.03   0.13  -0.29
                     19                     20                     21
                      A                      A                      A
 Frequencies --    932.1813              1076.7108              1127.6883
 Red. masses --      2.9447                 4.1946                 2.0873
 Frc consts  --      1.5076                 2.8651                 1.5639
 IR Inten    --      3.4090                23.0452                26.9035
  Atom  AN      X      Y      Z        X      Y      Z        X      Y      Z
     1   8     0.00   0.00  -0.00    -0.00  -0.00   0.00     0.00  -0.00   0.00
     2   1     0.02   0.00   0.01    -0.01   0.00  -0.00    -0.00   0.00   0.00
     3   6    -0.13   0.03  -0.01     0.08  -0.02   0.00     0.02  -0.00   0.00
     4   1     0.00   0.02   0.04    -0.00  -0.01  -0.02    -0.00  -0.00  -0.00
     5   6    -0.08   0.01  -0.01     0.05   0.02   0.01     0.01   0.01   0.00
     6   6     0.14  -0.06   0.01    -0.15  -0.03  -0.03    -0.03  -0.00   0.00
     7   8    -0.00  -0.15  -0.02     0.01   0.02   0.01     0.00   0.01  -0.00
     8   8     0.14   0.15   0.02    -0.22   0.04  -0.02    -0.06   0.01  -0.05
     9   6    -0.01   0.02  -0.10     0.33  -0.06  -0.18     0.10  -0.03   0.20
    10   6    -0.15  -0.01   0.09    -0.08   0.02   0.19    -0.10   0.02  -0.16
    11   1     0.39  -0.08  -0.23     0.34  -0.01  -0.29     0.07   0.04   0.13
    12   1    -0.05  -0.00  -0.11     0.43  -0.10  -0.27     0.20  -0.03   0.19
    13   1    -0.17   0.14   0.66    -0.09   0.01   0.29    -0.14   0.01   0.48
    14   1     0.13   0.09   0.15    -0.07   0.05   0.25     0.43  -0.00  -0.37
    15   1     0.24  -0.02  -0.17    -0.09  -0.03   0.30     0.39  -0.15  -0.24
                     22                     23                     24
                      A                      A                      A
 Frequencies --   1202.9194              1287.2578              1347.6815
 Red. masses --      1.7786                 4.1136                 1.2184
 Frc consts  --      1.5163                 4.0161                 1.3038
 IR Inten    --      6.0359               788.8221               111.5025
  Atom  AN      X      Y      Z        X      Y      Z        X      Y      Z
     1   8    -0.00  -0.00   0.00     0.00   0.00  -0.00    -0.00  -0.00   0.00
     2   1    -0.00  -0.00  -0.00     0.04   0.01   0.03    -0.01  -0.00  -0.01
     3   6     0.02  -0.01   0.00    -0.10   0.02  -0.01     0.01  -0.00   0.00
     4   1    -0.00  -0.00  -0.01     0.00  -0.02   0.05    -0.00   0.01  -0.01
     5   6     0.01  -0.00   0.00    -0.02  -0.00  -0.00     0.00   0.00   0.00
     6   6    -0.06  -0.01  -0.01     0.40   0.16   0.06    -0.05  -0.03  -0.01
     7   8     0.00   0.04   0.01    -0.05  -0.00  -0.00     0.01  -0.02  -0.00
     8   8     0.00  -0.08  -0.01    -0.19  -0.10  -0.02     0.04   0.08   0.00
     9   6     0.04   0.19   0.01     0.11  -0.01  -0.04    -0.03  -0.00   0.01
    10   6    -0.03  -0.14  -0.01    -0.02  -0.06  -0.01    -0.00  -0.06   0.01
    11   1     0.30  -0.14   0.36    -0.70   0.13   0.30    -0.53   0.08   0.23
    12   1    -0.27  -0.10  -0.34     0.02  -0.09  -0.16     0.70  -0.07  -0.28
    13   1     0.02   0.29   0.04    -0.01   0.11   0.08     0.01   0.06  -0.04
    14   1    -0.02   0.15   0.40    -0.01   0.10   0.24    -0.03   0.01   0.12
    15   1     0.12   0.08  -0.46     0.02  -0.02  -0.10     0.03   0.04  -0.18
                     25                     26                     27
                      A                      A                      A
 Frequencies --   1401.4768              1431.0450              1452.8712
 Red. masses --      1.2745                 1.3791                 1.0988
 Frc consts  --      1.4749                 1.6641                 1.3665
 IR Inten    --     36.5341                11.6310                52.7849
  Atom  AN      X      Y      Z        X      Y      Z        X      Y      Z
     1   8     0.00  -0.00   0.00    -0.00   0.00  -0.00    -0.05   0.02  -0.05
     2   1    -0.01  -0.00  -0.01     0.02   0.01   0.01     0.57   0.17   0.42
     3   6     0.01  -0.00   0.00    -0.01   0.00  -0.00     0.01  -0.00   0.00
     4   1    -0.00   0.01  -0.01     0.01  -0.01   0.02     0.14  -0.52   0.41
     5   6     0.00   0.00   0.00    -0.00  -0.00   0.00     0.00  -0.00   0.00
     6   6    -0.05  -0.01  -0.01     0.05   0.01   0.01    -0.01  -0.00  -0.00
     7   8     0.01  -0.01  -0.00    -0.01   0.01   0.00    -0.00   0.00   0.00
     8   8     0.04   0.02   0.02    -0.04  -0.02  -0.02     0.00   0.00   0.00
     9   6     0.04  -0.01  -0.04    -0.09   0.01   0.09     0.00  -0.00  -0.00
    10   6     0.03  -0.01  -0.12     0.08  -0.01  -0.07    -0.00   0.00   0.00
    11   1    -0.33   0.00   0.23     0.48  -0.01  -0.29    -0.01  -0.00   0.01
    12   1    -0.25   0.10   0.21     0.45  -0.14  -0.28    -0.01   0.01   0.01
    13   1    -0.03   0.01   0.53     0.04  -0.03   0.32    -0.00  -0.00  -0.00
    14   1    -0.22   0.22   0.34    -0.33   0.05   0.17     0.00   0.00   0.00
    15   1    -0.25  -0.15   0.34    -0.29   0.02   0.16     0.01  -0.00  -0.00
                     28                     29                     30
                      A                      A                      A
 Frequencies --   1492.7179              1501.6338              1514.0921
 Red. masses --      1.0412                 1.0672                 1.0788
 Frc consts  --      1.3670                 1.4178                 1.4572
 IR Inten    --     11.3892                 4.2548                19.3684
  Atom  AN      X      Y      Z        X      Y      Z        X      Y      Z
     1   8    -0.00   0.00  -0.00     0.00  -0.00   0.00    -0.00   0.00  -0.00
     2   1     0.00   0.00   0.00    -0.00  -0.00  -0.00     0.00   0.00   0.00
     3   6     0.00   0.00   0.00    -0.00   0.00  -0.00     0.00  -0.00   0.00
     4   1     0.00  -0.00   0.00    -0.00   0.00  -0.00     0.00  -0.00   0.00
     5   6    -0.00  -0.00  -0.00     0.00  -0.00   0.00     0.00   0.00  -0.00
     6   6    -0.00   0.00  -0.00     0.02  -0.00   0.00    -0.02   0.00  -0.00
     7   8     0.00  -0.01  -0.00    -0.00   0.01   0.00     0.01  -0.01  -0.00
     8   8     0.00   0.00   0.00    -0.02  -0.01  -0.01     0.02   0.01   0.01
     9   6    -0.01  -0.02   0.01    -0.01  -0.01  -0.06     0.05  -0.01   0.04
    10   6    -0.01  -0.04  -0.01     0.02  -0.02   0.02     0.03  -0.01   0.02
    11   1     0.00   0.06  -0.13     0.17  -0.35   0.38    -0.23   0.28  -0.23
    12   1    -0.00  -0.05  -0.04     0.25   0.32   0.39    -0.30  -0.22  -0.20
    13   1     0.07   0.64  -0.13     0.02   0.22   0.17     0.01   0.14   0.28
    14   1     0.56   0.11   0.01    -0.06  -0.20  -0.25    -0.20  -0.28  -0.33
    15   1    -0.36  -0.04   0.27    -0.31   0.26  -0.19    -0.32   0.33  -0.30
                     31                     32                     33
                      A                      A                      A
 Frequencies --   1839.6474              2231.2851              2910.3657
 Red. masses --     12.1501                10.8391                 1.0834
 Frc consts  --     24.2270                31.7947                 5.4069
 IR Inten    --    336.0136               115.6140               434.2755
  Atom  AN      X      Y      Z        X      Y      Z        X      Y      Z
     1   8    -0.00   0.00  -0.00    -0.02  -0.01  -0.01    -0.05  -0.03  -0.03
     2   1     0.02   0.00   0.01     0.01  -0.04  -0.00    -0.04  -0.09   0.01
     3   6     0.06  -0.01   0.00    -0.57   0.15  -0.02     0.03  -0.01  -0.00
     4   1    -0.00  -0.02  -0.00     0.19   0.20   0.16     0.62   0.60   0.49
     5   6    -0.02  -0.00  -0.00     0.70  -0.18   0.03    -0.01   0.00  -0.00
     6   6    -0.26   0.74   0.08    -0.13   0.03  -0.01     0.00   0.00   0.00
     7   8     0.18  -0.49  -0.05     0.00  -0.00   0.00    -0.00   0.00  -0.00
     8   8    -0.01  -0.07  -0.01    -0.01  -0.00  -0.00    -0.00  -0.00  -0.00
     9   6    -0.03   0.02   0.00     0.00   0.00  -0.00     0.00  -0.00  -0.00
    10   6     0.01  -0.00   0.01    -0.00   0.00   0.00    -0.00  -0.00  -0.00
    11   1     0.18  -0.11   0.06     0.00   0.00   0.00     0.00   0.00   0.00
    12   1     0.14   0.09   0.03    -0.00  -0.00   0.00    -0.00  -0.00   0.00
    13   1     0.01  -0.04  -0.06     0.00  -0.00   0.00     0.00  -0.00   0.00
    14   1    -0.04  -0.01   0.00     0.00   0.00  -0.00    -0.00   0.00  -0.00
    15   1     0.05   0.02  -0.05     0.00   0.00  -0.00     0.00  -0.00  -0.00
                     34                     35                     36
                      A                      A                      A
 Frequencies --   3076.1433              3108.5052              3151.7504
 Red. masses --      1.0354                 1.0608                 1.1014
 Frc consts  --      5.7723                 6.0395                 6.4463
 IR Inten    --     10.1066                18.1053                15.1356
  Atom  AN      X      Y      Z        X      Y      Z        X      Y      Z
     1   8     0.00   0.00   0.00    -0.00  -0.00  -0.00     0.00   0.00   0.00
     2   1     0.00   0.00   0.00    -0.00   0.00  -0.00     0.00  -0.00   0.00
     3   6    -0.00   0.00   0.00    -0.00   0.00  -0.00     0.00   0.00   0.00
     4   1    -0.00  -0.00  -0.00     0.00   0.00   0.00    -0.00  -0.00  -0.00
     5   6    -0.00  -0.00  -0.00     0.00  -0.00   0.00    -0.00   0.00  -0.00
     6   6     0.00   0.00   0.00    -0.00  -0.00  -0.00     0.00   0.00  -0.00
     7   8     0.00  -0.00  -0.00    -0.00   0.00  -0.00     0.00  -0.00  -0.00
     8   8    -0.00  -0.00  -0.00     0.00   0.00  -0.00     0.00  -0.00   0.00
     9   6    -0.00   0.00  -0.00     0.03  -0.02   0.06    -0.01  -0.02  -0.01
    10   6    -0.03  -0.00   0.04    -0.01   0.00  -0.01    -0.06   0.05  -0.03
    11   1     0.00   0.01   0.01    -0.19  -0.44  -0.26     0.11   0.24   0.15
    12   1     0.00  -0.02   0.02    -0.11   0.68  -0.44    -0.01   0.02  -0.02
    13   1     0.61  -0.06   0.06     0.13  -0.01   0.02     0.65  -0.06   0.05
    14   1    -0.12   0.49  -0.31     0.01  -0.06   0.03     0.12  -0.57   0.37
    15   1    -0.19  -0.42  -0.24     0.01   0.02   0.01    -0.02   0.00  -0.01
                     37                     38                     39
                      A                      A                      A
 Frequencies --   3155.5211              3176.3282              3877.3489
 Red. masses --      1.1048                 1.1074                 1.0675
 Frc consts  --      6.4818                 6.5826                 9.4555
 IR Inten    --      1.9217                14.6068               144.6456
  Atom  AN      X      Y      Z        X      Y      Z        X      Y      Z
     1   8     0.00   0.00   0.00     0.00   0.00   0.00    -0.01  -0.06   0.02
     2   1     0.00  -0.00   0.00     0.00  -0.00   0.00     0.05   0.92  -0.38
     3   6     0.00  -0.00   0.00    -0.00   0.00   0.00    -0.00  -0.00  -0.00
     4   1    -0.00  -0.00  -0.00    -0.00  -0.00  -0.00     0.06   0.02   0.04
     5   6    -0.00   0.00  -0.00     0.00   0.00   0.00     0.00   0.00   0.00
     6   6    -0.00   0.00  -0.00     0.00  -0.00  -0.00    -0.00   0.00  -0.00
     7   8     0.00  -0.00   0.00    -0.00   0.00   0.00     0.00  -0.00   0.00
     8   8     0.00  -0.00  -0.00    -0.00   0.00   0.00     0.00   0.00   0.00
     9   6     0.01   0.05   0.00    -0.01  -0.07  -0.01    -0.00   0.00  -0.00
    10   6    -0.05  -0.05  -0.02    -0.02  -0.06  -0.00     0.00  -0.00  -0.00
    11   1    -0.16  -0.35  -0.21     0.23   0.52   0.32     0.00   0.00   0.00
    12   1     0.05  -0.29   0.20    -0.06   0.35  -0.24     0.00  -0.00   0.00
    13   1     0.40  -0.05   0.03     0.08  -0.02   0.01     0.00  -0.00  -0.00
    14   1    -0.04   0.14  -0.10    -0.07   0.29  -0.20    -0.00   0.00  -0.00
    15   1     0.25   0.56   0.33     0.18   0.40   0.24    -0.00   0.00   0.00

 -------------------
 - Thermochemistry -
 -------------------
 Temperature   298.150 Kelvin.  Pressure   1.00000 Atm.
 Atom     1 has atomic number  8 and mass  15.99491
 Atom     2 has atomic number  1 and mass   1.00783
 Atom     3 has atomic number  6 and mass  12.00000
 Atom     4 has atomic number  1 and mass   1.00783
 Atom     5 has atomic number  6 and mass  12.00000
 Atom     6 has atomic number  6 and mass  12.00000
 Atom     7 has atomic number  8 and mass  15.99491
 Atom     8 has atomic number  8 and mass  15.99491
 Atom     9 has atomic number  6 and mass  12.00000
 Atom    10 has atomic number  6 and mass  12.00000
 Atom    11 has atomic number  1 and mass   1.00783
 Atom    12 has atomic number  1 and mass   1.00783
 Atom    13 has atomic number  1 and mass   1.00783
 Atom    14 has atomic number  1 and mass   1.00783
 Atom    15 has atomic number  1 and mass   1.00783
 Molecular mass:   115.03952 amu.
 Principal axes and moments of inertia in atomic units:
                           1         2         3
     Eigenvalues --   287.494382623.784192736.46271
           X            0.99993   0.00793  -0.00887
           Y           -0.00800   0.99993  -0.00827
           Z            0.00880   0.00834   0.99993
 This molecule is an asymmetric top.
 Rotational symmetry number  1.
 Rotational temperatures (Kelvin)      0.30127     0.03301     0.03165
 Rotational constants (GHZ):           6.27748     0.68784     0.65952
    4 imaginary frequencies ignored.
 Zero-point vibrational energy     287687.5 (Joules/Mol)
                                   68.75897 (Kcal/Mol)
 Warning -- explicit consideration of  11 degrees of freedom as
           vibrations may cause significant error
 Vibrational temperatures:    106.60   158.70   182.88   280.87   331.54
          (Kelvin)            354.40   479.50   603.95   650.65   793.70
                              859.66  1109.76  1149.29  1286.92  1341.20
                             1549.15  1622.49  1730.73  1852.08  1939.01
                             2016.41  2058.95  2090.36  2147.69  2160.52
                             2178.44  2646.84  3210.32  4187.37  4425.88
                             4472.45  4534.67  4540.09  4570.03  5578.64
 
 Zero-point correction=                           0.109574 (Hartree/Particle)
 Thermal correction to Energy=                    0.117841
 Thermal correction to Enthalpy=                  0.118785
 Thermal correction to Gibbs Free Energy=         0.075234
 Sum of electronic and zero-point Energies=           -420.065926
 Sum of electronic and thermal Energies=              -420.057660
 Sum of electronic and thermal Enthalpies=            -420.056716
 Sum of electronic and thermal Free Energies=         -420.100267
 
                     E (Thermal)             CV                S
                      KCal/Mol        Cal/Mol-Kelvin    Cal/Mol-Kelvin
 Total                   73.946             27.668             91.661
 Electronic               0.000              0.000              1.377
 Translational            0.889              2.981             40.136
 Rotational               0.889              2.981             29.114
 Vibrational             72.169             21.706             21.034
 Vibration     1          0.599              1.966              4.042
 Vibration     2          0.606              1.941              3.264
 Vibration     3          0.611              1.926              2.989
 Vibration     4          0.636              1.847              2.178
 Vibration     5          0.652              1.794              1.876
 Vibration     6          0.661              1.769              1.757
 Vibration     7          0.715              1.609              1.244
 Vibration     8          0.782              1.427              0.893
 Vibration     9          0.811              1.356              0.789
 Vibration    10          0.907              1.136              0.541
 Vibration    11          0.955              1.037              0.454
                       Q            Log10(Q)             Ln(Q)
 Total Bot       0.248217D-34        -34.605169        -79.681347
 Total V=0       0.624467D+16         15.795510         36.370505
 Vib (Bot)       0.497573D-48        -48.303143       -111.222097
 Vib (Bot)    1  0.278216D+01          0.444383          1.023229
 Vib (Bot)    2  0.185674D+01          0.268752          0.618824
 Vib (Bot)    3  0.160507D+01          0.205493          0.473165
 Vib (Bot)    4  0.102327D+01          0.009991          0.023005
 Vib (Bot)    5  0.854569D+00         -0.068253         -0.157158
 Vib (Bot)    6  0.793719D+00         -0.100333         -0.231025
 Vib (Bot)    7  0.559521D+00         -0.252184         -0.580674
 Vib (Bot)    8  0.418375D+00         -0.378434         -0.871377
 Vib (Bot)    9  0.378524D+00         -0.421907         -0.971476
 Vib (Bot)   10  0.284029D+00         -0.546638         -1.258680
 Vib (Bot)   11  0.250555D+00         -0.601097         -1.384076
 Vib (V=0)       0.125180D+03          2.097536          4.829755
 Vib (V=0)    1  0.332673D+01          0.522018          1.201991
 Vib (V=0)    2  0.242289D+01          0.384333          0.884960
 Vib (V=0)    3  0.218114D+01          0.338684          0.779848
 Vib (V=0)    4  0.163890D+01          0.214551          0.494023
 Vib (V=0)    5  0.149010D+01          0.173214          0.398840
 Vib (V=0)    6  0.143808D+01          0.157782          0.363308
 Vib (V=0)    7  0.125038D+01          0.097041          0.223444
 Vib (V=0)    8  0.115195D+01          0.061433          0.141455
 Vib (V=0)    9  0.112712D+01          0.051970          0.119666
 Vib (V=0)   10  0.107504D+01          0.031425          0.072359
 Vib (V=0)   11  0.105927D+01          0.025005          0.057576
 Electronic      0.200000D+01          0.301030          0.693147
 Translational   0.484981D+08          7.685724         17.697035
 Rotational      0.514303D+06          5.711219         13.150568
 ***** Axes restored to original set *****
 -------------------------------------------------------------------
 Center     Atomic                   Forces (Hartrees/Bohr)
 Number     Number              X              Y              Z
 -------------------------------------------------------------------
      1        8           0.002468524    0.001016917    0.002643040
      2        1          -0.000283470   -0.000367735   -0.000710338
      3        6          -0.002484506    0.000553084    0.000813078
      4        1           0.004478854   -0.002420703   -0.002660032
      5        6          -0.001942189    0.000913170    0.000351095
      6        6          -0.000866551    0.000164393   -0.000295675
      7        8          -0.000524283    0.000306354    0.000023672
      8        8          -0.000518935   -0.000083731   -0.000142138
      9        6          -0.000226046   -0.000074677   -0.000041370
     10        6          -0.000046815   -0.000001046    0.000013704
     11        1          -0.000030781   -0.000003615    0.000000627
     12        1          -0.000020574   -0.000005065   -0.000002663
     13        1          -0.000005040    0.000001497    0.000009747
     14        1          -0.000000655    0.000000537    0.000001448
     15        1           0.000002466    0.000000620   -0.000004198
 -------------------------------------------------------------------
 Cartesian Forces:  Max     0.004478854 RMS     0.001167064

 GradGradGradGradGradGradGradGradGradGradGradGradGradGradGradGradGradGrad
 Berny optimization.
 Search for a local minimum.
 Step number   1 out of a maximum of    2
 All quantities printed in internal units (Hartrees-Bohrs-Radians)
 Second derivative matrix not updated -- analytic derivatives used.
 ITU=  0
     Eigenvalues ---   -0.01325  -0.00143  -0.00067  -0.00020   0.00118
     Eigenvalues ---    0.00174   0.00300   0.00414   0.01080   0.01299
     Eigenvalues ---    0.02121   0.02472   0.03299   0.03670   0.06228
     Eigenvalues ---    0.07394   0.08011   0.08901   0.10304   0.11504
     Eigenvalues ---    0.12966   0.14183   0.17014   0.18016   0.20764
     Eigenvalues ---    0.28566   0.30657   0.48862   0.50005   0.61362
     Eigenvalues ---    0.64890   0.76735   0.79122   0.86377   0.87955
     Eigenvalues ---    0.93359   0.99301   1.72384   2.27989
 Eigenvalue     1 is  -1.32D-02 should be greater than     0.000000 Eigenvector:
                          X4        Z4        Y4        Z1        Z2
   1                    0.79602  -0.38729  -0.35834   0.12206  -0.11842
                          Z3        Y2        Y3        X5        X3
   1                    0.11727  -0.08571   0.08172  -0.07194  -0.06934
 Eigenvalue     2 is  -1.43D-03 should be greater than     0.000000 Eigenvector:
                          Z3        Z1        Z4        Z2        Z5
   1                    0.49932  -0.42876  -0.40456   0.30852   0.24589
                          Y4        Y2        X1        Z13       Y1
   1                    0.23866   0.20508   0.20349  -0.12779  -0.11771
 Eigenvalue     3 is  -6.66D-04 should be greater than     0.000000 Eigenvector:
                          Y3        Y2        X2        Y1        Y5
   1                    0.45940  -0.38514   0.38322  -0.34554   0.24763
                          Z2        X7        Y13       Z3        X1
   1                   -0.17671  -0.17454  -0.15869   0.15718   0.15481
 Eigenvalue     4 is  -2.00D-04 should be greater than     0.000000 Eigenvector:
                          Z2        Z3        Z4        Y1        Z1
   1                    0.70615  -0.32613  -0.26938  -0.21221   0.20419
                          Y3        Z5        Z13       X2        Y4
   1                    0.18917  -0.18210   0.14135   0.13258   0.12529
 Quadratic step=6.713D-01 exceeds max=3.000D-01 adjusted using Lamda=-9.246D-03.
 Angle between NR and scaled steps=  38.18 degrees.
 Angle between quadratic step and forces=  28.70 degrees.
 Linear search not attempted -- first point.
 B after Tr=    -0.010249    0.005854    0.005014
         Rot=    1.000000    0.000441    0.000669   -0.000480 Ang=   0.11 deg.
 Variable       Old X    -DE/DX   Delta X   Delta X   Delta X     New X
                                 (Linear)    (Quad)   (Total)
    X1        8.50436   0.00247   0.00000   0.04471   0.03403   8.53839
    Y1       -0.50331   0.00102   0.00000   0.00830   0.02295  -0.48036
    Z1        0.63718   0.00264   0.00000   0.02965   0.04654   0.68372
    X2        8.56228  -0.00028   0.00000   0.01362   0.00239   8.56467
    Y2        1.17408  -0.00037   0.00000  -0.01959  -0.00560   1.16848
    Z2       -0.07725  -0.00071   0.00000  -0.02926  -0.01379  -0.09103
    X3        4.14384  -0.00248   0.00000  -0.04073  -0.05029   4.09355
    Y3       -0.60983   0.00055   0.00000   0.00464   0.01436  -0.59547
    Z3       -0.11880   0.00081   0.00000   0.03290   0.04394  -0.07486
    X4        7.03437   0.00448   0.00000   0.24967   0.24118   7.27555
    Y4       -1.35059  -0.00242   0.00000  -0.09918  -0.08658  -1.43716
    Z4       -0.20072  -0.00266   0.00000  -0.07904  -0.06300  -0.26371
    X5        1.95788  -0.00194   0.00000  -0.03392  -0.04398   1.91390
    Y5        0.03082   0.00091   0.00000   0.01773   0.02528   0.05610
    Z5       -0.17524   0.00035   0.00000   0.00201   0.00956  -0.16568
    X6       -0.69593  -0.00087   0.00000  -0.02656  -0.03706  -0.73300
    Y6        0.73702   0.00016   0.00000   0.00937   0.01423   0.75125
    Z6       -0.33685  -0.00030   0.00000  -0.00977  -0.00638  -0.34323
    X7       -1.42202  -0.00052   0.00000  -0.02892  -0.04179  -1.46381
    Y7        2.87036   0.00031   0.00000   0.00756   0.01193   2.88229
    Z7       -0.09565   0.00002   0.00000  -0.00309  -0.00256  -0.09821
    X8       -2.14541  -0.00052   0.00000  -0.01364  -0.02161  -2.16702
    Y8       -1.26687  -0.00008   0.00000   0.00305   0.00613  -1.26073
    Z8       -0.77977  -0.00014   0.00000  -0.01460  -0.01136  -0.79114
    X9       -4.82644  -0.00023   0.00000  -0.01144  -0.01966  -4.84610
    Y9       -0.79346  -0.00007   0.00000  -0.00111  -0.00074  -0.79420
    Z9       -0.94067  -0.00004   0.00000  -0.00290  -0.00366  -0.94433
   X10       -5.98708  -0.00005   0.00000   0.00387  -0.00806  -5.99514
   Y10       -0.56194  -0.00000   0.00000  -0.00190  -0.00032  -0.56226
   Z10        1.66786   0.00001   0.00000   0.00343   0.00094   1.66879
   X11       -5.55767  -0.00003   0.00000  -0.01227  -0.01756  -5.57523
   Y11       -2.42366  -0.00000   0.00000  -0.00080  -0.00202  -2.42568
   Z11       -1.95931   0.00000   0.00000  -0.00146  -0.00176  -1.96107
   X12       -5.12852  -0.00002   0.00000  -0.01198  -0.02034  -5.14887
   Y12        0.91118  -0.00001   0.00000   0.00067  -0.00023   0.91095
   Z12       -2.05875  -0.00000   0.00000   0.00035  -0.00231  -2.06106
   X13       -8.03153  -0.00001   0.00000   0.00380  -0.00813  -8.03966
   Y13       -0.34710   0.00000   0.00000   0.00089   0.00037  -0.34674
   Z13        1.49540   0.00001   0.00000   0.01147   0.00604   1.50144
   X14       -5.59929  -0.00000   0.00000   0.00746  -0.00434  -5.60363
   Y14       -2.25381   0.00000   0.00000  -0.00290   0.00004  -2.25377
   Z14        2.78012   0.00000   0.00000   0.00050   0.00002   2.78014
   X15       -5.24185   0.00000   0.00000   0.01006  -0.00477  -5.24662
   Y15        1.08586   0.00000   0.00000  -0.00299   0.00018   1.08604
   Z15        2.65427  -0.00000   0.00000   0.00073  -0.00222   2.65206
         Item               Value     Threshold  Converged?
 Maximum Force            0.004479     0.000450     NO 
 RMS     Force            0.001167     0.000300     NO 
 Maximum Displacement     0.241179     0.001800     NO 
 RMS     Displacement     0.043852     0.001200     NO 
 Predicted change in Energy=-2.576296D-03
 GradGradGradGradGradGradGradGradGradGradGradGradGradGradGradGradGradGrad


 ----------------------------------------------------------------------

 Electric dipole moment (input orientation):
 (Debye = 10**-18 statcoulomb cm , SI units = C m)
                  (au)            (Debye)         (10**-30 SI)
   Tot        0.740359D+00      0.188181D+01      0.627703D+01
   x         -0.560686D+00     -0.142512D+01     -0.475369D+01
   y         -0.178624D+00     -0.454018D+00     -0.151444D+01
   z         -0.449285D+00     -0.114197D+01     -0.380919D+01

 Dipole polarizability, Alpha (input orientation).
 (esu units = cm**3 , SI units = C**2 m**2 J**-1)
 Alpha(0;0):
               (au)            (10**-24 esu)      (10**-40 SI)
   iso        0.849372D+02      0.125864D+02      0.140043D+02
   aniso      0.865005D+02      0.128181D+02      0.142620D+02
   xx         0.141324D+03      0.209420D+02      0.233011D+02
   yx        -0.866471D+01     -0.128398D+01     -0.142862D+01
   yy         0.623838D+02      0.924433D+01      0.102857D+02
   zx         0.151198D+01      0.224052D+00      0.249291D+00
   zy         0.610280D+00      0.904342D-01      0.100622D+00
   zz         0.511043D+02      0.757287D+01      0.842596D+01

 ----------------------------------------------------------------------

 Dipole orientation:
     8          5.04361154          1.60584498         -6.70572515
     1          5.43116641         -0.17656030         -6.72073950
     6          2.82410431          1.03027848         -2.91897264
     1          4.82919257          2.05311526         -4.87958376
     6          1.38826510          0.15065367         -1.38382758
     6         -0.27623870         -0.87072621          0.55363813
     8         -1.16841775         -2.95115063          0.44244386
     8         -0.64506263          0.78888484          2.40361041
     6         -2.30114458         -0.01105191          4.41741683
     6         -5.04932142          0.26319047          3.65755184
     1         -1.81457157          1.23117540          5.98266070
     1         -1.84250234         -1.95804767          4.91341656
     1         -6.25787917         -0.21795002          5.25866946
     1         -5.44989831          2.20621460          3.09709522
     1         -5.50448874         -1.00218757          2.09701732

 Electric dipole moment (dipole orientation):
 (Debye = 10**-18 statcoulomb cm , SI units = C m)
                  (au)            (Debye)         (10**-30 SI)
   Tot        0.740359D+00      0.188181D+01      0.627703D+01
   x          0.000000D+00      0.000000D+00      0.000000D+00
   y          0.000000D+00      0.000000D+00      0.000000D+00
   z          0.740359D+00      0.188181D+01      0.627703D+01

 Dipole polarizability, Alpha (dipole orientation).
 (esu units = cm**3 , SI units = C**2 m**2 J**-1)
 Alpha(0;0):
               (au)            (10**-24 esu)      (10**-40 SI)
   iso        0.849372D+02      0.125864D+02      0.140043D+02
   aniso      0.865005D+02      0.128181D+02      0.142620D+02
   xx         0.884593D+02      0.131083D+02      0.145850D+02
   yx         0.138487D+02      0.205216D+01      0.228333D+01
   yy         0.644462D+02      0.954995D+01      0.106258D+02
   zx        -0.425993D+02     -0.631256D+01     -0.702367D+01
   zy        -0.112921D+02     -0.167332D+01     -0.186182D+01
   zz         0.101906D+03      0.151009D+02      0.168021D+02

 ----------------------------------------------------------------------
 1\1\GINC-AJ\Freq\UM062X\6-311++G(d,p)\C5H7O3(2)\AAYUSH\16-Aug-2025\0\\
 # freq 6-311++g(d,p) m062x\\Title Card Required\\0,2\O,4.500315,-0.266
 341,0.33718\H,4.530964,0.621295,-0.040878\C,2.192827,-0.32271,-0.06286
 5\H,3.722428,-0.714699,-0.106214\C,1.036066,0.016307,-0.092731\C,-0.36
 8271,0.390014,-0.178254\O,-0.752503,1.518927,-0.050616\O,-1.135302,-0.
 670398,-0.412639\C,-2.554042,-0.419882,-0.49778\C,-3.168224,-0.297367,
 0.882592\H,-2.940991,-1.282545,-1.036823\H,-2.713897,0.482176,-1.08944
 2\H,-4.250102,-0.183679,0.791332\H,-2.963017,-1.192664,1.471176\H,-2.7
 73868,0.574612,1.404581\\Version=ES64L-G16RevA.03\State=2-A\HF=-420.17
 55008\S2=0.770528\S2-1=0.\S2A=0.750317\RMSD=3.142e-09\RMSF=1.167e-03\Z
 eroPoint=0.1095744\Thermal=0.1178406\Dipole=-0.5606858,-0.1786245,-0.4
 492846\DipoleDeriv=-0.7669716,-0.0032785,0.0707603,0.0490824,-0.360658
 8,-0.065207,0.39514,-0.0945631,-0.3638698,0.3805834,0.0775391,-0.05539
 6,0.3115575,0.2567955,0.0610758,-0.133735,0.0712723,0.2908452,0.486164
 8,0.2260232,0.1698575,0.2123462,-0.2643162,-0.0148148,0.2172975,-0.014
 2309,-0.1215599,-0.3799253,-0.0483479,-0.1234411,-0.3990894,0.2787767,
 0.0088179,-0.4297941,0.0431377,0.1850541,-0.4928487,-0.1333997,-0.0806
 071,-0.1992347,0.0619132,-0.0022993,-0.1858598,0.000251,-0.0233427,2.7
 37203,-0.0499908,0.1083556,0.5621997,1.7152952,0.1668469,0.3830825,0.1
 863974,0.3818677,-1.0837811,0.3111439,0.000429,0.1443447,-1.1450719,-0
 .0621926,-0.0632119,-0.067633,-0.3436534,-1.8488019,-0.3876131,-0.0332
 804,-0.652852,-0.8537666,-0.0957411,-0.2005661,-0.1340766,-0.3517898,1
 .0909714,0.0960429,-0.0456622,-0.0327383,0.2545411,0.0014187,-0.013990
 9,0.0447065,0.3543403,-0.0899752,-0.0338849,0.0151167,0.0083476,0.0351
 375,-0.0180194,0.0440848,-0.0502759,-0.081827,-0.0355943,-0.0232712,0.
 0003698,-0.061758,-0.020642,-0.0907128,-0.0189854,-0.0647517,0.0072895
 ,-0.0286401,-0.0382121,0.0300262,0.0602532,-0.0047219,0.0887437,0.0108
 758,0.0420151,-0.0086509,-0.1316025,0.0121544,-0.0010558,0.0173257,0.0
 958322,0.0028707,-0.0031897,0.0158661,0.0591318,0.0773066,0.0513075,-0
 .0184852,0.0211806,-0.0409623,0.083023,0.0190777,0.0485535,-0.0013129,
 0.0859115,-0.0562128,-0.0369873,-0.0409652,-0.0081519,-0.0638099,-0.02
 02252,-0.0266683,0.0174778\Polar=141.3236422,-8.6647104,62.3838261,1.5
 119771,0.6102803,51.1042648\Quadrupole=5.2415666,-4.0300812,-1.2114854
 ,5.4764858,-3.0425346,-0.1555151\PG=C01 [X(C5H7O3)]\NImag=4\\0.2572513
 7,0.13598179,0.54505743,0.14677871,-0.12994748,0.18229030,-0.02758934,
 -0.00082535,-0.01828907,0.03084629,-0.03734574,-0.44940704,0.17098654,
 0.03062966,0.46150233,-0.00523895,0.20285876,-0.09656158,0.00682788,-0
 .18406667,0.09104367,-0.06281066,-0.03054009,-0.03779088,-0.00532691,-
 0.00671744,0.00332328,0.97536135,0.01290546,0.01099494,0.00633996,-0.0
 0127828,0.00127188,0.00114968,-0.25485791,0.07669134,-0.00013537,0.004
 15637,0.00270599,0.00179399,-0.00053294,0.00027105,0.03926095,-0.00964
 524,0.00816925,-0.16110490,-0.10947999,-0.09281230,-0.00106010,0.01299
 680,-0.00396849,0.04630631,-0.01402231,-0.00665274,0.11398614,-0.11363
 929,-0.10394661,-0.04754371,-0.02723766,-0.01335493,-0.01991291,0.0325
 2121,-0.01211188,-0.00316252,0.11032928,0.12786529,-0.14121798,-0.0765
 7523,-0.08780851,0.00981789,0.01348764,0.00537207,0.03011372,-0.006893
 20,-0.00334858,0.10218923,0.07028749,0.08452894,-0.00734836,0.00522074
 ,0.00270505,0.00368831,0.00139305,-0.00104070,-0.95573740,0.25615991,-
 0.03326455,0.00079089,-0.00369422,-0.00184167,1.29741878,0.00244388,-0
 .00416253,0.00111724,-0.00247834,0.00035974,0.00003823,0.24516585,-0.0
 7886164,0.00885815,-0.00146452,0.00068061,-0.00207386,-0.30687205,0.16
 524838,-0.00026459,0.00028022,-0.00092595,0.00015863,0.00060090,-0.000
 13268,-0.04007057,0.01054435,-0.01392839,-0.00073337,-0.00106994,0.000
 45861,0.06179713,-0.00730684,0.04807658,0.00620610,-0.00019199,-0.0028
 3168,-0.00163520,-0.00345741,0.00097455,0.00779876,-0.00389427,-0.0028
 7256,0.00301709,0.00481805,0.00420932,-0.26167874,0.05337350,-0.010436
 76,0.66864807,-0.00081950,0.00133930,-0.00074598,0.00122509,0.00037708
 ,-0.00003820,0.01527458,-0.00097380,-0.00008330,0.00082003,0.00066278,
 0.00134100,0.01860872,-0.05368230,0.00376823,-0.14616096,0.94525740,0.
 00057922,-0.00122314,0.00033456,-0.00060611,-0.00080441,0.00019610,0.0
 0753349,-0.00319177,0.00634416,0.00281440,0.00228680,0.00113931,-0.023
 81141,0.00915823,-0.06870657,0.02398194,0.09346259,0.22140466,-0.00230
 222,-0.00052672,0.00139798,0.00021954,0.00147666,-0.00040656,-0.006538
 78,0.00246642,0.00073886,-0.00152530,-0.00181830,-0.00221236,-0.019473
 95,0.04512761,0.00234995,-0.18350475,0.21930901,0.02192127,0.18357622,
 0.00157617,0.00005152,-0.00065553,-0.00029516,-0.00114845,0.00016915,-
 0.00136986,0.00176925,-0.00008598,0.00115427,0.00111170,0.00113153,0.0
 4371810,-0.03076712,-0.00340246,0.20308920,-0.67644300,-0.06740508,-0.
 23415749,0.81063543,-0.00011164,0.00027821,-0.00012383,0.00010242,0.00
 013138,-0.00012635,-0.00229446,0.00116497,-0.00022678,-0.00056646,-0.0
 0047489,-0.00002608,0.00444159,-0.00395995,0.02049539,0.01980040,-0.06
 404840,-0.08710491,-0.01964641,0.09078760,0.04565325,-0.00301961,0.000
 30970,0.00117285,0.00106002,0.00140791,-0.00058320,0.00031669,0.003213
 87,0.00133421,-0.00069225,-0.00172837,-0.00154036,-0.05826348,-0.03381
 579,-0.01260969,-0.18738526,-0.09788644,-0.02361071,0.02868333,-0.0242
 1916,-0.00573633,0.49164449,-0.00101756,0.00004967,0.00043962,0.000211
 00,0.00036379,-0.00018007,0.00069174,0.00068198,0.00037181,-0.00034381
 ,-0.00091874,-0.00072113,-0.01107681,0.00421209,-0.00188283,-0.0712557
 1,-0.22637696,-0.02912202,-0.02667627,-0.10329081,-0.02341980,0.089327
 35,0.41574476,-0.00044656,0.00010147,0.00015855,0.00016137,0.00021266,
 -0.00010465,-0.00012233,0.00055708,0.00039093,-0.00023969,-0.00041866,
 -0.00031204,-0.00768794,-0.00429841,0.00944777,-0.02186788,-0.03293322
 ,-0.07347539,-0.00472524,-0.02252709,0.02685250,0.04969755,0.05711043,
 0.09666955,0.00121519,-0.00001055,-0.00051149,-0.00037587,-0.00062761,
 0.00019822,0.00074336,-0.00104661,-0.00043738,0.00042774,0.00075878,0.
 00073260,0.00319877,0.00012821,0.00086366,-0.05160001,-0.03440616,-0.0
 1237184,-0.00080872,0.01971677,0.00306124,-0.17624637,0.02101522,-0.01
 164329,0.44336324,-0.00009144,0.00001503,0.00004247,0.00004826,0.00003
 485,-0.00003306,-0.00015654,0.00056152,0.00015163,0.00002174,0.0000258
 8,-0.00000902,-0.00425464,-0.00323709,-0.00192365,-0.03500579,0.014332
 76,-0.00228779,-0.00022650,-0.00382053,-0.00002477,0.04279413,-0.09998
 776,0.00151355,0.04289476,0.65150867,0.00007174,0.00006097,-0.00006809
 ,0.00002168,-0.00002213,0.00004379,-0.00003936,0.00005583,-0.00049121,
 -0.00003230,0.00002567,0.00000116,-0.00162290,-0.00177861,0.00565444,-
 0.01159705,-0.00500621,-0.00165772,-0.00204906,0.00243923,-0.00555688,
 -0.00845675,0.00037875,-0.06666842,0.03507558,0.00083501,0.54965256,-0
 .00024360,0.00000255,0.00010727,0.00007258,0.00011812,-0.00004674,0.00
 000363,0.00015868,0.00019559,-0.00006337,-0.00014006,-0.00011734,-0.00
 072421,-0.00025807,-0.00175710,0.00173377,0.00763027,0.00388360,0.0005
 2476,-0.00300145,0.00074027,-0.03977299,0.00220315,0.03568389,-0.08597
 455,0.00033761,0.03369695,0.56931080,0.00004355,-0.00000417,-0.0000286
 1,-0.00000889,-0.00001650,0.00001719,0.00008753,-0.00009366,-0.0000996
 3,0.00001438,0.00003988,0.00003024,0.00013168,0.00003150,0.00050182,-0
 .00159529,0.00063163,0.00096955,0.00091442,0.00061335,-0.00111859,0.00
 627736,0.00157952,-0.00455481,0.00012418,-0.08608426,-0.00858402,0.003
 98316,0.58888017,-0.00006094,0.00000886,0.00001128,0.00001794,0.000032
 46,-0.00001136,-0.00007901,0.00004345,0.00008690,-0.00001378,-0.000051
 36,-0.00001850,0.00021478,-0.00005608,-0.00050886,0.00000620,0.0043816
 1,0.00180678,0.00167835,-0.00155632,-0.00131962,0.00056767,-0.00248345
 ,0.00688093,0.04586764,-0.00950466,-0.20362623,0.03937625,-0.00576942,
 0.51088220,-0.00017885,0.00003218,0.00006589,0.00006536,0.00008223,-0.
 00003380,-0.00018527,0.00028900,0.00006009,-0.00004950,-0.00011982,-0.
 00009783,-0.00137769,-0.00119586,0.00010591,-0.00384398,0.00626883,-0.
 00140309,0.00154065,-0.00141666,0.00008273,-0.03259474,-0.03167187,-0.
 01760139,-0.07419823,-0.06828285,-0.04310150,0.00694993,0.01224686,0.0
 0689891,0.10037025,-0.00003883,-0.00001486,0.00003234,0.00000267,0.000
 01844,-0.00001293,-0.00000467,0.00001258,0.00006579,-0.00001270,-0.000
 02022,-0.00003784,0.00030071,0.00022530,-0.00030246,0.00236498,-0.0018
 9284,0.00011274,-0.00199365,0.00117832,-0.00034219,0.00559910,0.008006
 93,0.00516425,-0.08077154,-0.23392484,-0.10851861,0.00060143,0.0003493
 4,0.00051033,0.08176885,0.24201176,-0.00000945,0.00001419,-0.00000327,
 0.00000739,0.00000188,-0.00000081,0.00002216,-0.00000466,0.00000790,-0
 .00000699,-0.00001688,0.00000228,-0.00017329,-0.00002258,0.00005165,0.
 00058913,0.00239195,0.00035897,0.00108619,-0.00024388,0.00047370,-0.00
 300042,-0.00186753,0.00032950,-0.04817794,-0.10637871,-0.11765741,-0.0
 0960107,-0.02536810,-0.01537654,0.04958122,0.11724556,0.12414189,-0.00
 010817,0.00003275,0.00003200,0.00005058,0.00006009,-0.00001663,0.00011
 573,-0.00006734,-0.00001930,-0.00004360,-0.00008004,-0.00005844,-0.000
 48381,-0.00019850,0.00075247,0.00234786,0.00905708,0.00030081,0.000659
 53,-0.00374066,-0.00055666,-0.02631500,0.02977016,-0.02196937,-0.05264
 918,0.02010772,-0.01493846,0.00389524,-0.01249461,0.00785851,0.0034460
 8,-0.00862394,0.00712694,0.06942067,0.00005039,0.00002429,-0.00005860,
 -0.00000386,-0.00002217,0.00001900,0.00001046,-0.00000280,-0.00008012,
 0.00000113,0.00000364,0.00006193,0.00033573,-0.00014898,0.00059069,-0.
 00272043,-0.00097247,-0.00106182,-0.00194214,-0.00009275,-0.00106949,0
 .00808175,-0.00179894,0.00077608,0.03067942,-0.24017072,0.12315356,-0.
 00157621,0.00490482,-0.00311626,0.00272590,-0.01796608,0.01337122,-0.0
 3523166,0.25472591,0.00004764,0.00000447,-0.00002100,-0.00000577,-0.00
 002292,0.00000903,0.00015997,-0.00010585,0.00002335,0.00002316,0.00003
 967,0.00002980,-0.00005769,-0.00011479,-0.00012707,-0.00053080,0.00354
 820,0.00125089,0.00157677,-0.00139045,-0.00019954,-0.00366278,-0.00039
 419,0.00020345,-0.01965599,0.11923269,-0.12981661,-0.00299742,0.025636
 49,-0.01668327,0.00333829,-0.01349410,0.01051939,0.01956961,-0.1317645
 6,0.13764375,-0.00011171,0.00000541,0.00004629,0.00003708,0.00005715,-
 0.00001924,0.00001574,0.00004166,0.00007580,-0.00004369,-0.00007316,-0
 .00006605,-0.00016025,0.00002079,-0.00027775,0.00152646,0.00166494,0.0
 0026483,-0.00008117,-0.00062221,0.00020862,-0.00134547,-0.00084563,0.0
 0318900,-0.01244819,0.00095301,-0.00443305,-0.31422215,0.02809067,-0.0
 2276103,0.00035347,0.00031217,0.00019917,0.00023546,-0.00036464,0.0002
 6069,0.34055613,-0.00000385,-0.00000067,0.00000161,-0.00000003,0.00000
 275,-0.00000106,-0.00002832,0.00000790,0.00004269,-0.00000213,-0.00000
 295,-0.00000353,0.00004193,0.00006180,-0.00016638,0.00012493,-0.001367
 27,-0.00055421,-0.00053664,0.00036231,0.00065995,0.00129202,0.00147659
 ,-0.00068760,0.00200494,-0.00240236,0.00086299,0.02770548,-0.04846123,
 0.00226707,-0.00012407,-0.00005952,0.00015126,0.00003849,0.00001235,-0
 .00006289,-0.03103331,0.04818606,0.00006201,-0.00000200,-0.00001628,-0
 .00001674,-0.00003245,0.00000951,0.00005174,-0.00007120,-0.00005138,0.
 00001685,0.00004127,0.00002376,0.00023225,0.00019284,0.00044984,-0.000
 68559,-0.00334248,-0.00138370,-0.00051223,0.00129700,0.00033540,0.0076
 3583,0.00061632,-0.00601268,0.02799239,-0.00275094,0.00709717,-0.02495
 573,0.00272448,-0.05012882,-0.00078253,-0.00060878,0.00104885,-0.00069
 072,0.00084767,0.00082778,0.02421532,-0.00228070,0.05124185,0.00004696
 ,-0.00000233,-0.00002672,-0.00001873,-0.00002444,0.00001211,-0.0000587
 4,0.00000943,-0.00004320,0.00001888,0.00002735,0.00003398,0.00005857,0
 .00000925,0.00005073,-0.00047184,-0.00153642,-0.00024908,-0.00043949,0
 .00060678,0.00022048,0.00246435,-0.00005449,-0.00085965,0.00066920,-0.
 01232450,0.00918482,-0.05690269,0.04329324,-0.02972219,0.00021020,0.00
 028109,-0.00085924,-0.00066332,0.00023530,0.00286355,-0.00423249,0.026
 84987,-0.01745949,0.05733569,-0.00001137,-0.00000318,-0.00000393,-0.00
 000131,0.00000459,0.00000399,-0.00007477,0.00004332,0.00000921,-0.0000
 0429,-0.00000954,-0.00000287,-0.00004682,0.00003519,-0.00011540,0.0002
 4783,-0.00086886,0.00023355,-0.00057499,0.00039776,0.00035569,-0.00103
 276,0.00032829,-0.00019443,-0.00073490,0.00394005,-0.00282590,0.042933
 31,-0.23550641,0.11991327,-0.00047237,0.00073626,0.00040962,0.00088777
 ,0.00099616,-0.00112100,-0.00000299,-0.00196447,-0.00002416,-0.0474132
 3,0.25070508,0.00001145,-0.00000932,0.00000058,-0.00000508,-0.00000357
 ,0.00000040,0.00003163,-0.00003067,0.00000642,0.00000530,0.00001813,0.
 00000154,0.00002451,0.00006199,-0.00007000,0.00016943,0.00037528,0.000
 05233,-0.00009477,-0.00023743,0.00020238,-0.00152274,-0.00100326,0.002
 88044,-0.00696697,0.02805491,-0.01963787,-0.02746705,0.11762108,-0.123
 83552,-0.00051246,-0.00019671,0.00107746,0.00307962,-0.00175788,-0.004
 83642,-0.00034184,0.00061828,-0.00171148,0.02895938,-0.13067154,0.1365
 4675,0.00009781,-0.00000810,-0.00004390,-0.00003360,-0.00004902,0.0000
 1826,-0.00000380,-0.00007770,-0.00003440,0.00003566,0.00007625,0.00005
 529,0.00009257,0.00001405,0.00007135,-0.00115832,0.00095093,0.00077267
 ,-0.00052964,-0.00103865,0.00025420,0.00146630,-0.00027647,-0.00156847
 ,0.00468364,0.01318503,0.00821967,-0.08458715,-0.08110824,-0.04984929,
 -0.00050769,0.00021433,0.00321620,0.00009192,-0.00028114,-0.00092923,-
 0.01007923,-0.02632931,-0.01510336,0.00198344,0.00630089,0.00462960,0.
 08844809,-0.00003367,0.00000686,0.00002407,0.00001220,0.00001363,-0.00
 001111,-0.00000178,0.00000907,0.00003407,-0.00000785,-0.00002491,-0.00
 002315,0.00003396,0.00000506,-0.00011624,0.00026336,-0.00002347,-0.000
 57321,-0.00084142,-0.00055695,0.00108029,0.00037933,-0.00007042,0.0001
 7869,0.00027509,-0.00079120,-0.00107653,-0.08069797,-0.22686399,-0.104
 61951,-0.00013035,0.00133943,0.00031668,0.00048268,0.00050774,0.000009
 24,0.00179615,0.00414870,0.00339312,-0.00995689,-0.01883425,-0.0128392
 9,0.08842717,0.24113468,-0.00006528,-0.00000634,0.00002726,0.00001359,
 0.00003165,-0.00000819,-0.00010035,0.00008726,0.00004040,-0.00002282,-
 0.00004816,-0.00004377,0.00008484,0.00018445,-0.00023477,0.00109133,-0
 .00307106,-0.00055946,-0.00110273,0.00167971,0.00067139,0.00031489,0.0
 0215737,0.00275956,-0.01402643,-0.02691765,-0.01726870,-0.04674135,-0.
 10197768,-0.10815938,0.00339956,0.00038260,-0.00497356,-0.00047038,0.0
 0008857,0.00117647,-0.00056076,-0.00084748,-0.00172982,0.00789451,0.01
 403390,0.00932298,0.05029139,0.11422288,0.11897960\\-0.00246852,-0.001
 01692,-0.00264304,0.00028347,0.00036773,0.00071034,0.00248451,-0.00055
 308,-0.00081308,-0.00447885,0.00242070,0.00266003,0.00194219,-0.000913
 17,-0.00035109,0.00086655,-0.00016439,0.00029567,0.00052428,-0.0003063
 5,-0.00002367,0.00051893,0.00008373,0.00014214,0.00022605,0.00007468,0
 .00004137,0.00004682,0.00000105,-0.00001370,0.00003078,0.00000362,-0.0
 0000063,0.00002057,0.00000507,0.00000266,0.00000504,-0.00000150,-0.000
 00975,0.00000066,-0.00000054,-0.00000145,-0.00000247,-0.00000062,0.000
 00420\\\@


 WE HAVE SEEN THAT MAN ON THE AVERAGE DOES NOT LIVE ABOVE
 TWO-AND-TWENTY YEARS.  DURING THESE TWO AND TWENTY
 YEARS HE IS LIABLE TO TWO AND TWENTY THOUSAND EVILS,
 MANY OF WHICH ARE INCURABLE.  YET EVEN IN THIS DREADFUL STATE
 MEN STILL STRUT AND POSE ON THE STAGE OF LIFE.
 THEY MAKE LOVE AT THE RISK OF DESTRUCTION,
 INTRIGUE, CARRY ON WAR, AND FORM PROJECTS, JUST AS IF THEY
 WERE TO LIVE IN LUXURY AND HAPPINESS FOR A THOUSAND
 AGES.

                                              -- VOLTAIRE
 Job cpu time:       0 days  0 hours 48 minutes 41.2 seconds.
 Elapsed time:       0 days  0 hours  2 minutes  1.8 seconds.
 File lengths (MBytes):  RWF=    153 Int=      0 D2E=      0 Chk=      5 Scr=      1
 Normal termination of Gaussian 16 at Sat Aug 16 14:06:58 2025.
