 Entering Gaussian System, Link 0=g16
 Initial command:
 /opt/g16/l1.exe "/home/aayush/scratches/g16/Gau-13993.inp" -scrdir="/home/aayush/scratches/g16/"
 Entering Link 1 = /opt/g16/l1.exe PID=     13996.
  
 Copyright (c) 1988,1990,1992,1993,1995,1998,2003,2009,2016,
            Gaussian, Inc.  All Rights Reserved.
  
 This is part of the Gaussian(R) 16 program.  It is based on
 the Gaussian(R) 09 system (copyright 2009, Gaussian, Inc.),
 the Gaussian(R) 03 system (copyright 2003, Gaussian, Inc.),
 the Gaussian(R) 98 system (copyright 1998, Gaussian, Inc.),
 the Gaussian(R) 94 system (copyright 1995, Gaussian, Inc.),
 the Gaussian 92(TM) system (copyright 1992, Gaussian, Inc.),
 the Gaussian 90(TM) system (copyright 1990, Gaussian, Inc.),
 the Gaussian 88(TM) system (copyright 1988, Gaussian, Inc.),
 the Gaussian 86(TM) system (copyright 1986, Carnegie Mellon
 University), and the Gaussian 82(TM) system (copyright 1983,
 Carnegie Mellon University). Gaussian is a federally registered
 trademark of Gaussian, Inc.
  
 This software contains proprietary and confidential information,
 including trade secrets, belonging to Gaussian, Inc.
  
 This software is provided under written license and may be
 used, copied, transmitted, or stored only in accord with that
 written license.
  
 The following legend is applicable only to US Government
 contracts under FAR:
  
                    RESTRICTED RIGHTS LEGEND
  
 Use, reproduction and disclosure by the US Government is
 subject to restrictions as set forth in subparagraphs (a)
 and (c) of the Commercial Computer Software - Restricted
 Rights clause in FAR 52.227-19.
  
 Gaussian, Inc.
 340 Quinnipiac St., Bldg. 40, Wallingford CT 06492
  
  
 ---------------------------------------------------------------
 Warning -- This program may not be used in any manner that
 competes with the business of Gaussian, Inc. or will provide
 assistance to any competitor of Gaussian, Inc.  The licensee
 of this program is prohibited from giving any competitor of
 Gaussian, Inc. access to this program.  By using this program,
 the user acknowledges that Gaussian, Inc. is engaged in the
 business of creating and licensing software in the field of
 computational chemistry and represents and warrants to the
 licensee that it is not a competitor of Gaussian, Inc. and that
 it will not use this program in any manner prohibited above.
 ---------------------------------------------------------------
  

 Cite this work as:
 Gaussian 16, Revision A.03,
 M. J. Frisch, G. W. Trucks, H. B. Schlegel, G. E. Scuseria, 
 M. A. Robb, J. R. Cheeseman, G. Scalmani, V. Barone, 
 G. A. Petersson, H. Nakatsuji, X. Li, M. Caricato, A. V. Marenich, 
 J. Bloino, B. G. Janesko, R. Gomperts, B. Mennucci, H. P. Hratchian, 
 J. V. Ortiz, A. F. Izmaylov, J. L. Sonnenberg, D. Williams-Young, 
 F. Ding, F. Lipparini, F. Egidi, J. Goings, B. Peng, A. Petrone, 
 T. Henderson, D. Ranasinghe, V. G. Zakrzewski, J. Gao, N. Rega, 
 G. Zheng, W. Liang, M. Hada, M. Ehara, K. Toyota, R. Fukuda, 
 J. Hasegawa, M. Ishida, T. Nakajima, Y. Honda, O. Kitao, H. Nakai, 
 T. Vreven, K. Throssell, J. A. Montgomery, Jr., J. E. Peralta, 
 F. Ogliaro, M. J. Bearpark, J. J. Heyd, E. N. Brothers, K. N. Kudin, 
 V. N. Staroverov, T. A. Keith, R. Kobayashi, J. Normand, 
 K. Raghavachari, A. P. Rendell, J. C. Burant, S. S. Iyengar, 
 J. Tomasi, M. Cossi, J. M. Millam, M. Klene, C. Adamo, R. Cammi, 
 J. W. Ochterski, R. L. Martin, K. Morokuma, O. Farkas, 
 J. B. Foresman, and D. J. Fox, Gaussian, Inc., Wallingford CT, 2016.
 
 ******************************************
 Gaussian 16:  ES64L-G16RevA.03 25-Dec-2016
                16-Aug-2025 
 ******************************************
 %chk=ethyl_propiolate.chk
 %nprocshared=24
 Will use up to   24 processors via shared memory.
 %mem=12GB
 --------------------------
 # freq 6-311++g(d,p) m062x
 --------------------------
 1/10=4,30=1,38=1/1,3;
 2/12=2,17=6,18=5,40=1/2;
 3/5=4,6=6,7=1111,11=2,25=1,30=1,71=2,74=-55,140=1/1,2,3;
 4//1;
 5/5=2,38=5,98=1/2;
 8/6=4,10=90,11=11/1;
 11/6=1,8=1,9=11,15=111,16=1/1,2,10;
 10/6=1/2;
 6/7=2,8=2,9=2,10=2,28=1/1;
 7/8=1,10=1,25=1/1,2,3,16;
 1/10=4,30=1/3;
 99//99;
 -------------------
 Title Card Required
 -------------------
 Symbolic Z-matrix:
 Charge =  0 Multiplicity = 2
 O                     4.49777  -0.2675    0.33272 
 H                     4.54471   0.63683  -0.01769 
 C                     2.203    -0.32472  -0.06491 
 H                     3.46089  -0.63357  -0.03433 
 C                     1.04371   0.01199  -0.09412 
 C                    -0.36479   0.38998  -0.17702 
 O                    -0.75197   1.51849  -0.05075 
 O                    -1.13445  -0.67025  -0.41241 
 C                    -2.55333  -0.41968  -0.49768 
 C                    -3.16815  -0.29736   0.88256 
 H                    -2.94025  -1.2824   -1.03679 
 H                    -2.71347   0.48239  -1.08925 
 H                    -4.25006  -0.18371   0.79117 
 H                    -2.96294  -1.19267   1.47115 
 H                    -2.77379   0.57459   1.4046 
 

 GradGradGradGradGradGradGradGradGradGradGradGradGradGradGradGradGradGrad
 Berny optimization.
 Initialization pass.
 Trust Radius=3.00D-01 FncErr=1.00D-07 GrdErr=1.00D-07 EigMax=2.50D+02 EigMin=1.00D-04
 Number of steps in this run=      2 maximum allowed number of steps=      2.
 GradGradGradGradGradGradGradGradGradGradGradGradGradGradGradGradGradGrad

                          Input orientation:                          
 ---------------------------------------------------------------------
 Center     Atomic      Atomic             Coordinates (Angstroms)
 Number     Number       Type             X           Y           Z
 ---------------------------------------------------------------------
      1          8           0        4.497773   -0.267496    0.332724
      2          1           0        4.544712    0.636832   -0.017686
      3          6           0        2.202996   -0.324722   -0.064906
      4          1           0        3.460894   -0.633571   -0.034328
      5          6           0        1.043713    0.011986   -0.094122
      6          6           0       -0.364789    0.389977   -0.177016
      7          8           0       -0.751968    1.518493   -0.050745
      8          8           0       -1.134447   -0.670254   -0.412410
      9          6           0       -2.553334   -0.419679   -0.497676
     10          6           0       -3.168151   -0.297358    0.882555
     11          1           0       -2.940254   -1.282395   -1.036787
     12          1           0       -2.713469    0.482385   -1.089252
     13          1           0       -4.250059   -0.183709    0.791172
     14          1           0       -2.962940   -1.192669    1.471145
     15          1           0       -2.773791    0.574587    1.404599
 ---------------------------------------------------------------------
                    Distance matrix (angstroms):
                    1          2          3          4          5
     1  O    0.000000
     2  H    0.970979   0.000000
     3  C    2.329675   2.531887   0.000000
     4  H    1.159248   1.669989   1.295620   0.000000
     5  C    3.491538   3.557143   1.207544   2.502615   0.000000
     6  C    4.933215   4.918285   2.667749   3.962810   1.460694
     7  O    5.558470   5.369659   3.482737   4.730735   2.344337
     8  O    5.695554   5.840987   3.373229   4.611014   2.304591
     9  C    7.101467   7.192278   4.776922   6.035841   3.645262
    10  C    7.685675   7.821215   5.454141   6.700593   4.334673
    11  H    7.630847   7.794018   5.321157   6.511574   4.293720
    12  H    7.388257   7.338481   5.086485   6.362467   3.915096
    13  H    8.760237   8.869923   6.511119   7.768051   5.370853
    14  H    7.603564   7.869468   5.458908   6.621532   4.467049
    15  H    7.398220   7.455686   5.266556   6.511640   4.139568
                    6          7          8          9         10
     6  C    0.000000
     7  O    1.199750   0.000000
     8  O    1.331117   2.251156   0.000000
     9  C    2.355439   2.683501   1.443364   0.000000
    10  C    3.074729   3.163274   2.439659   1.515916   0.000000
    11  H    3.188895   3.688611   2.006365   1.088406   2.169357
    12  H    2.521311   2.449388   2.068817   1.090562   2.168584
    13  H    4.044975   3.980321   3.375259   2.143755   1.091692
    14  H    3.459999   3.815094   2.676581   2.154425   1.090931
    15  H    2.887711   2.663973   2.745651   2.157734   1.090109
                   11         12         13         14         15
    11  H    0.000000
    12  H    1.780065   0.000000
    13  H    2.502825   2.518091   0.000000
    14  H    2.509639   3.069800   1.771169   0.000000
    15  H    3.071882   2.496284   1.769371   1.778595   0.000000
 Stoichiometry    C5H7O3(2)
 Framework group  C1[X(C5H7O3)]
 Deg. of freedom    39
 Full point group                 C1      NOp   1
 Largest Abelian subgroup         C1      NOp   1
 Largest concise Abelian subgroup C1      NOp   1
                         Standard orientation:                         
 ---------------------------------------------------------------------
 Center     Atomic      Atomic             Coordinates (Angstroms)
 Number     Number       Type             X           Y           Z
 ---------------------------------------------------------------------
      1          8           0        4.559645   -0.256634    0.320619
      2          1           0        4.607003    0.647672   -0.029791
      3          6           0        2.264842   -0.312798   -0.077011
      4          1           0        3.522597   -0.622229   -0.046433
      5          6           0        1.105715    0.024447   -0.106227
      6          6           0       -0.302612    0.403090   -0.189121
      7          8           0       -0.689268    1.531786   -0.062850
      8          8           0       -1.072761   -0.656784   -0.424515
      9          6           0       -2.491531   -0.405552   -0.509781
     10          6           0       -3.106292   -0.282946    0.870450
     11          1           0       -2.878851   -1.268089   -1.048892
     12          1           0       -2.651249    0.496586   -1.101357
     13          1           0       -4.188147   -0.168796    0.779067
     14          1           0       -2.901495   -1.178352    1.459040
     15          1           0       -2.711528    0.588816    1.392494
 ---------------------------------------------------------------------
 Rotational constants (GHZ):           6.2892430           0.6893468           0.6609240
 Standard basis: 6-311++G(d,p) (5D, 7F)
 There are   233 symmetry adapted cartesian basis functions of A   symmetry.
 There are   225 symmetry adapted basis functions of A   symmetry.
   225 basis functions,   351 primitive gaussians,   233 cartesian basis functions
    31 alpha electrons       30 beta electrons
       nuclear repulsion energy       334.9660307455 Hartrees.
 NAtoms=   15 NActive=   15 NUniq=   15 SFac= 1.00D+00 NAtFMM=   60 NAOKFM=F Big=F
 Integral buffers will be    131072 words long.
 Raffenetti 2 integral format.
 Two-electron integral symmetry is turned on.
 One-electron integrals computed using PRISM.
 NBasis=   225 RedAO= T EigKep=  5.44D-06  NBF=   225
 NBsUse=   224 1.00D-06 EigRej=  4.72D-07 NBFU=   224
 ExpMin= 3.60D-02 ExpMax= 8.59D+03 ExpMxC= 1.30D+03 IAcc=3 IRadAn=         5 AccDes= 0.00D+00
 Harris functional with IExCor= 1009 and IRadAn=       5 diagonalized for initial guess.
 HarFok:  IExCor= 1009 AccDes= 0.00D+00 IRadAn=         5 IDoV= 1 UseB2=F ITyADJ=14
 ICtDFT=  3500011 ScaDFX=  1.000000  1.000000  1.000000  1.000000
 FoFCou: FMM=F IPFlag=           0 FMFlag=      100000 FMFlg1=           0
         NFxFlg=           0 DoJE=T BraDBF=F KetDBF=T FulRan=T
         wScrn=  0.000000 ICntrl=       500 IOpCl=  0 I1Cent=   200000004 NGrid=           0
         NMat0=    1 NMatS0=      1 NMatT0=    0 NMatD0=    1 NMtDS0=    0 NMtDT0=    0
 Petite list used in FoFCou.
 Initial guess <Sx>= 0.0000 <Sy>= 0.0000 <Sz>= 0.5000 <S**2>= 0.7500 S= 0.5000
 Requested convergence on RMS density matrix=1.00D-08 within 128 cycles.
 Requested convergence on MAX density matrix=1.00D-06.
 Requested convergence on             energy=1.00D-06.
 No special actions if energy rises.
 Restarting incremental Fock formation.
 SCF Done:  E(UM062X) =  -420.176156020     A.U. after   22 cycles
            NFock= 22  Conv=0.44D-08     -V/T= 2.0033
 <Sx>= 0.0000 <Sy>= 0.0000 <Sz>= 0.5000 <S**2>= 0.7619 S= 0.5059
 <L.S>=  0.00000000000    
 Annihilation of the first spin contaminant:
 S**2 before annihilation     0.7619,   after     0.7501
 DoSCS=F DFT=T ScalE2(SS,OS)=  1.000000  1.000000
 Range of M.O.s used for correlation:     1   224
 NBasis=   225 NAE=    31 NBE=    30 NFC=     0 NFV=     0
 NROrb=    224 NOA=    31 NOB=    30 NVA=   193 NVB=   194

 **** Warning!!: The largest alpha MO coefficient is  0.80096802D+02


 **** Warning!!: The largest beta MO coefficient is  0.90296612D+02

 Symmetrizing basis deriv contribution to polar:
 IMax=3 JMax=2 DiffMx= 0.00D+00
 G2DrvN: will do    16 centers at a time, making    1 passes.
 Calling FoFCou, ICntrl=  3107 FMM=F I1Cent=   0 AccDes= 0.00D+00.
 End of G2Drv F.D. properties file   721 does not exist.
 End of G2Drv F.D. properties file   722 does not exist.
 End of G2Drv F.D. properties file   788 does not exist.
          IDoAtm=111111111111111
          Differentiating once with respect to electric field.
                with respect to dipole field.
          Differentiating once with respect to nuclear coordinates.
 Keep R1 and R2 ints in memory in canonical form, NReq=671901989.
          There are    48 degrees of freedom in the 1st order CPHF.  IDoFFX=6 NUNeed=     3.
     45 vectors produced by pass  0 Test12= 2.46D-14 2.08D-09 XBig12= 1.41D+02 4.79D+00.
 AX will form    45 AO Fock derivatives at one time.
     45 vectors produced by pass  1 Test12= 2.46D-14 2.08D-09 XBig12= 2.98D+01 1.11D+00.
     45 vectors produced by pass  2 Test12= 2.46D-14 2.08D-09 XBig12= 1.88D+00 1.97D-01.
     45 vectors produced by pass  3 Test12= 2.46D-14 2.08D-09 XBig12= 3.34D-02 1.90D-02.
     45 vectors produced by pass  4 Test12= 2.46D-14 2.08D-09 XBig12= 4.33D-04 3.45D-03.
     45 vectors produced by pass  5 Test12= 2.46D-14 2.08D-09 XBig12= 5.93D-06 2.67D-04.
     38 vectors produced by pass  6 Test12= 2.46D-14 2.08D-09 XBig12= 4.75D-08 1.95D-05.
     24 vectors produced by pass  7 Test12= 2.46D-14 2.08D-09 XBig12= 3.91D-10 2.04D-06.
      5 vectors produced by pass  8 Test12= 2.46D-14 2.08D-09 XBig12= 3.08D-12 1.58D-07.
      2 vectors produced by pass  9 Test12= 2.46D-14 2.08D-09 XBig12= 1.98D-14 1.68D-08.
 InvSVY:  IOpt=1 It=  1 EMax= 4.06D-15
 Solved reduced A of dimension   339 with    48 vectors.
 Isotropic polarizability for W=    0.000000       82.58 Bohr**3.
 End of Minotr F.D. properties file   721 does not exist.
 End of Minotr F.D. properties file   722 does not exist.
 End of Minotr F.D. properties file   788 does not exist.

 **********************************************************************

            Population analysis using the SCF density.

 **********************************************************************

 Orbital symmetries:
 Alpha Orbitals:
       Occupied  (A) (A) (A) (A) (A) (A) (A) (A) (A) (A) (A) (A)
                 (A) (A) (A) (A) (A) (A) (A) (A) (A) (A) (A) (A)
                 (A) (A) (A) (A) (A) (A) (A)
       Virtual   (A) (A) (A) (A) (A) (A) (A) (A) (A) (A) (A) (A)
                 (A) (A) (A) (A) (A) (A) (A) (A) (A) (A) (A) (A)
                 (A) (A) (A) (A) (A) (A) (A) (A) (A) (A) (A) (A)
                 (A) (A) (A) (A) (A) (A) (A) (A) (A) (A) (A) (A)
                 (A) (A) (A) (A) (A) (A) (A) (A) (A) (A) (A) (A)
                 (A) (A) (A) (A) (A) (A) (A) (A) (A) (A) (A) (A)
                 (A) (A) (A) (A) (A) (A) (A) (A) (A) (A) (A) (A)
                 (A) (A) (A) (A) (A) (A) (A) (A) (A) (A) (A) (A)
                 (A) (A) (A) (A) (A) (A) (A) (A) (A) (A) (A) (A)
                 (A) (A) (A) (A) (A) (A) (A) (A) (A) (A) (A) (A)
                 (A) (A) (A) (A) (A) (A) (A) (A) (A) (A) (A) (A)
                 (A) (A) (A) (A) (A) (A) (A) (A) (A) (A) (A) (A)
                 (A) (A) (A) (A) (A) (A) (A) (A) (A) (A) (A) (A)
                 (A) (A) (A) (A) (A) (A) (A) (A) (A) (A) (A) (A)
                 (A) (A) (A) (A) (A) (A) (A) (A) (A) (A) (A) (A)
                 (A) (A) (A) (A) (A) (A) (A) (A) (A) (A) (A) (A)
                 (A)
 Beta  Orbitals:
       Occupied  (A) (A) (A) (A) (A) (A) (A) (A) (A) (A) (A) (A)
                 (A) (A) (A) (A) (A) (A) (A) (A) (A) (A) (A) (A)
                 (A) (A) (A) (A) (A) (A)
       Virtual   (A) (A) (A) (A) (A) (A) (A) (A) (A) (A) (A) (A)
                 (A) (A) (A) (A) (A) (A) (A) (A) (A) (A) (A) (A)
                 (A) (A) (A) (A) (A) (A) (A) (A) (A) (A) (A) (A)
                 (A) (A) (A) (A) (A) (A) (A) (A) (A) (A) (A) (A)
                 (A) (A) (A) (A) (A) (A) (A) (A) (A) (A) (A) (A)
                 (A) (A) (A) (A) (A) (A) (A) (A) (A) (A) (A) (A)
                 (A) (A) (A) (A) (A) (A) (A) (A) (A) (A) (A) (A)
                 (A) (A) (A) (A) (A) (A) (A) (A) (A) (A) (A) (A)
                 (A) (A) (A) (A) (A) (A) (A) (A) (A) (A) (A) (A)
                 (A) (A) (A) (A) (A) (A) (A) (A) (A) (A) (A) (A)
                 (A) (A) (A) (A) (A) (A) (A) (A) (A) (A) (A) (A)
                 (A) (A) (A) (A) (A) (A) (A) (A) (A) (A) (A) (A)
                 (A) (A) (A) (A) (A) (A) (A) (A) (A) (A) (A) (A)
                 (A) (A) (A) (A) (A) (A) (A) (A) (A) (A) (A) (A)
                 (A) (A) (A) (A) (A) (A) (A) (A) (A) (A) (A) (A)
                 (A) (A) (A) (A) (A) (A) (A) (A) (A) (A) (A) (A)
                 (A) (A)
 The electronic state is 2-A.
 Alpha  occ. eigenvalues --  -19.70635 -19.68637 -19.63544 -10.71032 -10.60874
 Alpha  occ. eigenvalues --  -10.58951 -10.57344 -10.54021  -1.26013  -1.18900
 Alpha  occ. eigenvalues --   -1.16732  -0.90685  -0.87230  -0.78261  -0.71056
 Alpha  occ. eigenvalues --   -0.67392  -0.64343  -0.58771  -0.57742  -0.56710
 Alpha  occ. eigenvalues --   -0.54006  -0.49651  -0.47092  -0.46847  -0.45687
 Alpha  occ. eigenvalues --   -0.43485  -0.42259  -0.39735  -0.38850  -0.37582
 Alpha  occ. eigenvalues --   -0.36545
 Alpha virt. eigenvalues --   -0.01856  -0.00574   0.00069   0.01747   0.02329
 Alpha virt. eigenvalues --    0.02711   0.03770   0.05132   0.05401   0.06350
 Alpha virt. eigenvalues --    0.06983   0.07863   0.08248   0.08777   0.10219
 Alpha virt. eigenvalues --    0.11592   0.12405   0.12470   0.13229   0.13256
 Alpha virt. eigenvalues --    0.14501   0.14894   0.15578   0.16330   0.16690
 Alpha virt. eigenvalues --    0.17341   0.18409   0.19426   0.19500   0.20295
 Alpha virt. eigenvalues --    0.20969   0.22536   0.23030   0.23406   0.25573
 Alpha virt. eigenvalues --    0.26137   0.26241   0.27319   0.28832   0.30155
 Alpha virt. eigenvalues --    0.30738   0.31090   0.32035   0.33001   0.33596
 Alpha virt. eigenvalues --    0.34414   0.36659   0.36751   0.37276   0.40255
 Alpha virt. eigenvalues --    0.41274   0.44982   0.45230   0.46628   0.49605
 Alpha virt. eigenvalues --    0.50806   0.54366   0.56788   0.57631   0.58999
 Alpha virt. eigenvalues --    0.60964   0.63571   0.63905   0.66919   0.67794
 Alpha virt. eigenvalues --    0.69057   0.70423   0.72799   0.72994   0.73299
 Alpha virt. eigenvalues --    0.74995   0.77092   0.78271   0.80729   0.81773
 Alpha virt. eigenvalues --    0.89340   0.92080   0.94813   0.99719   1.01717
 Alpha virt. eigenvalues --    1.03466   1.05438   1.07347   1.10771   1.13920
 Alpha virt. eigenvalues --    1.15469   1.16988   1.18263   1.19227   1.22055
 Alpha virt. eigenvalues --    1.22726   1.25307   1.28192   1.30079   1.32570
 Alpha virt. eigenvalues --    1.34493   1.36075   1.37769   1.38963   1.43666
 Alpha virt. eigenvalues --    1.46535   1.48964   1.51205   1.57066   1.57473
 Alpha virt. eigenvalues --    1.59190   1.60000   1.61262   1.62373   1.64108
 Alpha virt. eigenvalues --    1.66546   1.68591   1.69631   1.72866   1.74536
 Alpha virt. eigenvalues --    1.76361   1.79856   1.83105   1.86164   1.89447
 Alpha virt. eigenvalues --    1.93486   1.97001   2.01655   2.03566   2.07076
 Alpha virt. eigenvalues --    2.11356   2.13014   2.20634   2.30891   2.31789
 Alpha virt. eigenvalues --    2.35168   2.42732   2.47389   2.50850   2.51230
 Alpha virt. eigenvalues --    2.53628   2.55342   2.61509   2.62555   2.64367
 Alpha virt. eigenvalues --    2.67347   2.69817   2.71536   2.74070   2.79677
 Alpha virt. eigenvalues --    2.81660   2.82803   2.91438   2.94166   2.95243
 Alpha virt. eigenvalues --    2.98343   2.99821   3.01136   3.02264   3.07646
 Alpha virt. eigenvalues --    3.12196   3.13680   3.15083   3.21692   3.25251
 Alpha virt. eigenvalues --    3.29714   3.32981   3.38228   3.43827   3.57892
 Alpha virt. eigenvalues --    3.62579   3.67318   3.73090   3.84573   3.85826
 Alpha virt. eigenvalues --    3.86411   3.90342   4.02700   4.09337   4.15945
 Alpha virt. eigenvalues --    4.27501   5.05073   5.13265   5.16976   5.30781
 Alpha virt. eigenvalues --    5.31131   5.45231   5.56936   5.72254   5.94414
 Alpha virt. eigenvalues --   23.48314  23.93055  23.93320  24.05542  25.00650
 Alpha virt. eigenvalues --   49.91914  49.99548  50.10559
  Beta  occ. eigenvalues --  -19.69454 -19.68643 -19.63539 -10.71020 -10.60874
  Beta  occ. eigenvalues --  -10.58197 -10.57253 -10.54021  -1.26014  -1.16726
  Beta  occ. eigenvalues --   -1.14265  -0.90318  -0.86463  -0.77852  -0.70180
  Beta  occ. eigenvalues --   -0.64615  -0.62758  -0.58767  -0.56760  -0.54188
  Beta  occ. eigenvalues --   -0.52205  -0.49628  -0.46990  -0.45631  -0.43620
  Beta  occ. eigenvalues --   -0.42301  -0.39423  -0.38845  -0.36635  -0.36017
  Beta virt. eigenvalues --   -0.16379  -0.01294  -0.00246   0.00231   0.01758
  Beta virt. eigenvalues --    0.02360   0.02861   0.03915   0.05400   0.05662
  Beta virt. eigenvalues --    0.06593   0.07070   0.07881   0.08347   0.08834
  Beta virt. eigenvalues --    0.10350   0.11900   0.12517   0.12663   0.13232
  Beta virt. eigenvalues --    0.13366   0.14574   0.14937   0.15758   0.16324
  Beta virt. eigenvalues --    0.16773   0.17495   0.18474   0.19462   0.19678
  Beta virt. eigenvalues --    0.20418   0.21033   0.22382   0.23118   0.23525
  Beta virt. eigenvalues --    0.25634   0.26212   0.26306   0.27597   0.28849
  Beta virt. eigenvalues --    0.30169   0.30830   0.31512   0.32322   0.33136
  Beta virt. eigenvalues --    0.33631   0.34440   0.36736   0.37276   0.37563
  Beta virt. eigenvalues --    0.40334   0.41383   0.45144   0.45669   0.46784
  Beta virt. eigenvalues --    0.49679   0.50828   0.54619   0.56979   0.57937
  Beta virt. eigenvalues --    0.59259   0.61253   0.63776   0.64258   0.66986
  Beta virt. eigenvalues --    0.67845   0.69096   0.70455   0.72893   0.73045
  Beta virt. eigenvalues --    0.73968   0.75462   0.77341   0.78312   0.81027
  Beta virt. eigenvalues --    0.82970   0.89333   0.92152   0.94949   1.00328
  Beta virt. eigenvalues --    1.02320   1.04115   1.05815   1.08655   1.11717
  Beta virt. eigenvalues --    1.14900   1.16106   1.17361   1.18696   1.19501
  Beta virt. eigenvalues --    1.22412   1.22743   1.25495   1.28356   1.30508
  Beta virt. eigenvalues --    1.32947   1.34590   1.36372   1.38230   1.39118
  Beta virt. eigenvalues --    1.44050   1.46915   1.49402   1.51215   1.57469
  Beta virt. eigenvalues --    1.57949   1.59360   1.60162   1.61508   1.62858
  Beta virt. eigenvalues --    1.64472   1.66666   1.68835   1.69648   1.72866
  Beta virt. eigenvalues --    1.74607   1.76460   1.79851   1.83330   1.86368
  Beta virt. eigenvalues --    1.89963   1.93588   1.97347   2.01773   2.03763
  Beta virt. eigenvalues --    2.07342   2.11856   2.13275   2.20632   2.30996
  Beta virt. eigenvalues --    2.32203   2.35200   2.43163   2.48531   2.50789
  Beta virt. eigenvalues --    2.51145   2.53585   2.55509   2.61361   2.62539
  Beta virt. eigenvalues --    2.64356   2.66354   2.69684   2.71301   2.74126
  Beta virt. eigenvalues --    2.79829   2.82650   2.83037   2.91480   2.94164
  Beta virt. eigenvalues --    2.94811   2.98414   3.00857   3.01282   3.04041
  Beta virt. eigenvalues --    3.08026   3.13364   3.14361   3.15634   3.24178
  Beta virt. eigenvalues --    3.25373   3.29905   3.33491   3.38478   3.43799
  Beta virt. eigenvalues --    3.59328   3.63376   3.68301   3.73857   3.84631
  Beta virt. eigenvalues --    3.85936   3.88946   3.90491   4.02768   4.09612
  Beta virt. eigenvalues --    4.16033   4.27497   5.07573   5.13243   5.16939
  Beta virt. eigenvalues --    5.31124   5.36164   5.45244   5.59489   5.72240
  Beta virt. eigenvalues --    5.94410  23.48698  23.93059  23.93334  24.05543
  Beta virt. eigenvalues --   25.01321  49.91197  49.99550  50.10563
          Condensed to atoms (all electrons):
               1          2          3          4          5          6
     1  O    7.812127   0.284033  -0.007254   0.193760  -0.045854   0.029904
     2  H    0.284033   0.455985   0.035054  -0.051791   0.004599   0.003385
     3  C   -0.007254   0.035054   5.856295   0.150162  -0.341964   1.082849
     4  H    0.193760  -0.051791   0.150162   0.312666  -0.071366   0.037239
     5  C   -0.045854   0.004599  -0.341964  -0.071366  11.541429  -5.725798
     6  C    0.029904   0.003385   1.082849   0.037239  -5.725798  11.094167
     7  O   -0.000056  -0.000149  -0.075749  -0.000069   0.254877   0.167797
     8  O    0.000373   0.000070  -0.054634  -0.001613  -0.341663   0.161734
     9  C    0.000117  -0.000160   0.019760   0.000883  -0.336192   0.115463
    10  C   -0.000041   0.000015  -0.010233   0.000004  -0.014819  -0.073001
    11  H    0.000023  -0.000003   0.001803   0.000017  -0.011487   0.016994
    12  H    0.000016   0.000004   0.000664   0.000004  -0.008201   0.000245
    13  H   -0.000004  -0.000001  -0.001606  -0.000012   0.008141  -0.008723
    14  H    0.000021   0.000004   0.001647  -0.000020   0.001988   0.006361
    15  H   -0.000003  -0.000012   0.001177  -0.000013  -0.034854   0.010120
               7          8          9         10         11         12
     1  O   -0.000056   0.000373   0.000117  -0.000041   0.000023   0.000016
     2  H   -0.000149   0.000070  -0.000160   0.000015  -0.000003   0.000004
     3  C   -0.075749  -0.054634   0.019760  -0.010233   0.001803   0.000664
     4  H   -0.000069  -0.001613   0.000883   0.000004   0.000017   0.000004
     5  C    0.254877  -0.341663  -0.336192  -0.014819  -0.011487  -0.008201
     6  C    0.167797   0.161734   0.115463  -0.073001   0.016994   0.000245
     7  O    8.031158  -0.140065   0.057193  -0.072538   0.002921  -0.020257
     8  O   -0.140065   8.315813   0.199739  -0.044888  -0.087851  -0.008995
     9  C    0.057193   0.199739   5.418711   0.041100   0.443153   0.398658
    10  C   -0.072538  -0.044888   0.041100   5.452136  -0.056486  -0.020323
    11  H    0.002921  -0.087851   0.443153  -0.056486   0.531462  -0.037182
    12  H   -0.020257  -0.008995   0.398658  -0.020323  -0.037182   0.513083
    13  H   -0.000910   0.018083  -0.042746   0.398653  -0.000806  -0.004364
    14  H    0.001285  -0.006309  -0.042015   0.419442  -0.010901   0.004818
    15  H    0.004995  -0.020083   0.007618   0.384042   0.011063  -0.011733
              13         14         15
     1  O   -0.000004   0.000021  -0.000003
     2  H   -0.000001   0.000004  -0.000012
     3  C   -0.001606   0.001647   0.001177
     4  H   -0.000012  -0.000020  -0.000013
     5  C    0.008141   0.001988  -0.034854
     6  C   -0.008723   0.006361   0.010120
     7  O   -0.000910   0.001285   0.004995
     8  O    0.018083  -0.006309  -0.020083
     9  C   -0.042746  -0.042015   0.007618
    10  C    0.398653   0.419442   0.384042
    11  H   -0.000806  -0.010901   0.011063
    12  H   -0.004364   0.004818  -0.011733
    13  H    0.533263  -0.032698  -0.031777
    14  H   -0.032698   0.537523  -0.048445
    15  H   -0.031777  -0.048445   0.543467
          Atomic-Atomic Spin Densities.
               1          2          3          4          5          6
     1  O    0.722128   0.008288  -0.101196  -0.011098  -0.039312   0.026394
     2  H    0.008288  -0.024370  -0.000052   0.001684   0.001943  -0.002242
     3  C   -0.101196  -0.000052   0.550691   0.004171  -0.047083   0.039834
     4  H   -0.011098   0.001684   0.004171  -0.030992   0.007393  -0.005423
     5  C   -0.039312   0.001943  -0.047083   0.007393   0.596990  -0.451194
     6  C    0.026394  -0.002242   0.039834  -0.005423  -0.451194   0.313076
     7  O    0.000167  -0.000018   0.001432  -0.000040  -0.013969   0.013918
     8  O    0.000077  -0.000014   0.001798  -0.000058   0.005456  -0.002953
     9  C    0.000113   0.000003   0.002644  -0.000248  -0.013426   0.012012
    10  C    0.000013   0.000007  -0.000216  -0.000002   0.000144   0.001021
    11  H    0.000013  -0.000003   0.000678  -0.000017  -0.003711   0.002865
    12  H    0.000004  -0.000000  -0.000236  -0.000013   0.001312  -0.000892
    13  H   -0.000001   0.000001  -0.000138  -0.000002   0.001305  -0.000593
    14  H   -0.000001  -0.000002  -0.000075   0.000007   0.000313  -0.000562
    15  H    0.000013   0.000000   0.000129  -0.000034  -0.000856   0.000778
               7          8          9         10         11         12
     1  O    0.000167   0.000077   0.000113   0.000013   0.000013   0.000004
     2  H   -0.000018  -0.000014   0.000003   0.000007  -0.000003  -0.000000
     3  C    0.001432   0.001798   0.002644  -0.000216   0.000678  -0.000236
     4  H   -0.000040  -0.000058  -0.000248  -0.000002  -0.000017  -0.000013
     5  C   -0.013969   0.005456  -0.013426   0.000144  -0.003711   0.001312
     6  C    0.013918  -0.002953   0.012012   0.001021   0.002865  -0.000892
     7  O   -0.001693   0.001943  -0.000516  -0.000252  -0.000010   0.000237
     8  O    0.001943  -0.005704  -0.000678   0.000933  -0.000092  -0.000366
     9  C   -0.000516  -0.000678  -0.002314   0.001771  -0.000080   0.000167
    10  C   -0.000252   0.000933   0.001771  -0.004182   0.000469  -0.000106
    11  H   -0.000010  -0.000092  -0.000080   0.000469  -0.000124   0.000022
    12  H    0.000237  -0.000366   0.000167  -0.000106   0.000022  -0.000120
    13  H    0.000021  -0.000006  -0.000374  -0.000108  -0.000087   0.000031
    14  H    0.000040  -0.000072  -0.000021   0.000403  -0.000001  -0.000014
    15  H   -0.000083  -0.000140  -0.000296   0.000355  -0.000038   0.000073
              13         14         15
     1  O   -0.000001  -0.000001   0.000013
     2  H    0.000001  -0.000002   0.000000
     3  C   -0.000138  -0.000075   0.000129
     4  H   -0.000002   0.000007  -0.000034
     5  C    0.001305   0.000313  -0.000856
     6  C   -0.000593  -0.000562   0.000778
     7  O    0.000021   0.000040  -0.000083
     8  O   -0.000006  -0.000072  -0.000140
     9  C   -0.000374  -0.000021  -0.000296
    10  C   -0.000108   0.000403   0.000355
    11  H   -0.000087  -0.000001  -0.000038
    12  H    0.000031  -0.000014   0.000073
    13  H   -0.000091   0.000075  -0.000046
    14  H    0.000075  -0.000114   0.000016
    15  H   -0.000046   0.000016  -0.000026
 Mulliken charges and spin densities:
               1          2
     1  O   -0.267161   0.605601
     2  H    0.268966  -0.014776
     3  C   -0.657970   0.452379
     4  H    0.430148  -0.034672
     5  C    1.121165   0.045305
     6  C   -0.918738  -0.053961
     7  O   -0.210433   0.001177
     8  O    0.010290   0.000124
     9  C   -0.281282  -0.001242
    10  C   -0.403064   0.000251
    11  H    0.197280  -0.000115
    12  H    0.193560   0.000100
    13  H    0.165506  -0.000013
    14  H    0.167297  -0.000007
    15  H    0.184437  -0.000153
 Sum of Mulliken charges =  -0.00000   1.00000
 Mulliken charges and spin densities with hydrogens summed into heavy atoms:
               1          2
     1  O    0.431954   0.556154
     3  C   -0.657970   0.452379
     5  C    1.121165   0.045305
     6  C   -0.918738  -0.053961
     7  O   -0.210433   0.001177
     8  O    0.010290   0.000124
     9  C    0.109557  -0.001256
    10  C    0.114177   0.000078
 APT charges:
               1
     1  O   -0.161991
     2  H    0.340308
     3  C   -0.086883
     4  H   -0.103231
     5  C   -0.285339
     6  C    1.636144
     7  O   -0.853015
     8  O   -1.024534
     9  C    0.565521
    10  C   -0.045117
    11  H   -0.017303
    12  H   -0.014086
    13  H    0.007148
    14  H    0.011060
    15  H    0.031319
 Sum of APT charges =  -0.00000
 APT charges with hydrogens summed into heavy atoms:
               1
     1  O    0.075085
     3  C   -0.086883
     5  C   -0.285339
     6  C    1.636144
     7  O   -0.853015
     8  O   -1.024534
     9  C    0.534132
    10  C    0.004409
 Electronic spatial extent (au):  <R**2>=           1676.5567
 Charge=             -0.0000 electrons
 Dipole moment (field-independent basis, Debye):
    X=             -0.7780    Y=             -0.2946    Z=             -0.8507  Tot=              1.1898
 Quadrupole moment (field-independent basis, Debye-Ang):
   XX=            -35.0376   YY=            -52.1818   ZZ=            -48.0996
   XY=              8.0458   XZ=             -2.7378   YZ=             -0.3938
 Traceless Quadrupole moment (field-independent basis, Debye-Ang):
   XX=             10.0687   YY=             -7.0755   ZZ=             -2.9932
   XY=              8.0458   XZ=             -2.7378   YZ=             -0.3938
 Octapole moment (field-independent basis, Debye-Ang**2):
  XXX=              4.1347  YYY=             -5.1430  ZZZ=             -1.7501  XYY=              7.5539
  XXY=             26.1516  XXZ=            -18.5168  XZZ=             -4.9867  YZZ=              1.4574
  YYZ=              0.1168  XYZ=             -0.5995
 Hexadecapole moment (field-independent basis, Debye-Ang**3):
 XXXX=          -1655.4244 YYYY=           -190.9105 ZZZZ=           -124.2686 XXXY=            157.6997
 XXXZ=            -55.8117 YYYX=             10.7157 YYYZ=              0.6564 ZZZX=              6.8029
 ZZZY=             -0.0759 XXYY=           -312.7488 XXZZ=           -339.9246 YYZZ=            -47.8479
 XXYZ=              1.7488 YYXZ=              3.4439 ZZXY=              1.4490
 N-N= 3.349660307455D+02 E-N=-1.654148322327D+03  KE= 4.187785159484D+02
  Exact polarizability: 136.468  -6.738  60.787   2.881   0.488  50.472
 Approx polarizability: 121.906 -12.498  79.439   3.869   1.430  57.622
                          Isotropic Fermi Contact Couplings
        Atom                 a.u.       MegaHertz       Gauss      10(-4) cm-1
     1  O(17)              0.07433     -45.06032     -16.07864     -15.03050
     2  H(1)              -0.01037     -46.33390     -16.53309     -15.45533
     3  C(13)              0.51088     574.32431     204.93320     191.57397
     4  H(1)              -0.03522    -157.41322     -56.16895     -52.50740
     5  C(13)              0.08032      90.29532      32.21962      30.11928
     6  C(13)              0.00739       8.30305       2.96274       2.76960
     7  O(17)             -0.00024       0.14571       0.05199       0.04860
     8  O(17)             -0.00473       2.86704       1.02303       0.95634
     9  C(13)             -0.00033      -0.37206      -0.13276      -0.12411
    10  C(13)             -0.00020      -0.22334      -0.07969      -0.07450
    11  H(1)              -0.00000      -0.01629      -0.00581      -0.00543
    12  H(1)              -0.00002      -0.09731      -0.03472      -0.03246
    13  H(1)              -0.00002      -0.09216      -0.03288      -0.03074
    14  H(1)              -0.00000      -0.00666      -0.00237      -0.00222
    15  H(1)               0.00000       0.01771       0.00632       0.00591
 --------------------------------------------------------
       Center         ----  Spin Dipole Couplings  ----
                      3XX-RR        3YY-RR        3ZZ-RR
 --------------------------------------------------------
     1   Atom        2.606028     -1.320325     -1.285704
     2   Atom       -0.029330      0.093729     -0.064399
     3   Atom        0.366675     -0.191345     -0.175330
     4   Atom        0.200272     -0.094551     -0.105721
     5   Atom        0.091663     -0.003717     -0.087946
     6   Atom        0.011221     -0.006463     -0.004758
     7   Atom        0.048244     -0.005938     -0.042305
     8   Atom        0.003776      0.003858     -0.007634
     9   Atom        0.000630     -0.000279     -0.000351
    10   Atom        0.000900     -0.000393     -0.000507
    11   Atom        0.000958     -0.000491     -0.000467
    12   Atom        0.001089     -0.000567     -0.000522
    13   Atom        0.000602     -0.000298     -0.000304
    14   Atom        0.000916     -0.000473     -0.000443
    15   Atom        0.000990     -0.000517     -0.000473
 --------------------------------------------------------
                        XY            XZ            YZ
 --------------------------------------------------------
     1   Atom       -0.195185      0.370891     -0.020577
     2   Atom        0.020283     -0.002037     -0.072045
     3   Atom       -0.054162      0.062071     -0.013253
     4   Atom        0.052949      0.083264      0.031010
     5   Atom       -0.110346     -0.024086      0.033122
     6   Atom       -0.005923      0.001667     -0.001457
     7   Atom       -0.008746      0.028187      0.005711
     8   Atom       -0.000108      0.002036      0.005849
     9   Atom        0.000071      0.000192      0.000001
    10   Atom       -0.000030     -0.000020      0.000066
    11   Atom        0.000192      0.000243      0.000002
    12   Atom       -0.000173      0.000332      0.000018
    13   Atom       -0.000016     -0.000086      0.000002
    14   Atom        0.000185     -0.000308     -0.000028
    15   Atom       -0.000240     -0.000353      0.000016
 --------------------------------------------------------


 ---------------------------------------------------------------------------------
              Anisotropic Spin Dipole Couplings in Principal Axis System
 ---------------------------------------------------------------------------------

       Atom             a.u.   MegaHertz   Gauss  10(-4) cm-1        Axes

              Baa    -1.3305    96.273    34.353    32.113  0.0279  0.9758  0.2169
     1 O(17)  Bbb    -1.3203    95.534    34.089    31.867 -0.1024 -0.2131  0.9717
              Bcc     2.6508  -191.807   -68.442   -63.980  0.9944 -0.0494  0.0939
 
              Baa    -0.0928   -49.502   -17.663   -16.512 -0.0877  0.3672  0.9260
     2 H(1)   Bbb    -0.0314   -16.738    -5.972    -5.583  0.9880 -0.0866  0.1279
              Bcc     0.1241    66.240    23.636    22.095  0.1271  0.9261 -0.3552
 
              Baa    -0.1996   -26.783    -9.557    -8.934  0.0458  0.9213  0.3861
     3 C(13)  Bbb    -0.1795   -24.082    -8.593    -8.033 -0.1414 -0.3766  0.9155
              Bcc     0.3791    50.866    18.150    16.967  0.9889 -0.0965  0.1130
 
              Baa    -0.1360   -72.569   -25.894   -24.206 -0.1415 -0.4706  0.8709
     4 H(1)   Bbb    -0.0961   -51.284   -18.300   -17.107 -0.2731  0.8642  0.4226
              Bcc     0.2321   123.853    44.194    41.313  0.9515  0.1780  0.2508
 
              Baa    -0.1017   -13.644    -4.869    -4.551 -0.1652 -0.4778  0.8628
     5 C(13)  Bbb    -0.0682    -9.154    -3.266    -3.054  0.5454  0.6846  0.4836
              Bcc     0.1699    22.799     8.135     7.605  0.8218 -0.5504 -0.1475
 
              Baa    -0.0085    -1.140    -0.407    -0.380  0.2594  0.9333  0.2481
     6 C(13)  Bbb    -0.0048    -0.638    -0.228    -0.213 -0.1770 -0.2066  0.9623
              Bcc     0.0132     1.778     0.634     0.593  0.9494 -0.2935  0.1116
 
              Baa    -0.0517     3.744     1.336     1.249 -0.2812 -0.1714  0.9442
     7 O(17)  Bbb    -0.0053     0.385     0.137     0.128  0.0573  0.9792  0.1949
              Bcc     0.0571    -4.128    -1.473    -1.377  0.9579 -0.1089  0.2655
 
              Baa    -0.0103     0.749     0.267     0.250 -0.1349 -0.3781  0.9159
     8 O(17)  Bbb     0.0038    -0.278    -0.099    -0.093  0.9547 -0.2970  0.0180
              Bcc     0.0065    -0.470    -0.168    -0.157  0.2652  0.8768  0.4010
 
              Baa    -0.0004    -0.052    -0.019    -0.017 -0.1917  0.1170  0.9745
     9 C(13)  Bbb    -0.0003    -0.038    -0.014    -0.013 -0.0497  0.9904 -0.1287
              Bcc     0.0007     0.090     0.032     0.030  0.9802  0.0731  0.1840
 
              Baa    -0.0005    -0.072    -0.026    -0.024  0.0042 -0.4149  0.9098
    10 C(13)  Bbb    -0.0004    -0.049    -0.017    -0.016  0.0281  0.9095  0.4147
              Bcc     0.0009     0.121     0.043     0.040  0.9996 -0.0238 -0.0155
 
              Baa    -0.0005    -0.288    -0.103    -0.096 -0.1987  0.7438  0.6382
    11 H(1)   Bbb    -0.0005    -0.257    -0.092    -0.086 -0.0399 -0.6568  0.7530
              Bcc     0.0010     0.546     0.195     0.182  0.9793  0.1242  0.1601
 
              Baa    -0.0006    -0.340    -0.121    -0.113 -0.2031 -0.6857  0.6990
    12 H(1)   Bbb    -0.0005    -0.285    -0.102    -0.095 -0.0639  0.7216  0.6893
              Bcc     0.0012     0.625     0.223     0.208  0.9771 -0.0953  0.1903
 
              Baa    -0.0003    -0.166    -0.059    -0.056  0.0930 -0.0149  0.9956
    13 H(1)   Bbb    -0.0003    -0.159    -0.057    -0.053  0.0194  0.9997  0.0131
              Bcc     0.0006     0.326     0.116     0.109  0.9955 -0.0181 -0.0933
 
              Baa    -0.0005    -0.275    -0.098    -0.092  0.2435 -0.5122  0.8236
    14 H(1)   Bbb    -0.0005    -0.261    -0.093    -0.087  0.0038  0.8497  0.5273
              Bcc     0.0010     0.537     0.192     0.179  0.9699  0.1253 -0.2089
 
              Baa    -0.0006    -0.315    -0.112    -0.105  0.2562  0.6888  0.6782
    15 H(1)   Bbb    -0.0005    -0.275    -0.098    -0.092 -0.0517  0.7103 -0.7020
              Bcc     0.0011     0.590     0.210     0.197  0.9652 -0.1448 -0.2176
 

 ---------------------------------------------------------------------------------

 Calling FoFJK, ICntrl=    100127 FMM=F ISym2X=0 I1Cent= 0 IOpClX= 1 NMat=1 NMatS=1 NMatT=0.
 Full mass-weighted force constant matrix:
 Low frequencies ----1590.7163  -78.8084  -14.9554  -10.4996   -0.0010   -0.0004
 Low frequencies ---   -0.0003   21.1838   38.3569
 ******    2 imaginary frequencies (negative Signs) ****** 
 Diagonal vibrational polarizability:
       87.3524875      56.5536629     139.8736674
 Harmonic frequencies (cm**-1), IR intensities (KM/Mole), Raman scattering
 activities (A**4/AMU), depolarization ratios for plane and unpolarized
 incident light, reduced masses (AMU), force constants (mDyne/A),
 and normal coordinates:
                      1                      2                      3
                      A                      A                      A
 Frequencies --  -1590.7161               -74.0404                34.1236
 Red. masses --      1.0376                 2.8303                 6.8503
 Frc consts  --      1.5470                 0.0091                 0.0047
 IR Inten    --    649.2246                18.2360                 1.9147
  Atom  AN      X      Y      Z        X      Y      Z        X      Y      Z
     1   8    -0.04  -0.01  -0.01     0.06   0.08  -0.17    -0.15   0.36   0.10
     2   1    -0.03  -0.03  -0.02     0.02  -0.16  -0.80    -0.43   0.32  -0.04
     3   6    -0.01   0.01   0.01    -0.03  -0.09   0.26     0.01  -0.31  -0.12
     4   1     0.99   0.01   0.11    -0.04  -0.12   0.34     0.05  -0.12  -0.07
     5   6    -0.01   0.01   0.00    -0.01  -0.03   0.13     0.02  -0.24  -0.08
     6   6    -0.01  -0.00  -0.00     0.00  -0.01   0.04     0.05  -0.12  -0.01
     7   8     0.00  -0.00   0.00     0.01  -0.00   0.02     0.18  -0.09   0.10
     8   8     0.00   0.00   0.00    -0.00   0.00  -0.00    -0.06  -0.02  -0.07
     9   6    -0.00  -0.00  -0.00     0.00   0.02  -0.06    -0.04   0.15   0.01
    10   6     0.00  -0.00  -0.00    -0.05   0.01  -0.08     0.03   0.12   0.04
    11   1     0.00  -0.00  -0.00     0.02   0.04  -0.09    -0.16   0.23  -0.04
    12   1     0.00  -0.00  -0.00     0.04   0.04  -0.05     0.03   0.21   0.08
    13   1     0.00  -0.00  -0.00    -0.04   0.03  -0.12     0.04   0.24   0.10
    14   1    -0.00  -0.00  -0.00    -0.08  -0.00  -0.09    -0.04   0.05  -0.03
    15   1    -0.00   0.00   0.00    -0.06  -0.00  -0.05     0.15   0.03   0.09
                      4                      5                      6
                      A                      A                      A
 Frequencies --     78.6155               116.0389               155.8254
 Red. masses --      3.3421                 3.3959                 3.3706
 Frc consts  --      0.0122                 0.0269                 0.0482
 IR Inten    --      2.5846                 1.2199                17.6615
  Atom  AN      X      Y      Z        X      Y      Z        X      Y      Z
     1   8     0.04   0.02  -0.08    -0.01   0.01  -0.02     0.20   0.01  -0.03
     2   1    -0.00   0.16   0.28    -0.08   0.08   0.14     0.18   0.20   0.48
     3   6     0.05   0.06  -0.13     0.03  -0.05  -0.08     0.06   0.20   0.10
     4   1     0.07   0.11  -0.24     0.03  -0.02  -0.12     0.11   0.28   0.04
     5   6     0.02  -0.02   0.03     0.03  -0.02   0.02    -0.03  -0.12   0.01
     6   6     0.01  -0.06   0.12     0.05   0.04   0.03    -0.03  -0.12  -0.04
     7   8    -0.02  -0.07   0.14     0.11   0.08  -0.14     0.04  -0.09  -0.05
     8   8     0.02  -0.07   0.13    -0.01   0.03   0.21    -0.12  -0.05  -0.06
     9   6     0.03  -0.06  -0.05     0.01   0.08   0.03    -0.11   0.12   0.01
    10   6    -0.15   0.19  -0.16    -0.20  -0.19  -0.05    -0.04   0.02   0.05
    11   1     0.08  -0.14   0.04     0.08   0.20  -0.21    -0.22   0.22  -0.08
    12   1     0.12  -0.16  -0.23     0.13   0.20   0.19    -0.02   0.21   0.12
    13   1    -0.14   0.17  -0.34    -0.17  -0.05  -0.19    -0.02   0.29   0.10
    14   1    -0.24   0.29   0.03    -0.38  -0.34  -0.22    -0.22  -0.12  -0.10
    15   1    -0.23   0.28  -0.26    -0.19  -0.35   0.22     0.17  -0.15   0.18
                      7                      8                      9
                      A                      A                      A
 Frequencies --    182.2853               225.4146               276.0586
 Red. masses --      1.6197                 1.2799                 4.2239
 Frc consts  --      0.0317                 0.0383                 0.1897
 IR Inten    --     77.2195                 2.4403                14.5166
  Atom  AN      X      Y      Z        X      Y      Z        X      Y      Z
     1   8    -0.02  -0.00  -0.11    -0.05  -0.01  -0.01    -0.10  -0.00   0.02
     2   1    -0.37   0.36   0.79    -0.05  -0.02  -0.03     0.22  -0.19  -0.42
     3   6    -0.04  -0.09   0.07    -0.02   0.00  -0.02     0.03   0.15  -0.20
     4   1    -0.01   0.03  -0.14    -0.04  -0.03  -0.05    -0.03   0.05  -0.32
     5   6    -0.02  -0.01   0.12    -0.00   0.05   0.05    -0.05  -0.09   0.38
     6   6    -0.00   0.02   0.02    -0.01  -0.00   0.02    -0.01  -0.07   0.11
     7   8    -0.00   0.03  -0.05    -0.06  -0.02  -0.01     0.03  -0.03  -0.10
     8   8     0.02   0.02  -0.03     0.04  -0.03   0.01    -0.02  -0.03  -0.02
     9   6     0.02  -0.02  -0.02     0.05  -0.01  -0.01     0.00   0.08  -0.06
    10   6     0.06  -0.00  -0.00     0.06   0.02  -0.01     0.10  -0.01  -0.01
    11   1     0.03  -0.04   0.01     0.02   0.01  -0.02    -0.06   0.15  -0.12
    12   1    -0.02  -0.03  -0.04     0.08   0.01  -0.00     0.06   0.15   0.02
    13   1     0.04  -0.09   0.04     0.12   0.61  -0.02     0.06  -0.28   0.13
    14   1     0.15   0.04   0.02    -0.42  -0.19  -0.17     0.41   0.06  -0.02
    15   1     0.02   0.05  -0.05     0.49  -0.27   0.16    -0.04   0.10  -0.08
                     10                     11                     12
                      A                      A                      A
 Frequencies --    336.4680               381.4358               428.2272
 Red. masses --      2.9154                 7.9295                 3.7044
 Frc consts  --      0.1945                 0.6797                 0.4002
 IR Inten    --      9.1973                 2.7231                 1.7413
  Atom  AN      X      Y      Z        X      Y      Z        X      Y      Z
     1   8    -0.03  -0.01  -0.01     0.39   0.06   0.10     0.08   0.01   0.02
     2   1    -0.11   0.03   0.07     0.55   0.02   0.00     0.16   0.01   0.03
     3   6    -0.01  -0.02   0.05    -0.04  -0.39  -0.27    -0.09  -0.01  -0.01
     4   1    -0.03  -0.05   0.05     0.30   0.13   0.15     0.02   0.13   0.15
     5   6     0.03   0.10  -0.09     0.03   0.06   0.18    -0.12  -0.11  -0.12
     6   6    -0.00  -0.06  -0.01    -0.07   0.08   0.04    -0.08   0.03   0.07
     7   8    -0.17  -0.12  -0.02    -0.28   0.02  -0.05     0.03   0.08   0.03
     8   8     0.04  -0.10   0.09    -0.02   0.06  -0.06    -0.09   0.02   0.23
     9   6     0.10   0.21  -0.01    -0.05   0.03   0.01    -0.04  -0.03  -0.16
    10   6     0.06   0.02  -0.02    -0.04   0.01   0.03     0.20  -0.02  -0.10
    11   1    -0.05   0.43  -0.24    -0.04   0.02   0.03     0.04  -0.07  -0.16
    12   1     0.36   0.39   0.20    -0.10   0.03   0.02     0.03  -0.04  -0.21
    13   1     0.02  -0.31   0.01    -0.04   0.02   0.02     0.18   0.02   0.33
    14   1     0.34   0.05  -0.07    -0.06  -0.01   0.01     0.43  -0.04  -0.21
    15   1    -0.18   0.11   0.02    -0.04  -0.00   0.06     0.46  -0.07  -0.22
                     13                     14                     15
                      A                      A                      A
 Frequencies --    567.9249               618.8052               671.0548
 Red. masses --      5.4690                 5.1720                 1.1826
 Frc consts  --      1.0393                 1.1669                 0.3138
 IR Inten    --     11.0380                10.4206               173.9435
  Atom  AN      X      Y      Z        X      Y      Z        X      Y      Z
     1   8    -0.02  -0.01  -0.00    -0.05  -0.01  -0.00     0.05  -0.01   0.00
     2   1    -0.20  -0.00  -0.01    -0.44  -0.02  -0.10    -0.63   0.01  -0.02
     3   6     0.12  -0.07   0.01     0.31   0.05   0.06    -0.00   0.06  -0.09
     4   1     0.00  -0.21  -0.06     0.10  -0.38  -0.25    -0.07  -0.31   0.70
     5   6     0.23   0.41   0.06     0.20  -0.26  -0.03    -0.02  -0.00   0.02
     6   6     0.02  -0.10   0.02     0.06   0.08   0.04    -0.01  -0.00   0.00
     7   8     0.11  -0.07  -0.00    -0.26  -0.02  -0.03     0.01   0.00   0.00
     8   8    -0.16  -0.04   0.05    -0.04   0.18   0.05     0.00  -0.01  -0.00
     9   6    -0.27  -0.02  -0.12    -0.09   0.02  -0.05     0.01  -0.00   0.00
    10   6    -0.01  -0.01  -0.01    -0.00  -0.01  -0.01     0.00  -0.00   0.00
    11   1    -0.20  -0.09  -0.07     0.09  -0.16   0.10    -0.01   0.01  -0.01
    12   1    -0.25  -0.06  -0.18    -0.25  -0.11  -0.19     0.02   0.01   0.02
    13   1    -0.04   0.04   0.45    -0.02   0.02   0.19     0.00  -0.00  -0.01
    14   1     0.23  -0.02  -0.11     0.09  -0.05  -0.11    -0.01   0.00   0.01
    15   1     0.27  -0.05  -0.15     0.12  -0.06  -0.01    -0.01   0.00   0.00
                     16                     17                     18
                      A                      A                      A
 Frequencies --    779.4361               798.0308               892.8748
 Red. masses --      8.9362                 1.2356                 3.1315
 Frc consts  --      3.1986                 0.4636                 1.4709
 IR Inten    --     22.3665                 2.8506                11.2665
  Atom  AN      X      Y      Z        X      Y      Z        X      Y      Z
     1   8     0.00  -0.00   0.00    -0.00   0.00  -0.00    -0.01  -0.00  -0.01
     2   1    -0.04   0.00   0.01     0.04   0.00   0.02     0.11   0.01   0.05
     3   6    -0.02   0.00   0.03    -0.03   0.00  -0.01    -0.05   0.00  -0.01
     4   1     0.00  -0.00   0.09    -0.02   0.04   0.07    -0.04   0.08   0.18
     5   6     0.01   0.05  -0.26    -0.02   0.02   0.02    -0.01   0.05   0.01
     6   6    -0.07  -0.12   0.72     0.02  -0.03  -0.05     0.05  -0.10  -0.02
     7   8     0.03   0.00  -0.21     0.01  -0.05   0.01     0.00  -0.17  -0.02
     8   8     0.01   0.04  -0.19    -0.01   0.03   0.02    -0.12   0.24   0.04
     9   6     0.04   0.04   0.01     0.03   0.08   0.01     0.07  -0.02   0.09
    10   6     0.01   0.01   0.02     0.01   0.03  -0.01     0.11  -0.07  -0.08
    11   1     0.02  -0.12   0.27     0.06  -0.23   0.47     0.25  -0.01  -0.04
    12   1    -0.12  -0.12  -0.19    -0.09  -0.24  -0.43    -0.26   0.06   0.29
    13   1     0.02  -0.08  -0.15    -0.00  -0.18  -0.05     0.16   0.12  -0.51
    14   1    -0.06  -0.09  -0.12     0.08  -0.21  -0.39    -0.20   0.12   0.30
    15   1    -0.16  -0.05   0.25    -0.14  -0.15   0.40     0.01   0.13  -0.33
                     19                     20                     21
                      A                      A                      A
 Frequencies --    919.5089              1026.9111              1081.2743
 Red. masses --      2.3084                 1.4522                 3.6640
 Frc consts  --      1.1499                 0.9023                 2.5239
 IR Inten    --      8.6835                59.2771                31.1227
  Atom  AN      X      Y      Z        X      Y      Z        X      Y      Z
     1   8    -0.03   0.00  -0.02    -0.09   0.01  -0.05    -0.05   0.01  -0.03
     2   1     0.25   0.03   0.11     0.60   0.08   0.26     0.32   0.04   0.14
     3   6    -0.08   0.01  -0.02     0.06  -0.01  -0.02     0.10  -0.02  -0.01
     4   1    -0.06   0.16   0.35    -0.08   0.08   0.66    -0.03  -0.06   0.31
     5   6    -0.05  -0.01  -0.01     0.06  -0.03   0.01     0.07   0.01   0.01
     6   6     0.13  -0.03   0.02     0.02   0.03   0.01    -0.12  -0.02  -0.02
     7   8    -0.01  -0.10  -0.02    -0.02   0.04   0.00     0.01   0.03   0.01
     8   8     0.14   0.09   0.01     0.01  -0.04  -0.00    -0.21   0.02  -0.02
     9   6    -0.03   0.01  -0.09    -0.07   0.00   0.04     0.29  -0.06  -0.16
    10   6    -0.14  -0.00   0.08     0.04   0.00  -0.04    -0.06   0.02   0.17
    11   1     0.28  -0.05  -0.21    -0.18   0.03   0.07     0.25   0.00  -0.26
    12   1    -0.02   0.00  -0.11    -0.06   0.02   0.07     0.39  -0.08  -0.24
    13   1    -0.17   0.11   0.63     0.05  -0.03  -0.17    -0.06  -0.00   0.21
    14   1     0.14   0.07   0.09    -0.02  -0.03  -0.07    -0.08   0.04   0.22
    15   1     0.21  -0.03  -0.12    -0.04   0.01  -0.00    -0.11  -0.02   0.29
                     22                     23                     24
                      A                      A                      A
 Frequencies --   1127.6520              1202.6420              1285.5732
 Red. masses --      2.0911                 1.7772                 4.1668
 Frc consts  --      1.5667                 1.5145                 4.0574
 IR Inten    --     30.9670                 4.7594               742.8329
  Atom  AN      X      Y      Z        X      Y      Z        X      Y      Z
     1   8    -0.01   0.00  -0.00    -0.01   0.00  -0.00     0.01  -0.00   0.01
     2   1     0.04   0.01   0.02     0.04   0.01   0.02    -0.12  -0.01  -0.05
     3   6     0.02  -0.00  -0.00     0.02  -0.00   0.00    -0.10   0.02  -0.00
     4   1    -0.00  -0.03   0.04    -0.00  -0.03   0.02     0.03   0.12  -0.03
     5   6     0.01   0.00   0.00     0.01  -0.00   0.00    -0.03  -0.00  -0.01
     6   6    -0.03  -0.00   0.00    -0.06  -0.01  -0.01     0.40   0.16   0.06
     7   8     0.00   0.01  -0.00     0.00   0.04   0.01    -0.05  -0.00  -0.00
     8   8    -0.06   0.01  -0.05     0.00  -0.08  -0.01    -0.19  -0.10  -0.02
     9   6     0.10  -0.03   0.20     0.04   0.19   0.01     0.11  -0.01  -0.04
    10   6    -0.10   0.02  -0.16    -0.03  -0.14  -0.01    -0.02  -0.06  -0.01
    11   1     0.07   0.04   0.12     0.30  -0.14   0.36    -0.69   0.12   0.29
    12   1     0.21  -0.03   0.19    -0.27  -0.10  -0.34     0.01  -0.09  -0.16
    13   1    -0.14   0.01   0.48     0.02   0.29   0.05    -0.01   0.11   0.08
    14   1     0.43  -0.00  -0.37    -0.02   0.14   0.40    -0.01   0.10   0.24
    15   1     0.39  -0.15  -0.24     0.12   0.08  -0.45     0.02  -0.02  -0.09
                     25                     26                     27
                      A                      A                      A
 Frequencies --   1346.7522              1400.8793              1429.9217
 Red. masses --      1.2092                 1.2711                 1.3537
 Frc consts  --      1.2922                 1.4697                 1.6308
 IR Inten    --    101.0653                26.6440                12.5870
  Atom  AN      X      Y      Z        X      Y      Z        X      Y      Z
     1   8    -0.00   0.00  -0.00    -0.00   0.00  -0.00    -0.00  -0.01   0.00
     2   1     0.01  -0.00   0.00     0.02   0.00   0.01    -0.08  -0.02  -0.04
     3   6     0.01  -0.00   0.00     0.01  -0.00   0.00    -0.01  -0.00  -0.00
     4   1    -0.00  -0.00   0.00    -0.00  -0.05  -0.00    -0.01   0.21   0.03
     5   6     0.00   0.00   0.00    -0.00   0.00   0.00     0.01  -0.00   0.00
     6   6    -0.05  -0.03  -0.01    -0.05  -0.01  -0.01     0.05   0.01   0.01
     7   8     0.01  -0.02  -0.00     0.01  -0.01  -0.00    -0.01   0.01   0.00
     8   8     0.04   0.08   0.00     0.04   0.02   0.02    -0.04  -0.02  -0.02
     9   6    -0.03  -0.00   0.01     0.04  -0.01  -0.04    -0.08   0.01   0.08
    10   6    -0.00  -0.06   0.01     0.03  -0.01  -0.12     0.08  -0.01  -0.07
    11   1    -0.54   0.08   0.24    -0.33   0.00   0.23     0.46  -0.01  -0.27
    12   1     0.70  -0.07  -0.28    -0.26   0.10   0.21     0.44  -0.13  -0.27
    13   1     0.01   0.06  -0.04    -0.03   0.01   0.53     0.04  -0.02   0.32
    14   1    -0.03   0.01   0.13    -0.22   0.22   0.34    -0.32   0.06   0.17
    15   1     0.03   0.04  -0.18    -0.25  -0.15   0.34    -0.29   0.01   0.17
                     28                     29                     30
                      A                      A                      A
 Frequencies --   1446.2449              1492.6085              1501.5089
 Red. masses --      1.0975                 1.0413                 1.0681
 Frc consts  --      1.3525                 1.3669                 1.4188
 IR Inten    --    238.7747                10.6016                 5.4893
  Atom  AN      X      Y      Z        X      Y      Z        X      Y      Z
     1   8    -0.01  -0.03   0.00     0.00   0.00  -0.00     0.00   0.00   0.00
     2   1    -0.32  -0.07  -0.15     0.00   0.00   0.00     0.00   0.00   0.00
     3   6     0.02  -0.03  -0.00    -0.00   0.00   0.00    -0.00   0.00  -0.00
     4   1    -0.04   0.90   0.13    -0.00  -0.01  -0.00     0.00  -0.01  -0.00
     5   6     0.06  -0.01   0.00    -0.00   0.00  -0.00    -0.00   0.00   0.00
     6   6    -0.03  -0.01  -0.00    -0.00   0.00  -0.00     0.02  -0.00   0.00
     7   8    -0.00   0.01   0.00     0.00  -0.01  -0.00    -0.00   0.01   0.00
     8   8     0.01   0.00   0.00     0.00   0.00   0.00    -0.02  -0.01  -0.01
     9   6     0.02  -0.00  -0.02    -0.01  -0.02   0.01    -0.01  -0.01  -0.06
    10   6    -0.01   0.00   0.01    -0.01  -0.04  -0.01     0.02  -0.02   0.02
    11   1    -0.07  -0.01   0.07     0.00   0.06  -0.13     0.18  -0.36   0.39
    12   1    -0.08   0.04   0.07    -0.00  -0.06  -0.04     0.25   0.32   0.39
    13   1    -0.01   0.02  -0.04     0.07   0.64  -0.13     0.02   0.22   0.17
    14   1     0.06   0.00  -0.01     0.56   0.11   0.01    -0.06  -0.20  -0.25
    15   1     0.04  -0.01  -0.01    -0.36  -0.04   0.28    -0.31   0.25  -0.18
                     31                     32                     33
                      A                      A                      A
 Frequencies --   1513.9237              1837.4161              2291.7983
 Red. masses --      1.0778                12.1058                10.7826
 Frc consts  --      1.4554                24.0802                33.3678
 IR Inten    --     21.5647               358.2426                45.5759
  Atom  AN      X      Y      Z        X      Y      Z        X      Y      Z
     1   8    -0.00  -0.00  -0.00    -0.01  -0.00  -0.00     0.02   0.01   0.01
     2   1    -0.00  -0.00  -0.00     0.00  -0.00   0.00     0.06   0.01   0.02
     3   6     0.00  -0.00   0.00     0.06  -0.02   0.00    -0.60   0.17  -0.02
     4   1    -0.00   0.02   0.00    -0.01   0.06   0.02     0.02  -0.30  -0.13
     5   6     0.00   0.00   0.00    -0.02  -0.01  -0.00     0.67  -0.18   0.03
     6   6    -0.02   0.00  -0.00    -0.26   0.74   0.08    -0.11   0.03  -0.01
     7   8     0.01  -0.01  -0.00     0.18  -0.49  -0.05     0.00  -0.00   0.00
     8   8     0.01   0.01   0.01    -0.01  -0.07  -0.01    -0.01  -0.00  -0.00
     9   6     0.05  -0.01   0.04    -0.03   0.02   0.00     0.00   0.00  -0.00
    10   6     0.03  -0.01   0.02     0.01  -0.00   0.01    -0.00   0.00   0.00
    11   1    -0.23   0.27  -0.23     0.18  -0.11   0.06     0.00   0.00   0.00
    12   1    -0.29  -0.21  -0.19     0.14   0.09   0.03    -0.00  -0.00   0.00
    13   1     0.01   0.15   0.28     0.01  -0.04  -0.06     0.00  -0.00   0.00
    14   1    -0.20  -0.29  -0.33    -0.04  -0.01   0.00    -0.00  -0.00  -0.00
    15   1    -0.33   0.34  -0.30     0.05   0.02  -0.05     0.00   0.00  -0.00
                     34                     35                     36
                      A                      A                      A
 Frequencies --   3075.9033              3108.2350              3151.3322
 Red. masses --      1.0354                 1.0607                 1.1014
 Frc consts  --      5.7714                 6.0379                 6.4446
 IR Inten    --     10.5144                18.6764                15.4850
  Atom  AN      X      Y      Z        X      Y      Z        X      Y      Z
     1   8     0.00   0.00  -0.00    -0.00  -0.00  -0.00     0.00   0.00  -0.00
     2   1     0.00  -0.00   0.00    -0.00   0.00  -0.00     0.00  -0.00   0.00
     3   6     0.00  -0.00   0.00    -0.00   0.00  -0.00     0.00  -0.00   0.00
     4   1    -0.00  -0.00  -0.00     0.00   0.00   0.00    -0.00  -0.00  -0.00
     5   6    -0.00   0.00  -0.00     0.00  -0.00   0.00    -0.00   0.00  -0.00
     6   6     0.00   0.00   0.00    -0.00  -0.00  -0.00     0.00   0.00  -0.00
     7   8     0.00  -0.00  -0.00    -0.00   0.00  -0.00    -0.00  -0.00  -0.00
     8   8    -0.00  -0.00  -0.00     0.00   0.00  -0.00     0.00  -0.00   0.00
     9   6     0.00   0.00  -0.00     0.03  -0.02   0.06    -0.01  -0.02  -0.01
    10   6    -0.03  -0.00   0.04    -0.01   0.00  -0.01    -0.06   0.05  -0.03
    11   1     0.00   0.01   0.01    -0.20  -0.44  -0.26     0.11   0.24   0.15
    12   1     0.00  -0.02   0.02    -0.11   0.68  -0.43    -0.01   0.03  -0.02
    13   1     0.61  -0.07   0.06     0.13  -0.01   0.02     0.65  -0.06   0.05
    14   1    -0.12   0.49  -0.31     0.01  -0.06   0.03     0.12  -0.57   0.37
    15   1    -0.19  -0.42  -0.24     0.01   0.02   0.01    -0.02   0.00  -0.01
                     37                     38                     39
                      A                      A                      A
 Frequencies --   3155.2116              3175.9069              3808.9325
 Red. masses --      1.1049                 1.1074                 1.0667
 Frc consts  --      6.4806                 6.5809                 9.1177
 IR Inten    --      2.0945                14.9324               128.9632
  Atom  AN      X      Y      Z        X      Y      Z        X      Y      Z
     1   8     0.00   0.00   0.00     0.00   0.00  -0.00    -0.00  -0.06   0.02
     2   1     0.00  -0.00   0.00     0.00  -0.00   0.00     0.06   0.93  -0.36
     3   6     0.00  -0.00   0.00    -0.00   0.00   0.00    -0.00   0.00  -0.00
     4   1    -0.00  -0.00  -0.00    -0.00  -0.00  -0.00     0.02  -0.00   0.01
     5   6    -0.00   0.00  -0.00    -0.00   0.00   0.00     0.00  -0.00   0.00
     6   6    -0.00   0.00   0.00     0.00  -0.00  -0.00    -0.00   0.00  -0.00
     7   8     0.00  -0.00   0.00    -0.00   0.00   0.00     0.00  -0.00  -0.00
     8   8     0.00  -0.00  -0.00    -0.00   0.00   0.00     0.00   0.00   0.00
     9   6     0.01   0.05   0.00    -0.01  -0.07  -0.01    -0.00   0.00  -0.00
    10   6    -0.05  -0.05  -0.02    -0.02  -0.06  -0.00     0.00  -0.00   0.00
    11   1    -0.16  -0.35  -0.21     0.22   0.51   0.32     0.00   0.00   0.00
    12   1     0.05  -0.30   0.20    -0.06   0.35  -0.24     0.00  -0.00   0.00
    13   1     0.40  -0.05   0.03     0.08  -0.02   0.01     0.00  -0.00  -0.00
    14   1    -0.04   0.13  -0.09    -0.07   0.30  -0.20    -0.00   0.00  -0.00
    15   1     0.25   0.55   0.33     0.18   0.40   0.25    -0.00   0.00   0.00

 -------------------
 - Thermochemistry -
 -------------------
 Temperature   298.150 Kelvin.  Pressure   1.00000 Atm.
 Atom     1 has atomic number  8 and mass  15.99491
 Atom     2 has atomic number  1 and mass   1.00783
 Atom     3 has atomic number  6 and mass  12.00000
 Atom     4 has atomic number  1 and mass   1.00783
 Atom     5 has atomic number  6 and mass  12.00000
 Atom     6 has atomic number  6 and mass  12.00000
 Atom     7 has atomic number  8 and mass  15.99491
 Atom     8 has atomic number  8 and mass  15.99491
 Atom     9 has atomic number  6 and mass  12.00000
 Atom    10 has atomic number  6 and mass  12.00000
 Atom    11 has atomic number  1 and mass   1.00783
 Atom    12 has atomic number  1 and mass   1.00783
 Atom    13 has atomic number  1 and mass   1.00783
 Atom    14 has atomic number  1 and mass   1.00783
 Atom    15 has atomic number  1 and mass   1.00783
 Molecular mass:   115.03952 amu.
 Principal axes and moments of inertia in atomic units:
                           1         2         3
     Eigenvalues --   286.956822618.045382730.63340
           X            0.99993   0.00864  -0.00848
           Y           -0.00872   0.99992  -0.00946
           Z            0.00840   0.00953   0.99992
 This molecule is an asymmetric top.
 Rotational symmetry number  1.
 Rotational temperatures (Kelvin)      0.30184     0.03308     0.03172
 Rotational constants (GHZ):           6.28924     0.68935     0.66092
    2 imaginary frequencies ignored.
 Zero-point vibrational energy     280660.4 (Joules/Mol)
                                   67.07945 (Kcal/Mol)
 Warning -- explicit consideration of  12 degrees of freedom as
           vibrations may cause significant error
 Vibrational temperatures:     49.10   113.11   166.95   224.20   262.27
          (Kelvin)            324.32   397.19   484.10   548.80   616.12
                              817.12   890.32   965.50  1121.43  1148.19
                             1284.65  1322.97  1477.50  1555.71  1622.44
                             1730.33  1849.65  1937.68  2015.55  2057.34
                             2080.82  2147.53  2160.34  2178.20  2643.63
                             3297.39  4425.54  4472.06  4534.06  4539.65
                             4569.42  5480.20
 
 Zero-point correction=                           0.106898 (Hartree/Particle)
 Thermal correction to Energy=                    0.116141
 Thermal correction to Enthalpy=                  0.117085
 Thermal correction to Gibbs Free Energy=         0.070925
 Sum of electronic and zero-point Energies=           -420.069258
 Sum of electronic and thermal Energies=              -420.060015
 Sum of electronic and thermal Enthalpies=            -420.059071
 Sum of electronic and thermal Free Energies=         -420.105231
 
                     E (Thermal)             CV                S
                      KCal/Mol        Cal/Mol-Kelvin    Cal/Mol-Kelvin
 Total                   72.879             30.874             97.151
 Electronic               0.000              0.000              1.377
 Translational            0.889              2.981             40.136
 Rotational               0.889              2.981             29.108
 Vibrational             71.102             24.913             26.530
 Vibration     1          0.594              1.983              5.574
 Vibration     2          0.600              1.964              3.925
 Vibration     3          0.608              1.936              3.165
 Vibration     4          0.620              1.896              2.600
 Vibration     5          0.630              1.864              2.305
 Vibration     6          0.650              1.802              1.915
 Vibration     7          0.678              1.718              1.558
 Vibration     8          0.717              1.603              1.229
 Vibration     9          0.751              1.510              1.033
 Vibration    10          0.790              1.409              0.864
 Vibration    11          0.924              1.101              0.508
 Vibration    12          0.979              0.992              0.418
                       Q            Log10(Q)             Ln(Q)
 Total Bot       0.238007D-32        -32.623409        -75.118176
 Total V=0       0.351698D+17         16.546169         38.098963
 Vib (Bot)       0.478588D-46        -46.320038       -106.655829
 Vib (Bot)    1  0.606591D+01          0.782896          1.802685
 Vib (Bot)    2  0.262018D+01          0.418332          0.963245
 Vib (Bot)    3  0.176270D+01          0.246178          0.566846
 Vib (Bot)    4  0.129903D+01          0.113619          0.261617
 Vib (Bot)    5  0.110097D+01          0.041777          0.096195
 Vib (Bot)    6  0.875497D+00         -0.057745         -0.132964
 Vib (Bot)    7  0.697892D+00         -0.156212         -0.359691
 Vib (Bot)    8  0.553092D+00         -0.257203         -0.592231
 Vib (Bot)    9  0.473536D+00         -0.324647         -0.747527
 Vib (Bot)   10  0.407445D+00         -0.389931         -0.897848
 Vib (Bot)   11  0.271551D+00         -0.566149         -1.303606
 Vib (Bot)   12  0.236625D+00         -0.625939         -1.441279
 Vib (V=0)       0.707198D+03          2.849541          6.561310
 Vib (V=0)    1  0.658648D+01          0.818654          1.885019
 Vib (V=0)    2  0.316746D+01          0.500712          1.152931
 Vib (V=0)    3  0.233224D+01          0.367773          0.846830
 Vib (V=0)    4  0.189193D+01          0.276906          0.637599
 Vib (V=0)    5  0.170919D+01          0.232791          0.536020
 Vib (V=0)    6  0.150821D+01          0.178463          0.410926
 Vib (V=0)    7  0.135852D+01          0.133065          0.306394
 Vib (V=0)    8  0.124559D+01          0.095377          0.219613
 Vib (V=0)    9  0.118865D+01          0.075053          0.172817
 Vib (V=0)   10  0.114499D+01          0.058802          0.135396
 Vib (V=0)   11  0.106898D+01          0.028970          0.066706
 Vib (V=0)   12  0.105316D+01          0.022496          0.051800
 Electronic      0.200000D+01          0.301030          0.693147
 Translational   0.484981D+08          7.685724         17.697035
 Rotational      0.512713D+06          5.709874         13.147471
 ***** Axes restored to original set *****
 -------------------------------------------------------------------
 Center     Atomic                   Forces (Hartrees/Bohr)
 Number     Number              X              Y              Z
 -------------------------------------------------------------------
      1        8           0.006416544    0.001745621    0.000776992
      2        1           0.000543632    0.000587436    0.000530770
      3        6           0.003935374   -0.001168009   -0.000781940
      4        1          -0.016276927    0.000717296   -0.000502099
      5        6           0.003380418   -0.002160900   -0.000565975
      6        6           0.001691465    0.000202153    0.000550059
      7        8          -0.000149268   -0.000001410   -0.000085889
      8        8           0.000170995    0.000000943    0.000052490
      9        6           0.000274031    0.000051370    0.000026233
     10        6          -0.000003759    0.000013883   -0.000011368
     11        1           0.000005626    0.000004518    0.000003211
     12        1           0.000002088    0.000007384    0.000010544
     13        1          -0.000003673   -0.000000571    0.000002218
     14        1           0.000004516    0.000000839    0.000000776
     15        1           0.000008938   -0.000000554   -0.000006023
 -------------------------------------------------------------------
 Cartesian Forces:  Max     0.016276927 RMS     0.002783585

 GradGradGradGradGradGradGradGradGradGradGradGradGradGradGradGradGradGrad
 Berny optimization.
 Search for a local minimum.
 Step number   1 out of a maximum of    2
 All quantities printed in internal units (Hartrees-Bohrs-Radians)
 Second derivative matrix not updated -- analytic derivatives used.
 ITU=  0
     Eigenvalues ---   -0.12083  -0.00075   0.00028   0.00115   0.00181
     Eigenvalues ---    0.00316   0.00444   0.00581   0.01543   0.02151
     Eigenvalues ---    0.03191   0.03358   0.04255   0.05674   0.06293
     Eigenvalues ---    0.06789   0.07590   0.08578   0.09822   0.10228
     Eigenvalues ---    0.11358   0.13636   0.14596   0.17072   0.19661
     Eigenvalues ---    0.25502   0.29127   0.31543   0.49131   0.51362
     Eigenvalues ---    0.64739   0.76639   0.79067   0.86033   0.87684
     Eigenvalues ---    0.92637   0.94140   1.71916   2.37087
 Eigenvalue     1 is  -1.21D-01 should be greater than     0.000000 Eigenvector:
                          X4        X1        X3        Y2        Y1
   1                    0.92986  -0.28148  -0.09281  -0.07841  -0.07234
                          Y5        Z4        X5        Y3        Z1
   1                    0.07232   0.07077  -0.06984   0.06582  -0.06028
 Eigenvalue     2 is  -7.54D-04 should be greater than     0.000000 Eigenvector:
                          Z2        Z4        Z3        Z1        Z5
   1                    0.70163  -0.34804  -0.33308   0.24905  -0.21029
                          Z13       Y1        X14       X1        Z6
   1                    0.15570  -0.12614   0.11454  -0.10736  -0.10425
 Angle between quadratic step and forces=  58.32 degrees.
 Linear search not attempted -- first point.
 B after Tr=     0.007853    0.003415    0.000648
         Rot=    0.999998   -0.001560   -0.000849    0.000250 Ang=  -0.21 deg.
 Variable       Old X    -DE/DX   Delta X   Delta X   Delta X     New X
                                 (Linear)    (Quad)   (Total)
    X1        8.49956   0.00642   0.00000   0.11421   0.12267   8.62223
    Y1       -0.50549   0.00175   0.00000  -0.05835  -0.06087  -0.56637
    Z1        0.62876   0.00078   0.00000  -0.09572  -0.11146   0.51730
    X2        8.58826   0.00054   0.00000   0.04879   0.05710   8.64536
    Y2        1.20344   0.00059   0.00000  -0.03077  -0.03144   1.17200
    Z2       -0.03342   0.00053   0.00000  -0.03258  -0.04294  -0.07636
    X3        4.16306   0.00394   0.00000   0.01332   0.02081   4.18387
    Y3       -0.61364  -0.00117   0.00000   0.04460   0.04608  -0.56756
    Z3       -0.12265  -0.00078   0.00000   0.07981   0.07159  -0.05106
    X4        6.54014  -0.01628   0.00000  -0.14956  -0.14230   6.39784
    Y4       -1.19728   0.00072   0.00000   0.02091   0.02113  -1.17614
    Z4       -0.06487  -0.00050   0.00000   0.07169   0.05781  -0.00706
    X5        1.97233   0.00338   0.00000   0.00659   0.01424   1.98657
    Y5        0.02265  -0.00216   0.00000   0.02618   0.02903   0.05168
    Z5       -0.17786  -0.00057   0.00000   0.04373   0.04117  -0.13669
    X6       -0.68935   0.00169   0.00000  -0.00790  -0.00020  -0.68955
    Y6        0.73695   0.00020   0.00000   0.02380   0.02853   0.76548
    Z6       -0.33451   0.00055   0.00000   0.02194   0.02614  -0.30837
    X7       -1.42101  -0.00015   0.00000  -0.03546  -0.02632  -1.44734
    Y7        2.86954  -0.00000   0.00000   0.01787   0.02230   2.89183
    Z7       -0.09589  -0.00009   0.00000  -0.00286   0.00927  -0.08662
    X8       -2.14379   0.00017   0.00000   0.00243   0.00837  -2.13543
    Y8       -1.26660   0.00000   0.00000   0.01181   0.01866  -1.24794
    Z8       -0.77934   0.00005   0.00000   0.02072   0.02109  -0.75825
    X9       -4.82510   0.00027   0.00000  -0.00159   0.00425  -4.82085
    Y9       -0.79308   0.00005   0.00000  -0.01351  -0.00473  -0.79781
    Z9       -0.94047   0.00003   0.00000  -0.00867  -0.00233  -0.94280
   X10       -5.98694  -0.00000   0.00000  -0.02955  -0.01918  -6.00612
   Y10       -0.56193   0.00001   0.00000  -0.01007  -0.00881  -0.57073
   Z10        1.66779  -0.00001   0.00000  -0.02120  -0.01213   1.65566
   X11       -5.55627   0.00001   0.00000   0.02570   0.02899  -5.52728
   Y11       -2.42338   0.00000   0.00000  -0.02841  -0.01611  -2.43948
   Z11       -1.95924   0.00000   0.00000  -0.00542  -0.00302  -1.96226
   X12       -5.12771   0.00000   0.00000  -0.00661  -0.00183  -5.12955
   Y12        0.91158   0.00001   0.00000  -0.02458  -0.01213   0.89944
   Z12       -2.05839   0.00001   0.00000  -0.02330  -0.01115  -2.06954
   X13       -8.03145  -0.00000   0.00000  -0.02943  -0.01929  -8.05074
   Y13       -0.34716  -0.00000   0.00000  -0.03456  -0.03168  -0.37884
   Z13        1.49510   0.00000   0.00000  -0.04040  -0.02726   1.46784
   X14       -5.59915   0.00000   0.00000  -0.01783  -0.00639  -5.60554
   Y14       -2.25382   0.00000   0.00000   0.00107  -0.00137  -2.25519
   Z14        2.78006   0.00000   0.00000  -0.00751  -0.00437   2.77569
   X15       -5.24171   0.00001   0.00000  -0.05379  -0.04092  -5.28263
   Y15        1.08581  -0.00000   0.00000   0.00357   0.00141   1.08722
   Z15        2.65431  -0.00001   0.00000  -0.02545  -0.01243   2.64188
         Item               Value     Threshold  Converged?
 Maximum Force            0.016277     0.000450     NO 
 RMS     Force            0.002784     0.000300     NO 
 Maximum Displacement     0.142300     0.001800     NO 
 RMS     Displacement     0.042531     0.001200     NO 
 Predicted change in Energy=-4.157357D-03
 GradGradGradGradGradGradGradGradGradGradGradGradGradGradGradGradGradGrad


 ----------------------------------------------------------------------

 Electric dipole moment (input orientation):
 (Debye = 10**-18 statcoulomb cm , SI units = C m)
                  (au)            (Debye)         (10**-30 SI)
   Tot        0.468104D+00      0.118980D+01      0.396876D+01
   x         -0.306022D+00     -0.777830D+00     -0.259456D+01
   y         -0.116032D+00     -0.294924D+00     -0.983759D+00
   z         -0.334677D+00     -0.850665D+00     -0.283751D+01

 Dipole polarizability, Alpha (input orientation).
 (esu units = cm**3 , SI units = C**2 m**2 J**-1)
 Alpha(0;0):
               (au)            (10**-24 esu)      (10**-40 SI)
   iso        0.825755D+02      0.122364D+02      0.136149D+02
   aniso      0.823192D+02      0.121984D+02      0.135726D+02
   xx         0.136474D+03      0.202233D+02      0.225015D+02
   yx        -0.670310D+01     -0.993297D+00     -0.110519D+01
   yy         0.607809D+02      0.900680D+01      0.100214D+02
   zx         0.288079D+01      0.426889D+00      0.474978D+00
   zy         0.488989D+00      0.724607D-01      0.806234D-01
   zz         0.504718D+02      0.747915D+01      0.832167D+01

 ----------------------------------------------------------------------

 Dipole orientation:
     8          6.01810249          1.44636798         -5.88080162
     1          6.35611820         -0.35709458         -5.88896018
     6          3.26375226          0.95461853         -2.48178938
     1          5.06581529          1.75628410         -3.93244373
     6          1.59494584          0.12044009         -1.16785415
     6         -0.36850710         -0.85860162          0.50715285
     8         -1.27533746         -2.92477072          0.28625527
     8         -0.98036534          0.82546863          2.27265905
     6         -2.93287038          0.07561626          4.02338441
     6         -5.53214907          0.38948666          2.86082577
     1         -2.66176022          1.32588571          5.63388252
     1         -2.59030725         -1.87366320          4.59794180
     1         -6.97454565         -0.05357722          4.26764934
     1         -5.80827583          2.33311216          2.23145246
     1         -5.77326677         -0.88426422          1.25987219

 Electric dipole moment (dipole orientation):
 (Debye = 10**-18 statcoulomb cm , SI units = C m)
                  (au)            (Debye)         (10**-30 SI)
   Tot        0.468104D+00      0.118980D+01      0.396876D+01
   x          0.000000D+00      0.000000D+00      0.000000D+00
   y          0.000000D+00      0.000000D+00      0.000000D+00
   z          0.468104D+00      0.118980D+01      0.396876D+01

 Dipole polarizability, Alpha (dipole orientation).
 (esu units = cm**3 , SI units = C**2 m**2 J**-1)
 Alpha(0;0):
               (au)            (10**-24 esu)      (10**-40 SI)
   iso        0.825755D+02      0.122364D+02      0.136149D+02
   aniso      0.823192D+02      0.121984D+02      0.135726D+02
   xx         0.972256D+02      0.144073D+02      0.160303D+02
   yx         0.126075D+02      0.186825D+01      0.207870D+01
   yy         0.619459D+02      0.917943D+01      0.102135D+02
   zx        -0.413402D+02     -0.612599D+01     -0.681608D+01
   zy        -0.727133D+01     -0.107750D+01     -0.119888D+01
   zz         0.885551D+02      0.131225D+02      0.146008D+02

 ----------------------------------------------------------------------
 1\1\GINC-AJ\Freq\UM062X\6-311++G(d,p)\C5H7O3(2)\AAYUSH\16-Aug-2025\0\\
 # freq 6-311++g(d,p) m062x\\Title Card Required\\0,2\O,4.497773,-0.267
 496,0.332724\H,4.544712,0.636832,-0.017686\C,2.202996,-0.324722,-0.064
 906\H,3.460894,-0.633571,-0.034328\C,1.043713,0.011986,-0.094122\C,-0.
 364789,0.389977,-0.177016\O,-0.751968,1.518493,-0.050745\O,-1.134447,-
 0.670254,-0.41241\C,-2.553334,-0.419679,-0.497676\C,-3.168151,-0.29735
 8,0.882555\H,-2.940254,-1.282395,-1.036787\H,-2.713469,0.482385,-1.089
 252\H,-4.250059,-0.183709,0.791172\H,-2.96294,-1.192669,1.471145\H,-2.
 773791,0.574587,1.404599\\Version=ES64L-G16RevA.03\State=2-A\HF=-420.1
 76156\S2=0.761916\S2-1=0.\S2A=0.750101\RMSD=4.376e-09\RMSF=2.784e-03\Z
 eroPoint=0.1068979\Thermal=0.1161408\Dipole=-0.306022,-0.1160319,-0.33
 46773\DipoleDeriv=0.1120256,-0.0474898,0.0806306,0.0209154,-0.2651847,
 -0.0503347,0.35118,-0.0821278,-0.3328132,0.4595704,0.0419131,-0.01491,
 0.2767695,0.2372375,0.0694974,-0.0951042,0.0657923,0.3241147,0.1316318
 ,0.0807545,0.0916269,0.037199,-0.221879,-0.007456,0.1142871,0.0092606,
 -0.1704032,-0.7425528,0.0175268,-0.142003,-0.2438945,0.2415545,-0.0091
 319,-0.3280368,0.016741,0.1913041,-0.7279099,0.0245524,-0.0386587,-0.0
 57565,-0.0676477,-0.007062,-0.1286949,-0.0073752,-0.0604596,2.7120233,
 -0.0181908,0.120644,0.4872433,1.7801798,0.1578543,0.3023262,0.1946945,
 0.4162303,-1.0560481,0.2816789,-0.0009663,0.1459972,-1.1470796,-0.0591
 787,-0.0387883,-0.0713159,-0.3559171,-1.8500373,-0.3941518,-0.040067,-
 0.63573,-0.8674913,-0.0973332,-0.192911,-0.1373536,-0.3560737,1.085392
 8,0.1018286,-0.043563,-0.0371078,0.2560206,0.0019062,-0.0162445,0.0467
 106,0.3551485,-0.0885411,-0.0348496,0.0153494,0.0079591,0.0359786,-0.0
 184738,0.0456454,-0.0505783,-0.0827882,-0.0361621,-0.024087,-0.0005974
 ,-0.0618539,-0.022221,-0.0911171,-0.0190795,-0.0649662,0.0064753,-0.02
 8711,-0.0370804,0.0290913,0.0622309,-0.004408,0.0885085,0.0097925,0.04
 29681,-0.0091379,-0.1329861,0.0118197,-0.0011305,0.0173974,0.0954257,0
 .002906,-0.0033626,0.0160996,0.0590038,0.0768302,0.0513385,-0.0184615,
 0.0209243,-0.0419052,0.0837032,0.0189087,0.0490827,-0.0017461,0.085474
 3,-0.0555629,-0.0369847,-0.040485,-0.0085801,-0.0642883,-0.0199181,-0.
 0276325,0.0170624\Polar=136.473889,-6.7031001,60.7808731,2.8807918,0.4
 88989,50.4717757\Quadrupole=7.4802912,-5.254887,-2.2254042,5.9877823,-
 2.0353394,-0.2937235\PG=C01 [X(C5H7O3)]\NImag=2\\0.09417773,0.03387878
 ,0.46985816,0.02547979,-0.17323441,0.08486573,-0.03041540,-0.00984523,
 -0.00626887,0.02915836,-0.03885362,-0.44971959,0.16525642,0.03024238,0
 .45334821,0.00296989,0.17944522,-0.07352614,-0.00120212,-0.17129666,0.
 07084507,-0.11254072,-0.03328926,-0.03807857,-0.00526577,-0.00417576,0
 .00072134,1.09138103,0.02127508,0.01297507,0.00634610,-0.00130728,0.00
 179573,0.00109543,-0.27756258,0.11185252,-0.00794067,0.00223719,0.0013
 9709,0.00258965,-0.00075581,0.00018658,0.03784399,-0.00816176,0.035506
 62,0.06052151,0.00654129,0.01941383,0.00299955,0.01216107,-0.00234868,
 0.01099742,-0.00811358,-0.00393845,-0.09149794,-0.02206576,-0.03117334
 ,0.00034511,-0.01777683,-0.00548493,-0.00894775,0.04582940,-0.03516805
 ,-0.00060877,-0.00443620,0.06694953,-0.02140205,-0.00821827,-0.0124801
 4,0.00503906,0.00659391,0.00271223,0.02959793,-0.00678861,-0.01857782,
 -0.01288591,0.00889299,0.02380864,-0.01096842,0.00322290,0.00022642,0.
 00427342,0.00156343,-0.00017027,-0.98539405,0.26439103,-0.02785784,0.0
 1373964,-0.00350989,-0.00127316,1.30644416,0.00806764,-0.00262608,0.00
 201908,-0.00213980,0.00039278,-0.00030088,0.26225696,-0.09472881,0.006
 60639,-0.01013958,0.00189076,-0.00134507,-0.31921797,0.18448319,0.0018
 3986,0.00017398,-0.00036368,0.00009043,0.00042481,-0.00025600,-0.03255
 653,0.00782187,-0.02271606,-0.00241240,-0.00017598,0.00219321,0.052539
 80,-0.00545687,0.05645177,-0.00269908,-0.00046060,-0.00301515,-0.00247
 679,-0.00331827,0.00071743,0.00697890,-0.00139375,-0.00155269,0.009043
 04,0.00414282,0.00328674,-0.24959529,0.04868359,-0.00925793,0.66150606
 ,-0.00205515,0.00065520,-0.00053740,0.00094698,0.00039570,0.00006646,0
 .00738525,0.00056187,0.00063227,0.00263725,0.00272362,0.00032294,0.024
 92767,-0.06112032,0.00357786,-0.14621919,0.94447707,-0.00127044,-0.000
 64467,0.00005986,-0.00054137,-0.00039699,0.00024569,0.00384787,-0.0011
 5863,0.00400134,0.00317456,0.00070736,0.00316783,-0.01730321,0.0073814
 1,-0.07096194,0.02300000,0.09224491,0.22507400,0.00168488,-0.00023518,
 0.00135781,0.00065681,0.00139478,-0.00032874,-0.00466177,0.00085096,0.
 00018819,-0.00423535,-0.00191053,-0.00156292,-0.02247726,0.04761003,0.
 00224259,-0.18548168,0.21835553,0.02127853,0.18501913,-0.00066230,-0.0
 0006581,-0.00070043,-0.00051722,-0.00110480,0.00010727,-0.00132025,0.0
 0212791,-0.00009089,0.00271470,0.00098585,0.00104712,0.04377722,-0.030
 50602,-0.00322801,0.20437584,-0.67360982,-0.06615010,-0.23447671,0.807
 92349,0.00016732,0.00015340,-0.00009202,0.00008546,0.00001159,-0.00015
 760,-0.00120078,0.00055808,-0.00003045,-0.00051202,-0.00009619,-0.0003
 0022,0.00284788,-0.00320969,0.02103287,0.01943024,-0.06313818,-0.08773
 212,-0.01907535,0.08961415,0.04574792,0.00050635,0.00014766,0.00120756
 ,0.00136442,0.00134480,-0.00044023,-0.00214733,0.00220291,0.00070234,-
 0.00239944,-0.00059684,-0.00113999,-0.05711795,-0.03323920,-0.01225116
 ,-0.18628299,-0.09587615,-0.02354517,0.02876341,-0.02443849,-0.0056859
 7,0.48933778,0.00045230,0.00007747,0.00048570,0.00034709,0.00033795,-0
 .00015500,0.00129535,0.00004216,0.00003415,-0.00134972,-0.00080068,-0.
 00052009,-0.01197856,0.00535644,-0.00161208,-0.06965505,-0.22397144,-0
 .02884216,-0.02635645,-0.10381307,-0.02341402,0.08716579,0.41325644,0.
 00015176,0.00005412,0.00017837,0.00019789,0.00017232,-0.00009852,-0.00
 009267,0.00023917,0.00038991,-0.00050750,-0.00018657,-0.00035565,-0.00
 796893,-0.00398066,0.00954361,-0.02163016,-0.03251161,-0.07357642,-0.0
 0465327,-0.02258750,0.02689483,0.04929337,0.05660739,0.09649574,-0.000
 34592,-0.00000067,-0.00050760,-0.00052123,-0.00058874,0.00014175,0.001
 12078,-0.00056197,-0.00014547,0.00125201,0.00047763,0.00052609,0.00368
 341,-0.00028342,0.00074660,-0.05118522,-0.03415092,-0.01218567,-0.0009
 8309,0.01977705,0.00298797,-0.17595828,0.02094228,-0.01162713,0.442721
 66,-0.00003085,0.00001233,0.00004705,0.00005189,0.00004382,-0.00002864
 ,-0.00045079,0.00056674,0.00014198,-0.00002377,0.00008944,0.00000481,-
 0.00390559,-0.00338298,-0.00195026,-0.03487579,0.01447775,-0.00224903,
 -0.00021302,-0.00385878,-0.00002599,0.04265683,-0.10000842,0.00149349,
 0.04266544,0.65128178,0.00001954,0.00003045,-0.00003732,-0.00000112,-0
 .00001400,0.00004885,-0.00011897,0.00010771,-0.00027256,-0.00000955,0.
 00008226,-0.00015858,-0.00138359,-0.00191832,0.00551419,-0.01165395,-0
 .00496080,-0.00181775,-0.00206854,0.00243381,-0.00553287,-0.00839577,0
 .00037095,-0.06654533,0.03498754,0.00077841,0.54947414,0.00003534,0.00
 000347,0.00009816,0.00010405,0.00011027,-0.00003520,-0.00013761,0.0000
 9092,0.00008651,-0.00019535,-0.00009252,-0.00004308,-0.00077520,-0.000
 20868,-0.00169459,0.00174820,0.00760091,0.00387228,0.00054261,-0.00299
 892,0.00074324,-0.03969978,0.00219640,0.03557138,-0.08601153,0.0003526
 2,0.03377896,0.56911574,-0.00002104,-0.00000478,-0.00003142,-0.0000149
 4,-0.00001642,0.00001718,0.00006765,-0.00005918,-0.00009423,0.00006383
 ,0.00003207,0.00002069,0.00016779,-0.00001025,0.00051513,-0.00156908,0
 .00063864,0.00095630,0.00089957,0.00061723,-0.00112840,0.00627880,0.00
 158155,-0.00453597,0.00012003,-0.08603776,-0.00855036,0.00399175,0.588
 77456,0.00000723,0.00000474,0.00001298,0.00002511,0.00002677,-0.000008
 68,-0.00011811,0.00001962,0.00005237,-0.00003318,-0.00002905,-0.000005
 57,0.00017838,-0.00004667,-0.00048231,0.00003368,0.00436198,0.00180244
 ,0.00166677,-0.00154540,-0.00132159,0.00057607,-0.00247358,0.00688320,
 0.04585426,-0.00948273,-0.20349123,0.03941590,-0.00576470,0.51071481,0
 .00003469,0.00001944,0.00007306,0.00008159,0.00007806,-0.00002598,-0.0
 0030926,0.00022774,0.00003241,-0.00015973,-0.00004750,-0.00008853,-0.0
 0135741,-0.00119609,0.00012464,-0.00382986,0.00628990,-0.00143437,0.00
 155405,-0.00142457,0.00009190,-0.03262063,-0.03162035,-0.01756993,-0.0
 7410934,-0.06826552,-0.04307659,0.00694200,0.01223887,0.00690245,0.100
 27792,0.00001972,-0.00001012,0.00002869,0.00001073,0.00001663,-0.00001
 244,0.00001237,-0.00002128,0.00005225,-0.00004291,-0.00002250,-0.00002
 020,0.00023662,0.00029697,-0.00030204,0.00236545,-0.00194408,0.0001146
 3,-0.00200035,0.00117862,-0.00034060,0.00558769,0.00799523,0.00514852,
 -0.08067489,-0.23379008,-0.10845514,0.00059327,0.00034501,0.00051789,0
 .08169612,0.24192085,-0.00000313,0.00000828,-0.00000166,0.00000688,0.0
 0000141,-0.00000053,0.00001488,0.00000482,0.00001697,-0.00000689,-0.00
 000994,-0.00000514,-0.00016908,-0.00004491,0.00004842,0.00059418,0.002
 41505,0.00035995,0.00108772,-0.00024452,0.00047427,-0.00303846,-0.0018
 7306,0.00033157,-0.04810088,-0.10632077,-0.11760994,-0.00959040,-0.025
 37371,-0.01539250,0.04953014,0.11719784,0.12411430,0.00001073,0.000018
 03,0.00003528,0.00005765,0.00005467,-0.00001035,0.00000214,-0.00007351
 ,-0.00001909,-0.00008223,-0.00003399,-0.00006821,-0.00044672,-0.000240
 43,0.00076147,0.00237077,0.00905895,0.00030435,0.00065819,-0.00374996,
 -0.00055092,-0.02628663,0.02974487,-0.02193553,-0.05260986,0.02023774,
 -0.01499423,0.00389095,-0.01248617,0.00786606,0.00343989,-0.00861506,0
 .00711331,0.06933131,-0.00002193,0.00001531,-0.00005086,-0.00001462,-0
 .00002638,0.00001649,0.00004563,0.00001454,-0.00007019,0.00005144,0.00
 001352,0.00003390,0.00032462,-0.00017547,0.00061739,-0.00269444,-0.001
 01376,-0.00107782,-0.00197909,-0.00008058,-0.00107932,0.00812824,-0.00
 179184,0.00078936,0.03073836,-0.24010989,0.12313927,-0.00157534,0.0049
 0263,-0.00311859,0.00272542,-0.01797975,0.01336564,-0.03531438,0.25471
 591,-0.00003001,-0.00000016,-0.00002280,-0.00001268,-0.00002162,0.0000
 0754,0.00011067,-0.00006743,0.00004743,0.00008411,0.00003616,0.0000153
 9,0.00001737,-0.00017556,-0.00014247,-0.00050261,0.00359022,0.00126659
 ,0.00157362,-0.00139482,-0.00020319,-0.00370506,-0.00038787,0.00020431
 ,-0.01965678,0.11919662,-0.12978586,-0.00300080,0.02563374,-0.01669420
 ,0.00334110,-0.01350270,0.01051946,0.01958274,-0.13174018,0.13762683,0
 .00002573,0.00000262,0.00004607,0.00005023,0.00005305,-0.00001468,-0.0
 0002715,0.00000812,0.00005504,-0.00011023,-0.00004852,-0.00005091,-0.0
 0020569,0.00004765,-0.00026949,0.00153231,0.00166387,0.00026072,-0.000
 07488,-0.00063046,0.00021233,-0.00137299,-0.00084486,0.00320304,-0.012
 44409,0.00094979,-0.00446963,-0.31408014,0.02806487,-0.02279116,0.0003
 5273,0.00031512,0.00020172,0.00023575,-0.00036760,0.00026215,0.3404465
 8,0.00000273,0.00000120,0.00000389,0.00000047,0.00000294,-0.00000094,-
 0.00002366,0.00000863,0.00004706,-0.00000935,-0.00000568,-0.00000657,0
 .00003917,0.00006382,-0.00017373,0.00011912,-0.00136953,-0.00055071,-0
 .00053585,0.00036286,0.00066094,0.00129648,0.00147747,-0.00068505,0.00
 199891,-0.00239838,0.00086446,0.02768303,-0.04848582,0.00226999,-0.000
 12475,-0.00006116,0.00015141,0.00003715,0.00001227,-0.00006301,-0.0310
 1213,0.04819500,-0.00001498,-0.00000092,-0.00001780,-0.00002543,-0.000
 02990,0.00000687,0.00008630,-0.00004698,-0.00002296,0.00005426,0.00002
 349,0.00000766,0.00025335,0.00017754,0.00043828,-0.00069361,-0.0033375
 1,-0.00138308,-0.00051589,0.00129588,0.00033594,0.00761806,0.00062045,
 -0.00599409,0.02798477,-0.00274978,0.00711579,-0.02496707,0.00272633,-
 0.05013535,-0.00078606,-0.00060964,0.00104715,-0.00069355,0.00084939,0
 .00082868,0.02425862,-0.00228970,0.05122960,-0.00000533,0.00000097,-0.
 00002395,-0.00002289,-0.00002146,0.00001054,-0.00002346,0.00001790,-0.
 00004027,0.00003503,0.00001355,0.00002809,0.00006263,0.00001020,0.0000
 4728,-0.00047219,-0.00153627,-0.00024495,-0.00044122,0.00060839,0.0002
 1796,0.00246181,-0.00005299,-0.00086029,0.00068681,-0.01232591,0.00917
 473,-0.05689655,0.04328461,-0.02971753,0.00021045,0.00028106,-0.000859
 23,-0.00066382,0.00023462,0.00286394,-0.00424160,0.02685053,-0.0174553
 1,0.05732278,0.00001328,-0.00000071,-0.00000108,0.00000253,0.00000590,
 0.00000522,-0.00005936,0.00002840,0.00000220,-0.00002816,-0.00001059,0
 .00000080,-0.00006932,0.00005923,-0.00012053,0.00024996,-0.00087749,0.
 00023743,-0.00057384,0.00039782,0.00035633,-0.00103856,0.00032980,-0.0
 0019839,-0.00072522,0.00391794,-0.00281638,0.04292325,-0.23544826,0.11
 988938,-0.00047101,0.00073746,0.00040996,0.00088243,0.00099707,-0.0011
 1400,0.00000005,-0.00196153,-0.00002689,-0.04740982,0.25066895,-0.0000
 0292,-0.00000639,-0.00000145,-0.00000609,-0.00000285,-0.00000003,0.000
 02854,-0.00002830,0.00000644,0.00001318,0.00001182,0.00000439,0.000035
 34,0.00006084,-0.00007191,0.00016699,0.00037785,0.00005742,-0.00009129
 ,-0.00023827,0.00020490,-0.00152309,-0.00100870,0.00288348,-0.00697286
 ,0.02806358,-0.01963440,-0.02746881,0.11760747,-0.12378996,-0.00051392
 ,-0.00019917,0.00107783,0.00308065,-0.00176250,-0.00484155,-0.00034321
 ,0.00062388,-0.00172066,0.02896562,-0.13066018,0.13650855,-0.00002208,
 -0.00000422,-0.00004384,-0.00004401,-0.00004466,0.00001528,0.00002687,
 -0.00005198,-0.00000366,0.00009206,0.00005518,0.00003689,0.00013474,-0
 .00001089,0.00004942,-0.00115619,0.00097136,0.00078686,-0.00052385,-0.
 00103430,0.00024076,0.00145224,-0.00028612,-0.00157204,0.00470389,0.01
 317692,0.00821116,-0.08458274,-0.08108655,-0.04986594,-0.00050708,0.00
 021506,0.00321924,0.00009187,-0.00028093,-0.00092778,-0.01008656,-0.02
 632188,-0.01510346,0.00198755,0.00630380,0.00463187,0.08843329,0.00000
 112,0.00000569,0.00002357,0.00001385,0.00001245,-0.00001094,-0.0000109
 6,0.00000375,0.00002816,-0.00002631,-0.00001902,-0.00001836,0.00003087
 ,0.00000672,-0.00011155,0.00024939,-0.00002341,-0.00057193,-0.00082984
 ,-0.00055490,0.00107790,0.00038004,-0.00006907,0.00018138,0.00026612,-
 0.00080352,-0.00109231,-0.08067041,-0.22682920,-0.10462964,-0.00012577
 ,0.00133820,0.00031252,0.00047965,0.00050642,0.00001062,0.00179842,0.0
 0415790,0.00339825,-0.00995538,-0.01884400,-0.01283907,0.08839920,0.24
 111198,0.00002883,-0.00000257,0.00002897,0.00002318,0.00003059,-0.0000
 0534,-0.00008589,0.00005892,0.00001510,-0.00008536,-0.00004491,-0.0000
 2625,0.00002753,0.00023337,-0.00022799,0.00107683,-0.00310404,-0.00056
 381,-0.00109924,0.00168172,0.00067932,0.00032750,0.00216792,0.00276499
 ,-0.01403258,-0.02691874,-0.01726715,-0.04676648,-0.10199804,-0.108144
 41,0.00339967,0.00038213,-0.00498016,-0.00047197,0.00008802,0.00117381
 ,-0.00056061,-0.00085190,-0.00173604,0.00789336,0.01403613,0.00931694,
 0.05032523,0.11424140,0.11897201\\-0.00641654,-0.00174562,-0.00077699,
 -0.00054363,-0.00058744,-0.00053077,-0.00393537,0.00116801,0.00078194,
 0.01627693,-0.00071730,0.00050210,-0.00338042,0.00216090,0.00056598,-0
 .00169146,-0.00020215,-0.00055006,0.00014927,0.00000141,0.00008589,-0.
 00017099,-0.00000094,-0.00005249,-0.00027403,-0.00005137,-0.00002623,0
 .00000376,-0.00001388,0.00001137,-0.00000563,-0.00000452,-0.00000321,-
 0.00000209,-0.00000738,-0.00001054,0.00000367,0.00000057,-0.00000222,-
 0.00000452,-0.00000084,-0.00000078,-0.00000894,0.00000055,0.00000602\\
 \@


 THERE ONCE WAS A GIRL NAMED IRENE,
 WHO LIVED ON DISTILLED KEROSENE,
      BUT SHE STARTED ABSORBIN'
      A NEW HYDROCARBON,
 AND SINCE THEN HAS NEVER BENZENE.
 Job cpu time:       0 days  0 hours 48 minutes 37.7 seconds.
 Elapsed time:       0 days  0 hours  2 minutes  1.6 seconds.
 File lengths (MBytes):  RWF=    153 Int=      0 D2E=      0 Chk=      5 Scr=      1
 Normal termination of Gaussian 16 at Sat Aug 16 14:29:27 2025.
