 Entering Gaussian System, Link 0=g16
 Initial command:
 /opt/g16/l1.exe "/home/aayush/scratches/g16/Gau-12220.inp" -scrdir="/home/aayush/scratches/g16/"
 Entering Link 1 = /opt/g16/l1.exe PID=     12223.
  
 Copyright (c) 1988,1990,1992,1993,1995,1998,2003,2009,2016,
            Gaussian, Inc.  All Rights Reserved.
  
 This is part of the Gaussian(R) 16 program.  It is based on
 the Gaussian(R) 09 system (copyright 2009, Gaussian, Inc.),
 the Gaussian(R) 03 system (copyright 2003, Gaussian, Inc.),
 the Gaussian(R) 98 system (copyright 1998, Gaussian, Inc.),
 the Gaussian(R) 94 system (copyright 1995, Gaussian, Inc.),
 the Gaussian 92(TM) system (copyright 1992, Gaussian, Inc.),
 the Gaussian 90(TM) system (copyright 1990, Gaussian, Inc.),
 the Gaussian 88(TM) system (copyright 1988, Gaussian, Inc.),
 the Gaussian 86(TM) system (copyright 1986, Carnegie Mellon
 University), and the Gaussian 82(TM) system (copyright 1983,
 Carnegie Mellon University). Gaussian is a federally registered
 trademark of Gaussian, Inc.
  
 This software contains proprietary and confidential information,
 including trade secrets, belonging to Gaussian, Inc.
  
 This software is provided under written license and may be
 used, copied, transmitted, or stored only in accord with that
 written license.
  
 The following legend is applicable only to US Government
 contracts under FAR:
  
                    RESTRICTED RIGHTS LEGEND
  
 Use, reproduction and disclosure by the US Government is
 subject to restrictions as set forth in subparagraphs (a)
 and (c) of the Commercial Computer Software - Restricted
 Rights clause in FAR 52.227-19.
  
 Gaussian, Inc.
 340 Quinnipiac St., Bldg. 40, Wallingford CT 06492
  
  
 ---------------------------------------------------------------
 Warning -- This program may not be used in any manner that
 competes with the business of Gaussian, Inc. or will provide
 assistance to any competitor of Gaussian, Inc.  The licensee
 of this program is prohibited from giving any competitor of
 Gaussian, Inc. access to this program.  By using this program,
 the user acknowledges that Gaussian, Inc. is engaged in the
 business of creating and licensing software in the field of
 computational chemistry and represents and warrants to the
 licensee that it is not a competitor of Gaussian, Inc. and that
 it will not use this program in any manner prohibited above.
 ---------------------------------------------------------------
  

 Cite this work as:
 Gaussian 16, Revision A.03,
 M. J. Frisch, G. W. Trucks, H. B. Schlegel, G. E. Scuseria, 
 M. A. Robb, J. R. Cheeseman, G. Scalmani, V. Barone, 
 G. A. Petersson, H. Nakatsuji, X. Li, M. Caricato, A. V. Marenich, 
 J. Bloino, B. G. Janesko, R. Gomperts, B. Mennucci, H. P. Hratchian, 
 J. V. Ortiz, A. F. Izmaylov, J. L. Sonnenberg, D. Williams-Young, 
 F. Ding, F. Lipparini, F. Egidi, J. Goings, B. Peng, A. Petrone, 
 T. Henderson, D. Ranasinghe, V. G. Zakrzewski, J. Gao, N. Rega, 
 G. Zheng, W. Liang, M. Hada, M. Ehara, K. Toyota, R. Fukuda, 
 J. Hasegawa, M. Ishida, T. Nakajima, Y. Honda, O. Kitao, H. Nakai, 
 T. Vreven, K. Throssell, J. A. Montgomery, Jr., J. E. Peralta, 
 F. Ogliaro, M. J. Bearpark, J. J. Heyd, E. N. Brothers, K. N. Kudin, 
 V. N. Staroverov, T. A. Keith, R. Kobayashi, J. Normand, 
 K. Raghavachari, A. P. Rendell, J. C. Burant, S. S. Iyengar, 
 J. Tomasi, M. Cossi, J. M. Millam, M. Klene, C. Adamo, R. Cammi, 
 J. W. Ochterski, R. L. Martin, K. Morokuma, O. Farkas, 
 J. B. Foresman, and D. J. Fox, Gaussian, Inc., Wallingford CT, 2016.
 
 ******************************************
 Gaussian 16:  ES64L-G16RevA.03 25-Dec-2016
                28-Jun-2025 
 ******************************************
 %nprocshared=24
 Will use up to   24 processors via shared memory.
 %mem=12GB
 %chk=ethyl_propiolate_ts1.chk
 --------------------------
 # ccsd(t)/6-311++g(d,p) sp
 --------------------------
 1/38=1,172=1/1;
 2/12=2,17=6,18=5,40=1/2;
 3/5=4,6=6,7=1111,11=9,25=1,30=1/1,2,3;
 4//1;
 5/5=2,38=5/2;
 8/6=4,9=120000,10=2/1,4;
 9/5=7,14=2/13;
 6/7=2,8=2,9=2,10=2/1;
 99/5=1,9=1/99;
 -------------------
 Title Card Required
 -------------------
 Symbolic Z-matrix:
 Charge =  0 Multiplicity = 2
 O                     4.55829  -0.2562    0.32017 
 H                     4.60465   0.64626  -0.03192 
 C                     2.26314  -0.31203  -0.07704 
 H                     3.57541  -0.62632  -0.04738 
 C                     1.10428   0.02534  -0.10612 
 C                    -0.3036    0.4031   -0.18913 
 O                    -0.68991   1.53176  -0.06235 
 O                    -1.07316  -0.65678  -0.42459 
 C                    -2.49201  -0.40576  -0.50967 
 C                    -3.10659  -0.28361   0.87066 
 H                    -2.87919  -1.26822  -1.04898 
 H                    -2.65185   0.4965   -1.10102 
 H                    -4.18846  -0.1696    0.77939 
 H                    -2.90163  -1.17914   1.45899 
 H                    -2.71195   0.58808   1.39292 
 
                          Input orientation:                          
 ---------------------------------------------------------------------
 Center     Atomic      Atomic             Coordinates (Angstroms)
 Number     Number       Type             X           Y           Z
 ---------------------------------------------------------------------
      1          8           0        4.558293   -0.256201    0.320167
      2          1           0        4.604646    0.646264   -0.031920
      3          6           0        2.263137   -0.312025   -0.077043
      4          1           0        3.575405   -0.626317   -0.047375
      5          6           0        1.104284    0.025338   -0.106121
      6          6           0       -0.303601    0.403101   -0.189131
      7          8           0       -0.689912    1.531759   -0.062346
      8          8           0       -1.073161   -0.656784   -0.424593
      9          6           0       -2.492012   -0.405764   -0.509669
     10          6           0       -3.106595   -0.283609    0.870658
     11          1           0       -2.879191   -1.268218   -1.048978
     12          1           0       -2.651850    0.496497   -1.101017
     13          1           0       -4.188465   -0.169599    0.779389
     14          1           0       -2.901625   -1.179142    1.458987
     15          1           0       -2.711952    0.588081    1.392917
 ---------------------------------------------------------------------
                    Distance matrix (angstroms):
                    1          2          3          4          5
     1  O    0.000000
     2  H    0.969823   0.000000
     3  C    2.329943   2.530419   0.000000
     4  H    1.112718   1.636777   1.349706   0.000000
     5  C    3.491585   3.555782   1.207311   2.556275   0.000000
     6  C    4.932756   4.916781   2.666854   4.015779   1.460046
     7  O    5.557587   5.368181   3.481415   4.780214   2.343152
     8  O    5.694595   5.838632   3.372022   4.663945   2.303906
     9  C    7.100549   7.190102   4.775709   6.088999   3.644454
    10  C    7.684680   7.819370   5.452794   6.753470   4.333711
    11  H    7.629869   7.791500   5.320009   6.563311   4.293057
    12  H    7.387319   7.336357   5.085207   6.414794   3.914122
    13  H    8.759233   8.868069   6.509756   7.821113   5.369853
    14  H    7.602572   7.867593   5.457659   6.672830   4.466278
    15  H    7.397301   7.454271   5.265215   6.563540   4.138533
                    6          7          8          9         10
     6  C    0.000000
     7  O    1.199658   0.000000
     8  O    1.330797   2.251183   0.000000
     9  C    2.355027   2.683590   1.443394   0.000000
    10  C    3.074329   3.163292   2.439629   1.515895   0.000000
    11  H    3.188465   3.688666   2.006353   1.088388   2.169371
    12  H    2.520820   2.449450   2.068784   1.090557   2.168608
    13  H    4.044525   3.980328   3.375210   2.143688   1.091683
    14  H    3.459699   3.815116   2.676567   2.154415   1.090928
    15  H    2.887429   2.664013   2.745663   2.157762   1.090111
                   11         12         13         14         15
    11  H    0.000000
    12  H    1.780059   0.000000
    13  H    2.502816   2.518094   0.000000
    14  H    2.509647   3.069817   1.771154   0.000000
    15  H    3.071916   2.496339   1.769346   1.778600   0.000000
 Stoichiometry    C5H7O3(2)
 Framework group  C1[X(C5H7O3)]
 Deg. of freedom    39
 Full point group                 C1      NOp   1
 Largest Abelian subgroup         C1      NOp   1
 Largest concise Abelian subgroup C1      NOp   1
                         Standard orientation:                         
 ---------------------------------------------------------------------
 Center     Atomic      Atomic             Coordinates (Angstroms)
 Number     Number       Type             X           Y           Z
 ---------------------------------------------------------------------
      1          8           0        4.558293   -0.256201    0.320167
      2          1           0        4.604646    0.646264   -0.031920
      3          6           0        2.263137   -0.312025   -0.077043
      4          1           0        3.575405   -0.626317   -0.047375
      5          6           0        1.104284    0.025338   -0.106121
      6          6           0       -0.303601    0.403101   -0.189131
      7          8           0       -0.689912    1.531759   -0.062346
      8          8           0       -1.073161   -0.656784   -0.424593
      9          6           0       -2.492012   -0.405764   -0.509669
     10          6           0       -3.106595   -0.283609    0.870658
     11          1           0       -2.879191   -1.268218   -1.048978
     12          1           0       -2.651850    0.496497   -1.101017
     13          1           0       -4.188465   -0.169599    0.779389
     14          1           0       -2.901625   -1.179142    1.458987
     15          1           0       -2.711952    0.588081    1.392917
 ---------------------------------------------------------------------
 Rotational constants (GHZ):           6.2890427           0.6892246           0.6608103
 Standard basis: 6-311++G(d,p) (5D, 7F)
 There are   233 symmetry adapted cartesian basis functions of A   symmetry.
 There are   225 symmetry adapted basis functions of A   symmetry.
   225 basis functions,   351 primitive gaussians,   233 cartesian basis functions
    31 alpha electrons       30 beta electrons
       nuclear repulsion energy       335.0077926606 Hartrees.
 NAtoms=   15 NActive=   15 NUniq=   15 SFac= 1.00D+00 NAtFMM=   60 NAOKFM=F Big=F
 Integral buffers will be    131072 words long.
 Raffenetti 2 integral format.
 Two-electron integral symmetry is turned on.
 One-electron integrals computed using PRISM.
 NBasis=   225 RedAO= T EigKep=  5.34D-06  NBF=   225
 NBsUse=   224 1.00D-06 EigRej=  4.51D-07 NBFU=   224
 ExpMin= 3.60D-02 ExpMax= 8.59D+03 ExpMxC= 1.30D+03 IAcc=3 IRadAn=         5 AccDes= 0.00D+00
 Harris functional with IExCor=  205 and IRadAn=       5 diagonalized for initial guess.
 HarFok:  IExCor=  205 AccDes= 0.00D+00 IRadAn=         5 IDoV= 1 UseB2=F ITyADJ=14
 ICtDFT=  3500011 ScaDFX=  1.000000  1.000000  1.000000  1.000000
 FoFCou: FMM=F IPFlag=           0 FMFlag=      100000 FMFlg1=           0
         NFxFlg=           0 DoJE=T BraDBF=F KetDBF=T FulRan=T
         wScrn=  0.000000 ICntrl=       500 IOpCl=  0 I1Cent=   200000004 NGrid=           0
         NMat0=    1 NMatS0=      1 NMatT0=    0 NMatD0=    1 NMtDS0=    0 NMtDT0=    0
 Petite list used in FoFCou.
 Initial guess <Sx>= 0.0000 <Sy>= 0.0000 <Sz>= 0.5000 <S**2>= 0.7500 S= 0.5000
 Requested convergence on RMS density matrix=1.00D-08 within 128 cycles.
 Requested convergence on MAX density matrix=1.00D-06.
 Requested convergence on             energy=1.00D-06.
 No special actions if energy rises.
 Initial convergence to 1.0D-05 achieved.  Increase integral accuracy.
 SCF Done:  E(UHF) =  -417.935352684     A.U. after   37 cycles
            NFock= 37  Conv=0.47D-08     -V/T= 2.0007
 <Sx>= 0.0000 <Sy>= 0.0000 <Sz>= 0.5000 <S**2>= 1.0642 S= 0.6464
 <L.S>=  0.00000000000    
 Annihilation of the first spin contaminant:
 S**2 before annihilation     1.0642,   after     0.8311
 ExpMin= 3.60D-02 ExpMax= 8.59D+03 ExpMxC= 1.30D+03 IAcc=3 IRadAn=         5 AccDes= 0.00D+00
 HarFok:  IExCor=  205 AccDes= 0.00D+00 IRadAn=         5 IDoV=-2 UseB2=F ITyADJ=14
 ICtDFT= 12500011 ScaDFX=  1.000000  1.000000  1.000000  1.000000
 Range of M.O.s used for correlation:     9   224
 NBasis=   225 NAE=    31 NBE=    30 NFC=     8 NFV=     0
 NROrb=    216 NOA=    23 NOB=    22 NVA=   193 NVB=   194

 **** Warning!!: The largest alpha MO coefficient is  0.90816095D+02


 **** Warning!!: The largest beta MO coefficient is  0.92828052D+02

 Semi-Direct transformation.
 ModeAB=           4 MOrb=            23 LenV=    1609194811
 LASXX=    107793295 LTotXX=   107793295 LenRXX=   218294035
 LTotAB=   110500740 MaxLAS=   121095000 LenRXY=           0
 NonZer=   326087330 LenScr=   491049984 LnRSAI=   121095000
 LnScr1=   182405120 LExtra=           0 Total=   1012844139
 MaxDsk=          -1 SrtSym=           T ITran=            4
 JobTyp=1 Pass  1:  I=   1 to  23.
 (rs|ai) integrals will be sorted in core.
 ModeAB=           4 MOrb=            22 LenV=    1609194811
 LASXX=    103454307 LTotXX=   103454307 LenRXX=   188091948
 LTotAB=    84637641 MaxLAS=   115830000 LenRXY=           0
 NonZer=   291546255 LenScr=   439034880 LnRSAI=   115830000
 LnScr1=   174493696 LExtra=           0 Total=    917450524
 MaxDsk=          -1 SrtSym=           T ITran=            4
 JobTyp=2 Pass  1:  I=   1 to  22.
 (rs|ai) integrals will be sorted in core.
 SymMOI:  orbitals are not symmetric.
 Spin components of T(2) and E(2):
     alpha-alpha T2 =       0.5292834912D-01 E2=     -0.1714002178D+00
     alpha-beta  T2 =       0.2865739066D+00 E2=     -0.9372588385D+00
     beta-beta   T2 =       0.5219477341D-01 E2=     -0.1624352564D+00
 ANorm=    0.1179702093D+01
 E2 =    -0.1271094313D+01 EUMP2 =    -0.41920644699657D+03
 (S**2,0)=  0.10642D+01           (S**2,1)=  0.97784D+00
 E(PUHF)=      -0.41796217188D+03        E(PMP2)=      -0.41923005525D+03
 Keep R2 and R3 ints in memory in canonical form, NReq=652883968.
 CIDS: In Core Option IDoMem=           1.
 Iterations=  50 Convergence= 0.100D-06
 Produce multiple copies of IABC intergrals
 Iteration Nr.   1
 **********************
 DD1Dir will call FoFMem   1 times, MxPair=      1496
 NAB=   506 NAA=   253 NBB=   231.
 E(PMP3)=      -0.41924982286D+03
 MP4(R+Q)=  0.24725018D-01
 E3=       -0.25110246D-01        EUMP3=      -0.41923155724D+03
 E4(DQ)=   -0.63182232D-02        UMP4(DQ)=   -0.41923787547D+03
 E4(SDQ)=  -0.29041717D-01        UMP4(SDQ)=  -0.41926059896D+03
 DE(Corr)=  -1.2712525     E(Corr)=     -419.20660523    
 NORM(A)=   0.11885653D+01
 Iteration Nr.   2
 **********************
 DD1Dir will call FoFMem   1 times, MxPair=      1496
 NAB=   506 NAA=   253 NBB=   231.
 DE(Corr)=  -1.3164449     E(CORR)=     -419.25179758     Delta=-4.52D-02
 NORM(A)=   0.12122358D+01
 Iteration Nr.   3
 **********************
 DD1Dir will call FoFMem   1 times, MxPair=      1496
 NAB=   506 NAA=   253 NBB=   231.
 DE(Corr)=  -1.3204849     E(CORR)=     -419.25583757     Delta=-4.04D-03
 NORM(A)=   0.12273920D+01
 Iteration Nr.   4
 **********************
 DD1Dir will call FoFMem   1 times, MxPair=      1496
 NAB=   506 NAA=   253 NBB=   231.
 DE(Corr)=  -1.3290416     E(CORR)=     -419.26439430     Delta=-8.56D-03
 NORM(A)=   0.12378757D+01
 Iteration Nr.   5
 **********************
 DD1Dir will call FoFMem   1 times, MxPair=      1496
 NAB=   506 NAA=   253 NBB=   231.
 DE(Corr)=  -1.3317558     E(CORR)=     -419.26710849     Delta=-2.71D-03
 NORM(A)=   0.12439376D+01
 Iteration Nr.   6
 **********************
 DD1Dir will call FoFMem   1 times, MxPair=      1496
 NAB=   506 NAA=   253 NBB=   231.
 DE(Corr)=  -1.3327018     E(CORR)=     -419.26805448     Delta=-9.46D-04
 NORM(A)=   0.12454811D+01
 Iteration Nr.   7
 **********************
 DD1Dir will call FoFMem   1 times, MxPair=      1496
 NAB=   506 NAA=   253 NBB=   231.
 DE(Corr)=  -1.3328998     E(CORR)=     -419.26825243     Delta=-1.98D-04
 NORM(A)=   0.12461586D+01
 Iteration Nr.   8
 **********************
 DD1Dir will call FoFMem   1 times, MxPair=      1496
 NAB=   506 NAA=   253 NBB=   231.
