 Entering Gaussian System, Link 0=g16
 Initial command:
 /opt/g16/l1.exe "/home/aayush/scratches/g16/Gau-9558.inp" -scrdir="/home/aayush/scratches/g16/"
 Entering Link 1 = /opt/g16/l1.exe PID=      9561.
  
 Copyright (c) 1988,1990,1992,1993,1995,1998,2003,2009,2016,
            Gaussian, Inc.  All Rights Reserved.
  
 This is part of the Gaussian(R) 16 program.  It is based on
 the Gaussian(R) 09 system (copyright 2009, Gaussian, Inc.),
 the Gaussian(R) 03 system (copyright 2003, Gaussian, Inc.),
 the Gaussian(R) 98 system (copyright 1998, Gaussian, Inc.),
 the Gaussian(R) 94 system (copyright 1995, Gaussian, Inc.),
 the Gaussian 92(TM) system (copyright 1992, Gaussian, Inc.),
 the Gaussian 90(TM) system (copyright 1990, Gaussian, Inc.),
 the Gaussian 88(TM) system (copyright 1988, Gaussian, Inc.),
 the Gaussian 86(TM) system (copyright 1986, Carnegie Mellon
 University), and the Gaussian 82(TM) system (copyright 1983,
 Carnegie Mellon University). Gaussian is a federally registered
 trademark of Gaussian, Inc.
  
 This software contains proprietary and confidential information,
 including trade secrets, belonging to Gaussian, Inc.
  
 This software is provided under written license and may be
 used, copied, transmitted, or stored only in accord with that
 written license.
  
 The following legend is applicable only to US Government
 contracts under FAR:
  
                    RESTRICTED RIGHTS LEGEND
  
 Use, reproduction and disclosure by the US Government is
 subject to restrictions as set forth in subparagraphs (a)
 and (c) of the Commercial Computer Software - Restricted
 Rights clause in FAR 52.227-19.
  
 Gaussian, Inc.
 340 Quinnipiac St., Bldg. 40, Wallingford CT 06492
  
  
 ---------------------------------------------------------------
 Warning -- This program may not be used in any manner that
 competes with the business of Gaussian, Inc. or will provide
 assistance to any competitor of Gaussian, Inc.  The licensee
 of this program is prohibited from giving any competitor of
 Gaussian, Inc. access to this program.  By using this program,
 the user acknowledges that Gaussian, Inc. is engaged in the
 business of creating and licensing software in the field of
 computational chemistry and represents and warrants to the
 licensee that it is not a competitor of Gaussian, Inc. and that
 it will not use this program in any manner prohibited above.
 ---------------------------------------------------------------
  

 Cite this work as:
 Gaussian 16, Revision A.03,
 M. J. Frisch, G. W. Trucks, H. B. Schlegel, G. E. Scuseria, 
 M. A. Robb, J. R. Cheeseman, G. Scalmani, V. Barone, 
 G. A. Petersson, H. Nakatsuji, X. Li, M. Caricato, A. V. Marenich, 
 J. Bloino, B. G. Janesko, R. Gomperts, B. Mennucci, H. P. Hratchian, 
 J. V. Ortiz, A. F. Izmaylov, J. L. Sonnenberg, D. Williams-Young, 
 F. Ding, F. Lipparini, F. Egidi, J. Goings, B. Peng, A. Petrone, 
 T. Henderson, D. Ranasinghe, V. G. Zakrzewski, J. Gao, N. Rega, 
 G. Zheng, W. Liang, M. Hada, M. Ehara, K. Toyota, R. Fukuda, 
 J. Hasegawa, M. Ishida, T. Nakajima, Y. Honda, O. Kitao, H. Nakai, 
 T. Vreven, K. Throssell, J. A. Montgomery, Jr., J. E. Peralta, 
 F. Ogliaro, M. J. Bearpark, J. J. Heyd, E. N. Brothers, K. N. Kudin, 
 V. N. Staroverov, T. A. Keith, R. Kobayashi, J. Normand, 
 K. Raghavachari, A. P. Rendell, J. C. Burant, S. S. Iyengar, 
 J. Tomasi, M. Cossi, J. M. Millam, M. Klene, C. Adamo, R. Cammi, 
 J. W. Ochterski, R. L. Martin, K. Morokuma, O. Farkas, 
 J. B. Foresman, and D. J. Fox, Gaussian, Inc., Wallingford CT, 2016.
 
 ******************************************
 Gaussian 16:  ES64L-G16RevA.03 25-Dec-2016
                16-Aug-2025 
 ******************************************
 %chk=ethyl_propiolate.chk
 %nprocshared=24
 Will use up to   24 processors via shared memory.
 %mem=12GB
 --------------------------
 # freq 6-311++g(d,p) m062x
 --------------------------
 1/10=4,30=1,38=1/1,3;
 2/12=2,17=6,18=5,40=1/2;
 3/5=4,6=6,7=1111,11=2,25=1,30=1,71=2,74=-55,140=1/1,2,3;
 4//1;
 5/5=2,38=5,98=1/2;
 8/6=4,10=90,11=11/1;
 11/6=1,8=1,9=11,15=111,16=1/1,2,10;
 10/6=1/2;
 6/7=2,8=2,9=2,10=2,28=1/1;
 7/8=1,10=1,25=1/1,2,3,16;
 1/10=4,30=1/3;
 99//99;
 -------------------
 Title Card Required
 -------------------
 Symbolic Z-matrix:
 Charge =  0 Multiplicity = 2
 O                     4.49898  -0.26685   0.33577 
 H                     4.53371   0.62459  -0.03468 
 C                     2.19477  -0.3231   -0.06342 
 H                     3.68037  -0.69407  -0.08399 
 C                     1.03759   0.01555  -0.09301 
 C                    -0.36759   0.38992  -0.17801 
 O                    -0.75225   1.51877  -0.05064 
 O                    -1.13503  -0.67035  -0.41257 
 C                    -2.55388  -0.41983  -0.49775 
 C                    -3.16819  -0.29737   0.88258 
 H                    -2.94074  -1.28251  -1.03682 
 H                    -2.71374   0.48222  -1.08942 
 H                    -4.25007  -0.18369   0.79126 
 H                    -2.96301  -1.19267   1.47116 
 H                    -2.77388   0.57461   1.40461 
 

 GradGradGradGradGradGradGradGradGradGradGradGradGradGradGradGradGradGrad
 Berny optimization.
 Initialization pass.
 Trust Radius=3.00D-01 FncErr=1.00D-07 GrdErr=1.00D-07 EigMax=2.50D+02 EigMin=1.00D-04
 Number of steps in this run=      2 maximum allowed number of steps=      2.
 GradGradGradGradGradGradGradGradGradGradGradGradGradGradGradGradGradGrad

                          Input orientation:                          
 ---------------------------------------------------------------------
 Center     Atomic      Atomic             Coordinates (Angstroms)
 Number     Number       Type             X           Y           Z
 ---------------------------------------------------------------------
      1          8           0        4.498976   -0.266846    0.335774
      2          1           0        4.533715    0.624593   -0.034678
      3          6           0        2.194771   -0.323101   -0.063422
      4          1           0        3.680371   -0.694073   -0.083986
      5          6           0        1.037591    0.015552   -0.093010
      6          6           0       -0.367592    0.389918   -0.178014
      7          8           0       -0.752252    1.518770   -0.050635
      8          8           0       -1.135033   -0.670352   -0.412565
      9          6           0       -2.553875   -0.419827   -0.497751
     10          6           0       -3.168194   -0.297367    0.882582
     11          1           0       -2.940742   -1.282512   -1.036822
     12          1           0       -2.713739    0.482221   -1.089417
     13          1           0       -4.250070   -0.183690    0.791257
     14          1           0       -2.963010   -1.192670    1.471164
     15          1           0       -2.773880    0.574608    1.404612
 ---------------------------------------------------------------------
                    Distance matrix (angstroms):
                    1          2          3          4          5
     1  O    0.000000
     2  H    0.965974   0.000000
     3  C    2.339206   2.523808   0.000000
     4  H    1.014315   1.571467   1.531356   0.000000
     5  C    3.499256   3.549256   1.206079   2.736409   0.000000
     6  C    4.937489   4.909015   2.662185   4.191644   1.456679
     7  O    5.559958   5.361087   3.475284   4.954385   2.337734
     8  O    5.697797   5.827039   3.366018   4.826660   2.300625
     9  C    7.103582   7.179079   4.769448   6.253978   3.640329
    10  C    7.686705   7.810940   5.445822   6.927804   4.328779
    11  H    7.633151   7.778743   5.314270   6.715154   4.289858
    12  H    7.390232   7.325185   5.078846   6.578693   3.909358
    13  H    8.761289   8.859479   6.502760   7.994901   5.364791
    14  H    7.604439   7.859446   5.451037   6.841170   4.462202
    15  H    7.398979   7.448154   5.258184   6.744096   4.133126
                    6          7          8          9         10
     6  C    0.000000
     7  O    1.199373   0.000000
     8  O    1.329719   2.251615   0.000000
     9  C    2.353243   2.684011   1.443306   0.000000
    10  C    3.072555   3.163230   2.439317   1.515818   0.000000
    11  H    3.186797   3.689070   2.006246   1.088342   2.169414
    12  H    2.518647   2.449680   2.068542   1.090558   2.168656
    13  H    4.042542   3.980186   3.374831   2.143450   1.091659
    14  H    3.458405   3.815132   2.676332   2.154369   1.090916
    15  H    2.886007   2.663863   2.745519   2.157843   1.090110
                   11         12         13         14         15
    11  H    0.000000
    12  H    1.780050   0.000000
    13  H    2.502723   2.518072   0.000000
    14  H    2.509693   3.069849   1.771112   0.000000
    15  H    3.072025   2.496464   1.769282   1.778615   0.000000
 Stoichiometry    C5H7O3(2)
 Framework group  C1[X(C5H7O3)]
 Deg. of freedom    39
 Full point group                 C1      NOp   1
 Largest Abelian subgroup         C1      NOp   1
 Largest concise Abelian subgroup C1      NOp   1
                         Standard orientation:                         
 ---------------------------------------------------------------------
 Center     Atomic      Atomic             Coordinates (Angstroms)
 Number     Number       Type             X           Y           Z
 ---------------------------------------------------------------------
      1          8           0        4.559326   -0.250716    0.325340
      2          1           0        4.593701    0.640355   -0.046032
      3          6           0        2.255224   -0.308508   -0.074232
      4          1           0        3.741009   -0.678777   -0.094130
      5          6           0        1.097885    0.029550   -0.104391
      6          6           0       -0.307464    0.403143   -0.190049
      7          8           0       -0.692697    1.531939   -0.063917
      8          8           0       -1.074344   -0.657744   -0.423643
      9          6           0       -2.493292   -0.407999   -0.509357
     10          6           0       -3.107931   -0.284403    0.870732
     11          1           0       -2.879636   -1.271432   -1.047604
     12          1           0       -2.653483    0.493355   -1.101991
     13          1           0       -4.189845   -0.171348    0.779084
     14          1           0       -2.902423   -1.178994    1.460283
     15          1           0       -2.714141    0.588306    1.391929
 ---------------------------------------------------------------------
 Rotational constants (GHZ):           6.2812050           0.6882138           0.6598663
 Standard basis: 6-311++G(d,p) (5D, 7F)
 There are   233 symmetry adapted cartesian basis functions of A   symmetry.
 There are   225 symmetry adapted basis functions of A   symmetry.
   225 basis functions,   351 primitive gaussians,   233 cartesian basis functions
    31 alpha electrons       30 beta electrons
       nuclear repulsion energy       335.0402812035 Hartrees.
 NAtoms=   15 NActive=   15 NUniq=   15 SFac= 1.00D+00 NAtFMM=   60 NAOKFM=F Big=F
 Integral buffers will be    131072 words long.
 Raffenetti 2 integral format.
 Two-electron integral symmetry is turned on.
 One-electron integrals computed using PRISM.
 NBasis=   225 RedAO= T EigKep=  5.10D-06  NBF=   225
 NBsUse=   224 1.00D-06 EigRej=  3.79D-07 NBFU=   224
 ExpMin= 3.60D-02 ExpMax= 8.59D+03 ExpMxC= 1.30D+03 IAcc=3 IRadAn=         5 AccDes= 0.00D+00
 Harris functional with IExCor= 1009 and IRadAn=       5 diagonalized for initial guess.
 HarFok:  IExCor= 1009 AccDes= 0.00D+00 IRadAn=         5 IDoV= 1 UseB2=F ITyADJ=14
 ICtDFT=  3500011 ScaDFX=  1.000000  1.000000  1.000000  1.000000
 FoFCou: FMM=F IPFlag=           0 FMFlag=      100000 FMFlg1=           0
         NFxFlg=           0 DoJE=T BraDBF=F KetDBF=T FulRan=T
         wScrn=  0.000000 ICntrl=       500 IOpCl=  0 I1Cent=   200000004 NGrid=           0
         NMat0=    1 NMatS0=      1 NMatT0=    0 NMatD0=    1 NMtDS0=    0 NMtDT0=    0
 Petite list used in FoFCou.
 Initial guess <Sx>= 0.0000 <Sy>= 0.0000 <Sz>= 0.5000 <S**2>= 0.7500 S= 0.5000
 Requested convergence on RMS density matrix=1.00D-08 within 128 cycles.
 Requested convergence on MAX density matrix=1.00D-06.
 Requested convergence on             energy=1.00D-06.
 No special actions if energy rises.
 Restarting incremental Fock formation.
 SCF Done:  E(UM062X) =  -420.174953855     A.U. after   24 cycles
            NFock= 24  Conv=0.45D-08     -V/T= 2.0032
 <Sx>= 0.0000 <Sy>= 0.0000 <Sz>= 0.5000 <S**2>= 0.7694 S= 0.5096
 <L.S>=  0.00000000000    
 Annihilation of the first spin contaminant:
 S**2 before annihilation     0.7694,   after     0.7503
 DoSCS=F DFT=T ScalE2(SS,OS)=  1.000000  1.000000
 Range of M.O.s used for correlation:     1   224
 NBasis=   225 NAE=    31 NBE=    30 NFC=     0 NFV=     0
 NROrb=    224 NOA=    31 NOB=    30 NVA=   193 NVB=   194

 **** Warning!!: The largest alpha MO coefficient is  0.80101390D+02


 **** Warning!!: The largest beta MO coefficient is  0.99968868D+02

 Symmetrizing basis deriv contribution to polar:
 IMax=3 JMax=2 DiffMx= 0.00D+00
 G2DrvN: will do    16 centers at a time, making    1 passes.
 Calling FoFCou, ICntrl=  3107 FMM=F I1Cent=   0 AccDes= 0.00D+00.
 End of G2Drv F.D. properties file   721 does not exist.
 End of G2Drv F.D. properties file   722 does not exist.
 End of G2Drv F.D. properties file   788 does not exist.
          IDoAtm=111111111111111
          Differentiating once with respect to electric field.
                with respect to dipole field.
          Differentiating once with respect to nuclear coordinates.
 Keep R1 and R2 ints in memory in canonical form, NReq=671901989.
          There are    48 degrees of freedom in the 1st order CPHF.  IDoFFX=6 NUNeed=     3.
     45 vectors produced by pass  0 Test12= 2.46D-14 2.08D-09 XBig12= 1.44D+02 4.78D+00.
 AX will form    45 AO Fock derivatives at one time.
     45 vectors produced by pass  1 Test12= 2.46D-14 2.08D-09 XBig12= 3.16D+01 1.16D+00.
     45 vectors produced by pass  2 Test12= 2.46D-14 2.08D-09 XBig12= 1.66D+00 1.60D-01.
     45 vectors produced by pass  3 Test12= 2.46D-14 2.08D-09 XBig12= 3.07D-02 3.28D-02.
     45 vectors produced by pass  4 Test12= 2.46D-14 2.08D-09 XBig12= 5.56D-04 4.27D-03.
     45 vectors produced by pass  5 Test12= 2.46D-14 2.08D-09 XBig12= 7.03D-06 2.59D-04.
     39 vectors produced by pass  6 Test12= 2.46D-14 2.08D-09 XBig12= 6.43D-08 1.96D-05.
     21 vectors produced by pass  7 Test12= 2.46D-14 2.08D-09 XBig12= 4.83D-10 1.72D-06.
      5 vectors produced by pass  8 Test12= 2.46D-14 2.08D-09 XBig12= 3.47D-12 1.70D-07.
      3 vectors produced by pass  9 Test12= 2.46D-14 2.08D-09 XBig12= 3.55D-14 1.78D-08.
 InvSVY:  IOpt=1 It=  1 EMax= 1.07D-14
 Solved reduced A of dimension   338 with    48 vectors.
 Isotropic polarizability for W=    0.000000       85.59 Bohr**3.
 End of Minotr F.D. properties file   721 does not exist.
 End of Minotr F.D. properties file   722 does not exist.
 End of Minotr F.D. properties file   788 does not exist.

 **********************************************************************

            Population analysis using the SCF density.

 **********************************************************************

 Orbital symmetries:
 Alpha Orbitals:
       Occupied  (A) (A) (A) (A) (A) (A) (A) (A) (A) (A) (A) (A)
                 (A) (A) (A) (A) (A) (A) (A) (A) (A) (A) (A) (A)
                 (A) (A) (A) (A) (A) (A) (A)
       Virtual   (A) (A) (A) (A) (A) (A) (A) (A) (A) (A) (A) (A)
                 (A) (A) (A) (A) (A) (A) (A) (A) (A) (A) (A) (A)
                 (A) (A) (A) (A) (A) (A) (A) (A) (A) (A) (A) (A)
                 (A) (A) (A) (A) (A) (A) (A) (A) (A) (A) (A) (A)
                 (A) (A) (A) (A) (A) (A) (A) (A) (A) (A) (A) (A)
                 (A) (A) (A) (A) (A) (A) (A) (A) (A) (A) (A) (A)
                 (A) (A) (A) (A) (A) (A) (A) (A) (A) (A) (A) (A)
                 (A) (A) (A) (A) (A) (A) (A) (A) (A) (A) (A) (A)
                 (A) (A) (A) (A) (A) (A) (A) (A) (A) (A) (A) (A)
                 (A) (A) (A) (A) (A) (A) (A) (A) (A) (A) (A) (A)
                 (A) (A) (A) (A) (A) (A) (A) (A) (A) (A) (A) (A)
                 (A) (A) (A) (A) (A) (A) (A) (A) (A) (A) (A) (A)
                 (A) (A) (A) (A) (A) (A) (A) (A) (A) (A) (A) (A)
                 (A) (A) (A) (A) (A) (A) (A) (A) (A) (A) (A) (A)
                 (A) (A) (A) (A) (A) (A) (A) (A) (A) (A) (A) (A)
                 (A) (A) (A) (A) (A) (A) (A) (A) (A) (A) (A) (A)
                 (A)
 Beta  Orbitals:
       Occupied  (A) (A) (A) (A) (A) (A) (A) (A) (A) (A) (A) (A)
                 (A) (A) (A) (A) (A) (A) (A) (A) (A) (A) (A) (A)
                 (A) (A) (A) (A) (A) (A)
       Virtual   (A) (A) (A) (A) (A) (A) (A) (A) (A) (A) (A) (A)
                 (A) (A) (A) (A) (A) (A) (A) (A) (A) (A) (A) (A)
                 (A) (A) (A) (A) (A) (A) (A) (A) (A) (A) (A) (A)
                 (A) (A) (A) (A) (A) (A) (A) (A) (A) (A) (A) (A)
                 (A) (A) (A) (A) (A) (A) (A) (A) (A) (A) (A) (A)
                 (A) (A) (A) (A) (A) (A) (A) (A) (A) (A) (A) (A)
                 (A) (A) (A) (A) (A) (A) (A) (A) (A) (A) (A) (A)
                 (A) (A) (A) (A) (A) (A) (A) (A) (A) (A) (A) (A)
                 (A) (A) (A) (A) (A) (A) (A) (A) (A) (A) (A) (A)
                 (A) (A) (A) (A) (A) (A) (A) (A) (A) (A) (A) (A)
                 (A) (A) (A) (A) (A) (A) (A) (A) (A) (A) (A) (A)
                 (A) (A) (A) (A) (A) (A) (A) (A) (A) (A) (A) (A)
                 (A) (A) (A) (A) (A) (A) (A) (A) (A) (A) (A) (A)
                 (A) (A) (A) (A) (A) (A) (A) (A) (A) (A) (A) (A)
                 (A) (A) (A) (A) (A) (A) (A) (A) (A) (A) (A) (A)
                 (A) (A) (A) (A) (A) (A) (A) (A) (A) (A) (A) (A)
                 (A) (A)
 The electronic state is 2-A.
 Alpha  occ. eigenvalues --  -19.68937 -19.68178 -19.63898 -10.71355 -10.61081
 Alpha  occ. eigenvalues --  -10.60660 -10.57908 -10.54189  -1.26371  -1.18599
 Alpha  occ. eigenvalues --   -1.17094  -0.91262  -0.87747  -0.78566  -0.70979
 Alpha  occ. eigenvalues --   -0.67187  -0.64697  -0.59085  -0.57062  -0.55681
 Alpha  occ. eigenvalues --   -0.54140  -0.49905  -0.47246  -0.46139  -0.45888
 Alpha  occ. eigenvalues --   -0.42838  -0.42273  -0.40193  -0.39137  -0.38361
 Alpha  occ. eigenvalues --   -0.37148
 Alpha virt. eigenvalues --   -0.02278  -0.00392   0.00118   0.01634   0.02276
 Alpha virt. eigenvalues --    0.02686   0.03526   0.04888   0.05317   0.06146
 Alpha virt. eigenvalues --    0.06906   0.07743   0.08090   0.08651   0.10257
 Alpha virt. eigenvalues --    0.11502   0.12246   0.12292   0.13094   0.13248
 Alpha virt. eigenvalues --    0.14362   0.14764   0.15390   0.16113   0.16618
 Alpha virt. eigenvalues --    0.17272   0.18256   0.19154   0.19622   0.20428
 Alpha virt. eigenvalues --    0.21127   0.22422   0.23003   0.23316   0.25426
 Alpha virt. eigenvalues --    0.26076   0.26239   0.27754   0.28665   0.29949
 Alpha virt. eigenvalues --    0.30461   0.31167   0.31680   0.32741   0.33345
 Alpha virt. eigenvalues --    0.34175   0.35925   0.36619   0.37154   0.40059
 Alpha virt. eigenvalues --    0.40955   0.44766   0.46215   0.47386   0.49474
 Alpha virt. eigenvalues --    0.50659   0.54221   0.56614   0.57819   0.58792
 Alpha virt. eigenvalues --    0.60829   0.63278   0.63762   0.66639   0.67603
 Alpha virt. eigenvalues --    0.68798   0.69962   0.72125   0.72824   0.73118
 Alpha virt. eigenvalues --    0.74476   0.75269   0.77888   0.78119   0.81041
 Alpha virt. eigenvalues --    0.88324   0.91894   0.94319   0.98313   1.01164
 Alpha virt. eigenvalues --    1.04082   1.05420   1.07023   1.12224   1.14622
 Alpha virt. eigenvalues --    1.15800   1.16845   1.17690   1.18671   1.21205
 Alpha virt. eigenvalues --    1.22433   1.25046   1.28192   1.29978   1.33256
 Alpha virt. eigenvalues --    1.34410   1.35752   1.38326   1.38928   1.44582
 Alpha virt. eigenvalues --    1.46645   1.49925   1.51104   1.56591   1.57362
 Alpha virt. eigenvalues --    1.58930   1.60023   1.61155   1.62321   1.63538
 Alpha virt. eigenvalues --    1.64007   1.66658   1.69482   1.71001   1.72750
 Alpha virt. eigenvalues --    1.74692   1.78792   1.82772   1.86038   1.88072
 Alpha virt. eigenvalues --    1.92447   1.96780   2.01319   2.02575   2.07445
 Alpha virt. eigenvalues --    2.12211   2.13504   2.20290   2.26359   2.30550
 Alpha virt. eigenvalues --    2.34503   2.38698   2.43056   2.50692   2.51068
 Alpha virt. eigenvalues --    2.53207   2.54969   2.61332   2.62416   2.64074
 Alpha virt. eigenvalues --    2.68257   2.69289   2.71551   2.73606   2.79361
 Alpha virt. eigenvalues --    2.80246   2.82394   2.83560   2.91120   2.93882
 Alpha virt. eigenvalues --    2.97754   2.99156   3.00708   3.02748   3.06560
 Alpha virt. eigenvalues --    3.13286   3.14099   3.16625   3.25023   3.28038
 Alpha virt. eigenvalues --    3.30259   3.35027   3.38190   3.43637   3.55802
 Alpha virt. eigenvalues --    3.64051   3.69405   3.73234   3.84370   3.85725
 Alpha virt. eigenvalues --    3.88880   3.89898   4.00804   4.05319   4.15024
 Alpha virt. eigenvalues --    4.27284   5.09547   5.12992   5.16672   5.30736
 Alpha virt. eigenvalues --    5.39520   5.45019   5.64629   5.72175   5.94072
 Alpha virt. eigenvalues --   23.42641  23.92915  23.93044  24.05349  24.93072
 Alpha virt. eigenvalues --   49.94670  49.99318  50.10241
  Beta  occ. eigenvalues --  -19.68948 -19.67428 -19.63892 -10.71334 -10.61082
  Beta  occ. eigenvalues --  -10.59517 -10.57793 -10.54190  -1.26375  -1.17091
  Beta  occ. eigenvalues --   -1.15840  -0.90637  -0.86645  -0.77996  -0.70254
  Beta  occ. eigenvalues --   -0.64871  -0.63966  -0.59087  -0.57101  -0.54294
  Beta  occ. eigenvalues --   -0.50847  -0.49884  -0.47249  -0.45855  -0.43065
  Beta  occ. eigenvalues --   -0.42477  -0.39696  -0.39146  -0.36873  -0.36254
  Beta virt. eigenvalues --   -0.16102  -0.01240  -0.00201   0.00373   0.01656
  Beta virt. eigenvalues --    0.02284   0.02939   0.03703   0.05308   0.05774
  Beta virt. eigenvalues --    0.06655   0.06964   0.07764   0.08156   0.08672
  Beta virt. eigenvalues --    0.10365   0.11702   0.12420   0.12572   0.13100
  Beta virt. eigenvalues --    0.13335   0.14481   0.14850   0.15714   0.16388
  Beta virt. eigenvalues --    0.16697   0.17380   0.18371   0.19280   0.19652
  Beta virt. eigenvalues --    0.20467   0.21266   0.22405   0.23073   0.23396
  Beta virt. eigenvalues --    0.25473   0.26075   0.26339   0.27979   0.28741
  Beta virt. eigenvalues --    0.30056   0.30534   0.31513   0.32005   0.32850
  Beta virt. eigenvalues --    0.33464   0.34198   0.36165   0.36878   0.37263
  Beta virt. eigenvalues --    0.40141   0.41083   0.44901   0.46272   0.48079
  Beta virt. eigenvalues --    0.49625   0.50707   0.54373   0.56823   0.58182
  Beta virt. eigenvalues --    0.59190   0.61046   0.63551   0.64244   0.66691
  Beta virt. eigenvalues --    0.67647   0.68831   0.69962   0.72343   0.72832
  Beta virt. eigenvalues --    0.73336   0.74579   0.77000   0.78071   0.79692
  Beta virt. eigenvalues --    0.81210   0.88248   0.91973   0.94583   0.99105
  Beta virt. eigenvalues --    1.01314   1.04328   1.05791   1.07669   1.13126
  Beta virt. eigenvalues --    1.14823   1.16408   1.17656   1.18302   1.19105
  Beta virt. eigenvalues --    1.21489   1.22452   1.25240   1.28331   1.30636
  Beta virt. eigenvalues --    1.33520   1.34540   1.36210   1.38567   1.39297
  Beta virt. eigenvalues --    1.45214   1.46976   1.50441   1.51137   1.57140
  Beta virt. eigenvalues --    1.57497   1.59078   1.60198   1.61869   1.62588
  Beta virt. eigenvalues --    1.64428   1.64991   1.66791   1.69512   1.71213
  Beta virt. eigenvalues --    1.72819   1.74695   1.78864   1.82982   1.86267
  Beta virt. eigenvalues --    1.88283   1.92768   1.97033   2.01420   2.02815
  Beta virt. eigenvalues --    2.07612   2.12297   2.13957   2.20312   2.26920
  Beta virt. eigenvalues --    2.30623   2.34583   2.39005   2.43857   2.50399
  Beta virt. eigenvalues --    2.50955   2.53196   2.55016   2.61333   2.62428
  Beta virt. eigenvalues --    2.64131   2.68346   2.69029   2.70972   2.73680
  Beta virt. eigenvalues --    2.79528   2.81138   2.82619   2.84810   2.91288
  Beta virt. eigenvalues --    2.93934   2.97631   3.00335   3.00814   3.04902
  Beta virt. eigenvalues --    3.07205   3.13776   3.14772   3.17281   3.25057
  Beta virt. eigenvalues --    3.28881   3.30633   3.35537   3.38595   3.43586
  Beta virt. eigenvalues --    3.57658   3.64134   3.69732   3.74319   3.84387
  Beta virt. eigenvalues --    3.85738   3.89705   3.90389   4.00988   4.05426
  Beta virt. eigenvalues --    4.15041   4.27276   5.11503   5.12958   5.16608
  Beta virt. eigenvalues --    5.30796   5.41860   5.45013   5.65968   5.72142
  Beta virt. eigenvalues --    5.94063  23.43418  23.92918  23.93074  24.05350
  Beta virt. eigenvalues --   24.94046  49.93916  49.99320  50.10249
          Condensed to atoms (all electrons):
               1          2          3          4          5          6
     1  O    7.729184   0.298125  -0.007875   0.316963  -0.029118   0.018165
     2  H    0.298125   0.440503   0.027569  -0.044214   0.000177   0.004838
     3  C   -0.007875   0.027569   5.931949   0.028907  -0.308558   1.033308
     4  H    0.316963  -0.044214   0.028907   0.327136  -0.085535   0.051391
     5  C   -0.029118   0.000177  -0.308558  -0.085535  12.179690  -6.334444
     6  C    0.018165   0.004838   1.033308   0.051391  -6.334444  11.692721
     7  O    0.000006  -0.000107  -0.066778   0.000112   0.263259   0.151869
     8  O    0.000250   0.000033  -0.046029  -0.000343  -0.357215   0.165029
     9  C    0.000060  -0.000093   0.023801   0.000906  -0.379105   0.149334
    10  C   -0.000014   0.000042  -0.011445  -0.000085   0.002462  -0.090250
    11  H    0.000017   0.000002   0.001813  -0.000009  -0.013788   0.018968
    12  H    0.000001  -0.000008   0.001084   0.000075  -0.010992   0.002827
    13  H   -0.000002   0.000001  -0.001680  -0.000017   0.009902  -0.010140
    14  H    0.000017  -0.000002   0.001739   0.000008   0.000928   0.007587
    15  H   -0.000006  -0.000009   0.000752  -0.000002  -0.035221   0.010633
               7          8          9         10         11         12
     1  O    0.000006   0.000250   0.000060  -0.000014   0.000017   0.000001
     2  H   -0.000107   0.000033  -0.000093   0.000042   0.000002  -0.000008
     3  C   -0.066778  -0.046029   0.023801  -0.011445   0.001813   0.001084
     4  H    0.000112  -0.000343   0.000906  -0.000085  -0.000009   0.000075
     5  C    0.263259  -0.357215  -0.379105   0.002462  -0.013788  -0.010992
     6  C    0.151869   0.165029   0.149334  -0.090250   0.018968   0.002827
     7  O    8.026996  -0.139542   0.055683  -0.072143   0.002788  -0.020229
     8  O   -0.139542   8.312842   0.202598  -0.044695  -0.086975  -0.009435
     9  C    0.055683   0.202598   5.422835   0.040876   0.443148   0.398853
    10  C   -0.072143  -0.044695   0.040876   5.453236  -0.056421  -0.020443
    11  H    0.002788  -0.086975   0.443148  -0.056421   0.529978  -0.037036
    12  H   -0.020229  -0.009435   0.398853  -0.020443  -0.037036   0.512708
    13  H   -0.000955   0.018021  -0.043363   0.399278  -0.000886  -0.004370
    14  H    0.001333  -0.006466  -0.041978   0.419246  -0.010884   0.004847
    15  H    0.004965  -0.019984   0.008265   0.383533   0.011043  -0.011800
              13         14         15
     1  O   -0.000002   0.000017  -0.000006
     2  H    0.000001  -0.000002  -0.000009
     3  C   -0.001680   0.001739   0.000752
     4  H   -0.000017   0.000008  -0.000002
     5  C    0.009902   0.000928  -0.035221
     6  C   -0.010140   0.007587   0.010633
     7  O   -0.000955   0.001333   0.004965
     8  O    0.018021  -0.006466  -0.019984
     9  C   -0.043363  -0.041978   0.008265
    10  C    0.399278   0.419246   0.383533
    11  H   -0.000886  -0.010884   0.011043
    12  H   -0.004370   0.004847  -0.011800
    13  H    0.531752  -0.032489  -0.031606
    14  H   -0.032489   0.536840  -0.048491
    15  H   -0.031606  -0.048491   0.543298
          Atomic-Atomic Spin Densities.
               1          2          3          4          5          6
     1  O    0.414616   0.005311  -0.097482   0.015826  -0.040964   0.023685
     2  H    0.005311  -0.013460  -0.000929   0.001369   0.001614  -0.002062
     3  C   -0.097482  -0.000929   0.848133  -0.034083  -0.029663   0.054061
     4  H    0.015826   0.001369  -0.034083  -0.020707  -0.011800   0.012305
     5  C   -0.040964   0.001614  -0.029663  -0.011800   0.816876  -0.656061
     6  C    0.023685  -0.002062   0.054061   0.012305  -0.656061   0.462719
     7  O    0.000143  -0.000037   0.001672   0.000017  -0.015475   0.013992
     8  O    0.000065  -0.000006   0.003390   0.000026   0.010570  -0.007096
     9  C    0.000098   0.000005   0.002690  -0.000060  -0.010422   0.010618
    10  C    0.000008   0.000004  -0.001277  -0.000066   0.002502  -0.001851
    11  H    0.000009  -0.000002   0.000934   0.000026  -0.004451   0.003427
    12  H    0.000005  -0.000001  -0.000248  -0.000006   0.002073  -0.001219
    13  H   -0.000001   0.000001  -0.000323  -0.000007   0.002541  -0.001737
    14  H    0.000001  -0.000001   0.000094   0.000009  -0.000306   0.000076
    15  H    0.000006   0.000000  -0.000004  -0.000002   0.001012  -0.000669
               7          8          9         10         11         12
     1  O    0.000143   0.000065   0.000098   0.000008   0.000009   0.000005
     2  H   -0.000037  -0.000006   0.000005   0.000004  -0.000002  -0.000001
     3  C    0.001672   0.003390   0.002690  -0.001277   0.000934  -0.000248
     4  H    0.000017   0.000026  -0.000060  -0.000066   0.000026  -0.000006
     5  C   -0.015475   0.010570  -0.010422   0.002502  -0.004451   0.002073
     6  C    0.013992  -0.007096   0.010618  -0.001851   0.003427  -0.001219
     7  O   -0.002449   0.002720  -0.000238   0.000027  -0.000011   0.000299
     8  O    0.002720  -0.008723  -0.001609   0.001310   0.000073  -0.000546
     9  C   -0.000238  -0.001609  -0.003983   0.003155  -0.000319  -0.000053
    10  C    0.000027   0.001310   0.003155  -0.005557   0.000787  -0.000060
    11  H   -0.000011   0.000073  -0.000319   0.000787  -0.000344  -0.000045
    12  H    0.000299  -0.000546  -0.000053  -0.000060  -0.000045  -0.000201
    13  H    0.000102  -0.000057  -0.000462  -0.000067  -0.000084   0.000010
    14  H   -0.000006  -0.000087  -0.000164   0.000493  -0.000032   0.000005
    15  H   -0.000091  -0.000218  -0.000778   0.000789  -0.000137   0.000072
              13         14         15
     1  O   -0.000001   0.000001   0.000006
     2  H    0.000001  -0.000001   0.000000
     3  C   -0.000323   0.000094  -0.000004
     4  H   -0.000007   0.000009  -0.000002
     5  C    0.002541  -0.000306   0.001012
     6  C   -0.001737   0.000076  -0.000669
     7  O    0.000102  -0.000006  -0.000091
     8  O   -0.000057  -0.000087  -0.000218
     9  C   -0.000462  -0.000164  -0.000778
    10  C   -0.000067   0.000493   0.000789
    11  H   -0.000084  -0.000032  -0.000137
    12  H    0.000010   0.000005   0.000072
    13  H    0.000025   0.000004   0.000023
    14  H    0.000004  -0.000076  -0.000024
    15  H    0.000023  -0.000024  -0.000173
 Mulliken charges and spin densities:
               1          2
     1  O   -0.325774   0.321325
     2  H    0.273143  -0.008194
     3  C   -0.608556   0.746966
     4  H    0.404705  -0.037152
     5  C    1.097558   0.068045
     6  C   -0.871835  -0.089812
     7  O   -0.207258   0.000664
     8  O    0.011911  -0.000188
     9  C   -0.281820  -0.001522
    10  C   -0.403178   0.000196
    11  H    0.198240  -0.000170
    12  H    0.193917   0.000085
    13  H    0.166553  -0.000033
    14  H    0.167765  -0.000014
    15  H    0.184630  -0.000194
 Sum of Mulliken charges =  -0.00000   1.00000
 Mulliken charges and spin densities with hydrogens summed into heavy atoms:
               1          2
     1  O    0.352074   0.275979
     3  C   -0.608556   0.746966
     5  C    1.097558   0.068045
     6  C   -0.871835  -0.089812
     7  O   -0.207258   0.000664
     8  O    0.011911  -0.000188
     9  C    0.110336  -0.001608
    10  C    0.115770  -0.000044
 APT charges:
               1
     1  O   -0.432292
     2  H    0.311313
     3  C    0.028019
     4  H   -0.039439
     5  C   -0.150038
     6  C    1.623019
     7  O   -0.862138
     8  O   -1.021645
     9  C    0.568335
    10  C   -0.045788
    11  H   -0.016487
    12  H   -0.014067
    13  H    0.007676
    14  H    0.011723
    15  H    0.031808
 Sum of APT charges =   0.00000
 APT charges with hydrogens summed into heavy atoms:
               1
     1  O   -0.160419
     3  C    0.028019
     5  C   -0.150038
     6  C    1.623019
     7  O   -0.862138
     8  O   -1.021645
     9  C    0.537782
    10  C    0.005419
 Electronic spatial extent (au):  <R**2>=           1684.3329
 Charge=             -0.0000 electrons
 Dipole moment (field-independent basis, Debye):
    X=             -1.4001    Y=             -0.4071    Z=             -1.0827  Tot=              1.8161
 Quadrupole moment (field-independent basis, Debye-Ang):
   XX=            -39.0642   YY=            -51.8782   ZZ=            -48.0487
   XY=              7.5784   XZ=             -3.8278   YZ=             -0.2493
 Traceless Quadrupole moment (field-independent basis, Debye-Ang):
   XX=              7.2661   YY=             -5.5478   ZZ=             -1.7183
   XY=              7.5784   XZ=             -3.8278   YZ=             -0.2493
 Octapole moment (field-independent basis, Debye-Ang**2):
  XXX=            -23.0946  YYY=             -5.2523  ZZZ=             -1.7778  XYY=              8.3127
  XXY=             24.5150  XXZ=            -23.5543  XZZ=             -5.1533  YZZ=              1.4986
  YYZ=              0.0223  XYZ=              0.0192
 Hexadecapole moment (field-independent basis, Debye-Ang**3):
 XXXX=          -1819.4290 YYYY=           -190.4456 ZZZZ=           -124.2290 XXXY=            154.3341
 XXXZ=            -79.6714 YYYX=              9.8588 YYYZ=              0.7827 ZZZX=              6.6063
 ZZZY=             -0.0030 XXYY=           -310.4562 XXZZ=           -341.3102 YYZZ=            -47.8063
 XXYZ=              4.6279 YYXZ=              3.0359 ZZXY=              1.6671
 N-N= 3.350402812035D+02 E-N=-1.654230163937D+03  KE= 4.188302790756D+02
  Exact polarizability: 143.624  -8.853  62.169   1.817   0.551  50.990
 Approx polarizability: 122.108 -13.315  80.358   3.210   1.800  57.914
                          Isotropic Fermi Contact Couplings
        Atom                 a.u.       MegaHertz       Gauss      10(-4) cm-1
     1  O(17)              0.05157     -31.26256     -11.15526     -10.42807
     2  H(1)              -0.00548     -24.50899      -8.74542      -8.17532
     3  C(13)              0.76296     857.71198     306.05296     286.10192
     4  H(1)              -0.02203     -98.47490     -35.13829     -32.84769
     5  C(13)              0.12131     136.37297      48.66127      45.48913
     6  C(13)              0.01255      14.10598       5.03337       4.70525
     7  O(17)             -0.00100       0.60522       0.21596       0.20188
     8  O(17)             -0.00798       4.83792       1.72629       1.61376
     9  C(13)             -0.00059      -0.66624      -0.23773      -0.22224
    10  C(13)             -0.00035      -0.38827      -0.13854      -0.12951
    11  H(1)              -0.00001      -0.02286      -0.00816      -0.00763
    12  H(1)              -0.00003      -0.15203      -0.05425      -0.05071
    13  H(1)              -0.00004      -0.16600      -0.05923      -0.05537
    14  H(1)              -0.00000      -0.01054      -0.00376      -0.00352
    15  H(1)               0.00001       0.02728       0.00973       0.00910
 --------------------------------------------------------
       Center         ----  Spin Dipole Couplings  ----
                      3XX-RR        3YY-RR        3ZZ-RR
 --------------------------------------------------------
     1   Atom        1.594083     -0.794433     -0.799650
     2   Atom       -0.010965      0.050587     -0.039623
     3   Atom        0.533175     -0.284362     -0.248814
     4   Atom        0.130544     -0.058135     -0.072409
     5   Atom        0.157501     -0.024555     -0.132946
     6   Atom        0.016112     -0.009757     -0.006355
     7   Atom        0.072302     -0.006371     -0.065931
     8   Atom        0.004523      0.006826     -0.011349
     9   Atom        0.000387     -0.000146     -0.000241
    10   Atom        0.001022     -0.000421     -0.000601
    11   Atom        0.001144     -0.000588     -0.000556
    12   Atom        0.001301     -0.000676     -0.000625
    13   Atom        0.000690     -0.000340     -0.000350
    14   Atom        0.001084     -0.000562     -0.000522
    15   Atom        0.001159     -0.000606     -0.000553
 --------------------------------------------------------
                        XY            XZ            YZ
 --------------------------------------------------------
     1   Atom       -0.141073      0.146505     -0.017587
     2   Atom        0.020426     -0.003817     -0.045087
     3   Atom       -0.062500      0.125973     -0.020082
     4   Atom        0.046807      0.070637      0.047969
     5   Atom       -0.174080     -0.048014      0.054367
     6   Atom       -0.009061      0.002527     -0.002544
     7   Atom       -0.013600      0.051359      0.009959
     8   Atom       -0.000229      0.003855      0.010653
     9   Atom        0.000042      0.000268     -0.000022
    10   Atom       -0.000067      0.000050      0.000113
    11   Atom        0.000209      0.000275     -0.000020
    12   Atom       -0.000200      0.000380      0.000039
    13   Atom       -0.000026     -0.000111      0.000003
    14   Atom        0.000214     -0.000386     -0.000024
    15   Atom       -0.000316     -0.000440      0.000012
 --------------------------------------------------------


 ---------------------------------------------------------------------------------
              Anisotropic Spin Dipole Couplings in Principal Axis System
 ---------------------------------------------------------------------------------

       Atom             a.u.   MegaHertz   Gauss  10(-4) cm-1        Axes

              Baa    -0.8151    58.980    21.046    19.674 -0.0148  0.5875  0.8091
     1 O(17)  Bbb    -0.7963    57.619    20.560    19.219  0.0835  0.8071 -0.5845
              Bcc     1.6114  -116.599   -41.605   -38.893  0.9964 -0.0589  0.0610
 
              Baa    -0.0587   -31.323   -11.177   -10.448 -0.0959  0.3949  0.9137
     2 H(1)   Bbb    -0.0154    -8.226    -2.935    -2.744  0.9678 -0.1777  0.1783
              Bcc     0.0741    39.549    14.112    13.192  0.2328  0.9014 -0.3651
 
              Baa    -0.2935   -39.380   -14.052   -13.136  0.0115  0.9236  0.3831
     3 C(13)  Bbb    -0.2645   -35.493   -12.665   -11.839 -0.1732 -0.3755  0.9105
              Bcc     0.5580    74.873    26.717    24.975  0.9848 -0.0768  0.1557
 
              Baa    -0.1167   -62.255   -22.214   -20.766 -0.1253 -0.5669  0.8142
     4 H(1)   Bbb    -0.0517   -27.570    -9.838    -9.196 -0.3892  0.7829  0.4853
              Bcc     0.1684    89.825    32.052    29.963  0.9126  0.2561  0.3188
 
              Baa    -0.1599   -21.459    -7.657    -7.158 -0.1882 -0.5648  0.8035
     5 C(13)  Bbb    -0.1148   -15.404    -5.497    -5.138  0.5113  0.6422  0.5711
              Bcc     0.2747    36.863    13.154    12.296  0.8386 -0.5183 -0.1679
 
              Baa    -0.0131    -1.751    -0.625    -0.584  0.2671  0.9300  0.2525
     6 C(13)  Bbb    -0.0063    -0.847    -0.302    -0.283 -0.1912 -0.2057  0.9598
              Bcc     0.0194     2.598     0.927     0.867  0.9445 -0.3046  0.1229
 
              Baa    -0.0853     6.174     2.203     2.059 -0.3186 -0.1724  0.9321
     7 O(17)  Bbb    -0.0050     0.360     0.128     0.120  0.0423  0.9797  0.1957
              Bcc     0.0903    -6.534    -2.331    -2.179  0.9470 -0.1018  0.3048
 
              Baa    -0.0169     1.221     0.436     0.407 -0.1663 -0.4057  0.8988
     8 O(17)  Bbb     0.0048    -0.351    -0.125    -0.117  0.9664 -0.2481  0.0668
              Bcc     0.0120    -0.870    -0.310    -0.290  0.1959  0.8797  0.4333
 
              Baa    -0.0003    -0.046    -0.017    -0.015 -0.3472  0.1750  0.9213
     9 C(13)  Bbb    -0.0001    -0.019    -0.007    -0.006  0.0135  0.9833 -0.1817
              Bcc     0.0005     0.065     0.023     0.022  0.9377  0.0506  0.3438
 
              Baa    -0.0007    -0.088    -0.032    -0.029 -0.0439 -0.4391  0.8973
    10 C(13)  Bbb    -0.0004    -0.049    -0.018    -0.016  0.0273  0.8974  0.4405
              Bcc     0.0010     0.138     0.049     0.046  0.9987 -0.0438  0.0274
 
              Baa    -0.0007    -0.351    -0.125    -0.117 -0.1842  0.7417  0.6450
    11 H(1)   Bbb    -0.0006    -0.295    -0.105    -0.098 -0.0401 -0.6613  0.7490
              Bcc     0.0012     0.646     0.230     0.215  0.9821  0.1121  0.1516
 
              Baa    -0.0008    -0.411    -0.147    -0.137 -0.1943 -0.6936  0.6937
    12 H(1)   Bbb    -0.0006    -0.331    -0.118    -0.110 -0.0632  0.7145  0.6968
              Bcc     0.0014     0.742     0.265     0.248  0.9789 -0.0915  0.1827
 
              Baa    -0.0004    -0.193    -0.069    -0.064  0.1038 -0.0298  0.9941
    13 H(1)   Bbb    -0.0003    -0.182    -0.065    -0.061  0.0276  0.9993  0.0271
              Bcc     0.0007     0.375     0.134     0.125  0.9942 -0.0247 -0.1046
 
              Baa    -0.0006    -0.333    -0.119    -0.111  0.2492 -0.5392  0.8045
    14 H(1)   Bbb    -0.0006    -0.306    -0.109    -0.102  0.0211  0.8335  0.5521
              Bcc     0.0012     0.639     0.228     0.213  0.9682  0.1206 -0.2191
 
              Baa    -0.0007    -0.384    -0.137    -0.128  0.2730  0.6907  0.6696
    15 H(1)   Bbb    -0.0006    -0.318    -0.113    -0.106  0.0501 -0.7053  0.7071
              Bcc     0.0013     0.702     0.250     0.234  0.9607 -0.1595 -0.2272
 

 ---------------------------------------------------------------------------------

 Calling FoFJK, ICntrl=    100127 FMM=F ISym2X=0 I1Cent= 0 IOpClX= 1 NMat=1 NMatS=1 NMatT=0.
 Full mass-weighted force constant matrix:
 Low frequencies --- -631.9283  -74.3346  -31.5445  -22.5491   -8.4721   -0.0009
 Low frequencies ---   -0.0008    0.0008    4.5198
 ******    4 imaginary frequencies (negative Signs) ****** 
 Diagonal vibrational polarizability:
      662.4413932     330.6516252     732.9478416
 Harmonic frequencies (cm**-1), IR intensities (KM/Mole), Raman scattering
 activities (A**4/AMU), depolarization ratios for plane and unpolarized
 incident light, reduced masses (AMU), force constants (mDyne/A),
 and normal coordinates:
                      1                      2                      3
                      A                      A                      A
 Frequencies --   -631.9282               -69.5720               -25.8004
 Red. masses --      1.0523                 1.1173                 7.6505
 Frc consts  --      0.2476                 0.0032                 0.0030
 IR Inten    --    104.9434                65.1182                 1.1437
  Atom  AN      X      Y      Z        X      Y      Z        X      Y      Z
     1   8     0.02   0.01   0.03     0.02  -0.00  -0.05    -0.15   0.38   0.10
     2   1    -0.04  -0.07  -0.13    -0.11   0.34   0.76    -0.38   0.27  -0.19
     3   6    -0.03   0.01   0.01     0.00  -0.01   0.01    -0.02  -0.42  -0.13
     4   1     0.80  -0.38  -0.44     0.07   0.28  -0.43     0.09  -0.05   0.08
     5   6    -0.03   0.01   0.01    -0.00  -0.04   0.03     0.03  -0.22  -0.08
     6   6    -0.01   0.00  -0.00     0.00  -0.02   0.01     0.06  -0.09  -0.01
     7   8    -0.01   0.00   0.00     0.01  -0.01  -0.01     0.17  -0.06   0.09
     8   8    -0.01  -0.00  -0.00    -0.01  -0.01   0.02    -0.05   0.00  -0.06
     9   6    -0.00  -0.00  -0.00    -0.00   0.00  -0.01    -0.03   0.14   0.01
    10   6    -0.00  -0.00   0.00    -0.02   0.04  -0.02     0.03   0.09   0.04
    11   1    -0.01  -0.00  -0.00    -0.01  -0.00   0.01    -0.13   0.23  -0.05
    12   1    -0.00  -0.00  -0.00     0.01  -0.01  -0.03     0.04   0.21   0.09
    13   1    -0.00   0.00   0.00    -0.02   0.05  -0.03     0.04   0.20   0.09
    14   1    -0.00  -0.00   0.00    -0.03   0.05   0.01    -0.04   0.02  -0.04
    15   1     0.00  -0.00  -0.00    -0.02   0.04  -0.03     0.13   0.01   0.10
                      4                      5                      6
                      A                      A                      A
 Frequencies --    -11.8149                80.3683               112.7559
 Red. masses --      5.3270                 4.1827                 4.3603
 Frc consts  --      0.0004                 0.0159                 0.0327
 IR Inten    --      6.0929                 6.0614                 0.4919
  Atom  AN      X      Y      Z        X      Y      Z        X      Y      Z
     1   8     0.10   0.10  -0.29     0.00  -0.02  -0.02    -0.08  -0.02  -0.01
     2   1    -0.07  -0.03  -0.62    -0.15   0.09   0.23    -0.09  -0.01   0.01
     3   6    -0.03  -0.11   0.35    -0.07  -0.11   0.27     0.01  -0.11  -0.14
     4   1    -0.03  -0.08   0.15    -0.04   0.03   0.02     0.01  -0.07  -0.14
     5   6    -0.01  -0.05   0.21    -0.03   0.01   0.02     0.05   0.05   0.03
     6   6     0.00  -0.02   0.09    -0.01   0.06  -0.12     0.06   0.09   0.05
     7   8     0.02  -0.01   0.03     0.02   0.08  -0.18     0.08   0.12  -0.15
     8   8     0.00  -0.01   0.04    -0.03   0.08  -0.13     0.04   0.05   0.25
     9   6     0.02   0.02  -0.10    -0.04   0.07   0.04     0.06   0.03   0.03
    10   6    -0.11   0.05  -0.16     0.14  -0.20   0.15    -0.19  -0.22  -0.06
    11   1     0.05   0.02  -0.12    -0.08   0.16  -0.07     0.17   0.11  -0.19
    12   1     0.09   0.01  -0.13    -0.12   0.18   0.23     0.14   0.13   0.15
    13   1    -0.10   0.07  -0.26     0.13  -0.17   0.33    -0.17  -0.15  -0.24
    14   1    -0.19   0.06  -0.12     0.23  -0.31  -0.06    -0.33  -0.34  -0.20
    15   1    -0.15   0.05  -0.14     0.22  -0.30   0.26    -0.24  -0.33   0.17
                      7                      8                      9
                      A                      A                      A
 Frequencies --    132.4370               208.0147               233.4761
 Red. masses --      3.7019                 2.6905                 1.6174
 Frc consts  --      0.0383                 0.0686                 0.0519
 IR Inten    --      2.7122                54.1412                12.6811
  Atom  AN      X      Y      Z        X      Y      Z        X      Y      Z
     1   8     0.20   0.03   0.04     0.22   0.01   0.03     0.08  -0.00   0.01
     2   1     0.30  -0.01  -0.06     0.09   0.06   0.16    -0.01   0.04   0.10
     3   6     0.08   0.21   0.00    -0.05  -0.16   0.00    -0.05  -0.10   0.01
     4   1     0.08   0.12   0.19     0.09   0.06   0.27     0.02   0.01   0.11
     5   6    -0.02  -0.15  -0.05    -0.00   0.04  -0.16     0.01   0.09  -0.09
     6   6    -0.02  -0.11  -0.03    -0.02   0.05  -0.04    -0.02   0.03  -0.02
     7   8     0.09  -0.07  -0.05    -0.01   0.05   0.05    -0.09  -0.00   0.03
     8   8    -0.13  -0.03   0.02    -0.03   0.05   0.01     0.03  -0.02   0.02
     9   6    -0.11   0.14   0.02    -0.05  -0.04   0.03     0.03  -0.03   0.01
    10   6    -0.13  -0.04   0.03    -0.10  -0.02   0.00     0.01   0.03  -0.01
    11   1    -0.20   0.29  -0.15     0.02  -0.10   0.07     0.02  -0.03   0.02
    12   1     0.01   0.27   0.19    -0.12  -0.09  -0.03     0.04  -0.04  -0.01
    13   1    -0.10   0.22   0.02    -0.15  -0.50  -0.03     0.07   0.61  -0.06
    14   1    -0.35  -0.22  -0.16     0.27   0.18   0.17    -0.49  -0.17  -0.13
    15   1     0.05  -0.25   0.24    -0.47   0.24  -0.16     0.41  -0.25   0.16
                     10                     11                     12
                      A                      A                      A
 Frequencies --    256.5975               333.6262               420.7829
 Red. masses --      8.2951                 2.8518                 3.9249
 Frc consts  --      0.3218                 0.1870                 0.4094
 IR Inten    --     28.6774                 9.9971                 6.2635
  Atom  AN      X      Y      Z        X      Y      Z        X      Y      Z
     1   8     0.25   0.02   0.04     0.01  -0.00  -0.00     0.02   0.00  -0.00
     2   1     0.31  -0.01  -0.02    -0.02   0.01   0.03    -0.08   0.02   0.04
     3   6    -0.10  -0.14  -0.38    -0.01  -0.04   0.01    -0.10   0.05   0.01
     4   1     0.05   0.13   0.31     0.00  -0.01   0.01    -0.02  -0.01   0.14
     5   6    -0.11  -0.03   0.53     0.03   0.10  -0.04    -0.13  -0.12  -0.13
     6   6    -0.09   0.02   0.12    -0.01  -0.06   0.01    -0.08   0.02   0.07
     7   8    -0.11   0.04  -0.13    -0.18  -0.12  -0.04     0.06   0.08   0.03
     8   8    -0.03   0.03  -0.08     0.03  -0.10   0.08    -0.08   0.01   0.24
     9   6    -0.04   0.01  -0.07     0.08   0.22  -0.02    -0.01  -0.03  -0.17
    10   6     0.13  -0.00   0.00     0.06   0.02  -0.02     0.22  -0.03  -0.11
    11   1    -0.05   0.00  -0.04    -0.07   0.43  -0.25     0.06  -0.05  -0.17
    12   1    -0.08   0.01  -0.06     0.34   0.40   0.19     0.08  -0.03  -0.20
    13   1     0.12   0.05   0.18     0.02  -0.32   0.03     0.19   0.01   0.31
    14   1     0.18  -0.03  -0.06     0.36   0.05  -0.07     0.45  -0.04  -0.22
    15   1     0.24  -0.04  -0.02    -0.18   0.11   0.02     0.46  -0.06  -0.23
                     13                     14                     15
                      A                      A                      A
 Frequencies --    473.0363               553.2320               596.5359
 Red. masses --      1.0757                 6.1964                 6.5687
 Frc consts  --      0.1418                 1.1174                 1.3772
 IR Inten    --    168.8787                14.2674                51.7583
  Atom  AN      X      Y      Z        X      Y      Z        X      Y      Z
     1   8    -0.03   0.01   0.02    -0.02  -0.01  -0.01    -0.01   0.00   0.01
     2   1     0.78  -0.11  -0.19    -0.05   0.01   0.04    -0.17  -0.01  -0.05
     3   6    -0.01  -0.05   0.03     0.08  -0.07   0.00     0.36  -0.06   0.03
     4   1    -0.05   0.40  -0.41     0.01  -0.04  -0.05     0.09  -0.20  -0.14
     5   6     0.00  -0.00  -0.02     0.20   0.46   0.06     0.27  -0.22  -0.02
     6   6    -0.00   0.01   0.00     0.01  -0.13   0.02     0.07   0.09   0.06
     7   8    -0.01   0.00   0.00     0.18  -0.07   0.00    -0.31  -0.02  -0.04
     8   8    -0.01   0.01   0.01    -0.17  -0.07   0.05    -0.08   0.20   0.07
     9   6    -0.00  -0.00  -0.01    -0.27  -0.03  -0.13    -0.17   0.01  -0.08
    10   6     0.01  -0.00  -0.00     0.00  -0.01  -0.01    -0.00  -0.01  -0.01
    11   1     0.00  -0.01  -0.01    -0.22  -0.08  -0.08     0.06  -0.20   0.09
    12   1    -0.01  -0.00  -0.01    -0.23  -0.05  -0.17    -0.34  -0.13  -0.25
    13   1     0.01   0.00   0.02    -0.03   0.04   0.46    -0.02   0.04   0.32
    14   1     0.02  -0.01  -0.01     0.25  -0.02  -0.11     0.15  -0.06  -0.14
    15   1     0.02  -0.01  -0.01     0.28  -0.04  -0.17     0.20  -0.08  -0.05
                     16                     17                     18
                      A                      A                      A
 Frequencies --    772.0458               798.6204               894.2746
 Red. masses --     10.2140                 1.2106                 3.0756
 Frc consts  --      3.5870                 0.4549                 1.4492
 IR Inten    --     17.0839                 4.7722                 7.2013
  Atom  AN      X      Y      Z        X      Y      Z        X      Y      Z
     1   8     0.00  -0.00   0.00    -0.00  -0.00  -0.00    -0.00  -0.00  -0.00
     2   1     0.02   0.01   0.02     0.01   0.00   0.00     0.01   0.00   0.01
     3   6    -0.03  -0.00   0.03    -0.03   0.01  -0.00    -0.04   0.00  -0.00
     4   1     0.03  -0.01  -0.01    -0.00   0.01   0.02    -0.00   0.01   0.02
     5   6     0.01   0.05  -0.27    -0.02   0.02   0.01    -0.01   0.05   0.01
     6   6    -0.07  -0.13   0.78     0.02  -0.03  -0.04     0.03  -0.10  -0.02
     7   8     0.03   0.02  -0.23     0.01  -0.05   0.00     0.01  -0.15  -0.02
     8   8     0.01   0.03  -0.21    -0.01   0.03   0.02    -0.14   0.22   0.04
     9   6     0.04   0.03   0.01     0.03   0.08   0.01     0.08  -0.02   0.10
    10   6     0.01   0.01   0.02     0.02   0.03  -0.01     0.13  -0.07  -0.09
    11   1     0.01  -0.09   0.21     0.06  -0.23   0.47     0.21  -0.01  -0.00
    12   1    -0.11  -0.09  -0.13    -0.08  -0.24  -0.44    -0.25   0.06   0.30
    13   1     0.02  -0.05  -0.16    -0.00  -0.18  -0.06     0.19   0.09  -0.60
    14   1    -0.08  -0.07  -0.06     0.08  -0.21  -0.39    -0.22   0.10   0.28
    15   1    -0.15  -0.03   0.20    -0.15  -0.15   0.41    -0.03   0.13  -0.29
                     19                     20                     21
                      A                      A                      A
 Frequencies --    931.4940              1076.4334              1127.6016
 Red. masses --      2.9258                 4.1897                 2.0863
 Frc consts  --      1.4958                 2.8603                 1.5629
 IR Inten    --      2.8403                23.6838                27.1757
  Atom  AN      X      Y      Z        X      Y      Z        X      Y      Z
     1   8     0.00  -0.00  -0.00    -0.00  -0.00   0.00     0.00   0.00   0.00
     2   1     0.03   0.00   0.02    -0.02  -0.00  -0.01    -0.00   0.00  -0.00
     3   6    -0.13   0.03  -0.01     0.08  -0.02   0.00     0.02  -0.00   0.00
     4   1     0.00   0.03   0.05    -0.01  -0.02  -0.03    -0.00  -0.01  -0.00
     5   6    -0.08   0.01  -0.01     0.05   0.02   0.01     0.01   0.01   0.00
     6   6     0.14  -0.06   0.01    -0.15  -0.03  -0.03    -0.03  -0.00   0.00
     7   8    -0.00  -0.15  -0.02     0.01   0.02   0.01     0.00   0.01  -0.00
     8   8     0.14   0.15   0.02    -0.22   0.04  -0.02    -0.06   0.01  -0.05
     9   6    -0.01   0.02  -0.10     0.33  -0.06  -0.18     0.10  -0.03   0.21
    10   6    -0.15  -0.01   0.09    -0.08   0.02   0.19    -0.10   0.02  -0.16
    11   1     0.39  -0.08  -0.23     0.34  -0.01  -0.29     0.07   0.04   0.13
    12   1    -0.04  -0.00  -0.11     0.43  -0.10  -0.27     0.20  -0.03   0.19
    13   1    -0.18   0.14   0.66    -0.09   0.01   0.29    -0.14   0.01   0.48
    14   1     0.13   0.09   0.14    -0.07   0.05   0.25     0.43   0.00  -0.37
    15   1     0.24  -0.02  -0.17    -0.09  -0.03   0.30     0.39  -0.15  -0.24
                     22                     23                     24
                      A                      A                      A
 Frequencies --   1202.8156              1286.4822              1347.4792
 Red. masses --      1.7781                 4.1529                 1.2153
 Frc consts  --      1.5156                 4.0496                 1.3001
 IR Inten    --      6.0352               805.0116               110.7402
  Atom  AN      X      Y      Z        X      Y      Z        X      Y      Z
     1   8     0.00  -0.00   0.00     0.00   0.00  -0.00    -0.00  -0.00   0.00
     2   1    -0.01  -0.00  -0.00     0.05   0.02   0.03    -0.01  -0.00  -0.01
     3   6     0.02  -0.01   0.00    -0.10   0.02  -0.01     0.01  -0.00   0.00
     4   1    -0.00  -0.00  -0.01     0.01  -0.03   0.06    -0.00   0.01  -0.01
     5   6     0.01  -0.00   0.00    -0.02  -0.00  -0.00     0.00   0.00   0.00
     6   6    -0.06  -0.01  -0.01     0.40   0.16   0.06    -0.05  -0.03  -0.01
     7   8     0.00   0.04   0.01    -0.05  -0.00  -0.00     0.01  -0.02  -0.00
     8   8     0.00  -0.08  -0.01    -0.19  -0.10  -0.02     0.04   0.08   0.00
     9   6     0.04   0.19   0.01     0.11  -0.01  -0.04    -0.03  -0.00   0.01
    10   6    -0.03  -0.14  -0.01    -0.02  -0.06  -0.01    -0.00  -0.06   0.01
    11   1     0.30  -0.14   0.36    -0.70   0.13   0.29    -0.53   0.08   0.23
    12   1    -0.27  -0.10  -0.34     0.02  -0.09  -0.16     0.70  -0.07  -0.28
    13   1     0.02   0.29   0.04    -0.01   0.11   0.07     0.01   0.06  -0.04
    14   1    -0.02   0.14   0.40    -0.01   0.10   0.24    -0.03   0.01   0.12
    15   1     0.12   0.08  -0.46     0.02  -0.02  -0.10     0.03   0.04  -0.18
                     25                     26                     27
                      A                      A                      A
 Frequencies --   1401.3840              1420.6606              1431.0241
 Red. masses --      1.2729                 1.1087                 1.3794
 Frc consts  --      1.4729                 1.3184                 1.6643
 IR Inten    --     36.9760                39.9361                 8.0104
  Atom  AN      X      Y      Z        X      Y      Z        X      Y      Z
     1   8     0.00  -0.00   0.00    -0.06   0.02  -0.05     0.00  -0.00   0.00
     2   1    -0.03  -0.01  -0.02     0.60   0.15   0.40    -0.04  -0.01  -0.03
     3   6     0.01  -0.00   0.00     0.01   0.00   0.00    -0.01   0.00  -0.00
     4   1    -0.01   0.02  -0.02     0.16  -0.50   0.43    -0.01   0.04  -0.03
     5   6     0.00   0.00   0.00     0.01  -0.00   0.00    -0.00  -0.00   0.00
     6   6    -0.05  -0.01  -0.01    -0.01  -0.00  -0.00     0.06   0.01   0.01
     7   8     0.01  -0.01  -0.00    -0.00   0.00   0.00    -0.01   0.01   0.00
     8   8     0.04   0.02   0.02     0.00   0.00  -0.00    -0.04  -0.02  -0.02
     9   6     0.04  -0.01  -0.04    -0.01   0.00   0.00    -0.09   0.01   0.09
    10   6     0.03  -0.01  -0.12     0.01  -0.00  -0.01     0.08  -0.01  -0.07
    11   1    -0.33   0.00   0.23     0.02  -0.00  -0.01     0.47  -0.01  -0.29
    12   1    -0.25   0.10   0.21     0.03  -0.00  -0.01     0.45  -0.14  -0.28
    13   1    -0.03   0.01   0.53     0.00  -0.00   0.04     0.04  -0.03   0.32
    14   1    -0.22   0.22   0.34    -0.03   0.01   0.02    -0.32   0.05   0.17
    15   1    -0.25  -0.15   0.34    -0.03  -0.00   0.02    -0.29   0.02   0.16
                     28                     29                     30
                      A                      A                      A
 Frequencies --   1492.7131              1501.6134              1514.0585
 Red. masses --      1.0412                 1.0672                 1.0787
 Frc consts  --      1.3669                 1.4178                 1.4569
 IR Inten    --     11.5045                 4.3860                19.5311
  Atom  AN      X      Y      Z        X      Y      Z        X      Y      Z
     1   8    -0.00   0.00  -0.00     0.00  -0.00   0.00    -0.00   0.00  -0.00
     2   1     0.00   0.00   0.00    -0.00  -0.00  -0.00     0.00   0.00   0.00
     3   6     0.00   0.00   0.00    -0.00   0.00  -0.00     0.00  -0.00   0.00
     4   1     0.00  -0.00   0.00    -0.00   0.00   0.00     0.00  -0.00   0.00
     5   6    -0.00  -0.00  -0.00     0.00  -0.00   0.00     0.00   0.00  -0.00
     6   6    -0.00   0.00  -0.00     0.02  -0.00   0.00    -0.02   0.00  -0.00
     7   8     0.00  -0.01  -0.00    -0.00   0.01   0.00     0.01  -0.01  -0.00
     8   8     0.00   0.00   0.00    -0.02  -0.01  -0.01     0.02   0.01   0.01
     9   6    -0.01  -0.02   0.01    -0.01  -0.01  -0.06     0.05  -0.01   0.04
    10   6    -0.01  -0.04  -0.01     0.02  -0.02   0.02     0.03  -0.01   0.02
    11   1     0.00   0.06  -0.13     0.17  -0.35   0.38    -0.23   0.28  -0.23
    12   1    -0.00  -0.05  -0.04     0.25   0.32   0.39    -0.30  -0.22  -0.20
    13   1     0.07   0.64  -0.13     0.02   0.22   0.17     0.01   0.14   0.28
    14   1     0.56   0.11   0.01    -0.06  -0.20  -0.25    -0.20  -0.28  -0.33
    15   1    -0.36  -0.04   0.28    -0.31   0.26  -0.19    -0.32   0.34  -0.30
                     31                     32                     33
                      A                      A                      A
 Frequencies --   1839.0617              2228.3941              2634.2975
 Red. masses --     12.1452                 8.7852                 1.1160
 Frc consts  --     24.2019                25.7032                 4.5630
 IR Inten    --    336.1603               165.8577               578.2506
  Atom  AN      X      Y      Z        X      Y      Z        X      Y      Z
     1   8    -0.00   0.00  -0.00    -0.03  -0.01  -0.01    -0.05  -0.03  -0.03
     2   1     0.02   0.00   0.01    -0.01  -0.05  -0.01    -0.06  -0.08  -0.00
     3   6     0.06  -0.01   0.00    -0.50   0.13  -0.02     0.05  -0.01  -0.00
     4   1    -0.01  -0.03  -0.01     0.31   0.35   0.26     0.60   0.63   0.48
     5   6    -0.02  -0.00  -0.00     0.63  -0.16   0.03    -0.03   0.01  -0.00
     6   6    -0.26   0.74   0.08    -0.11   0.03  -0.01     0.01   0.00   0.00
     7   8     0.18  -0.49  -0.05     0.00  -0.00   0.00    -0.00   0.00  -0.00
     8   8    -0.01  -0.07  -0.01    -0.01  -0.00  -0.00    -0.00  -0.00  -0.00
     9   6    -0.03   0.02   0.00     0.00   0.00  -0.00     0.00  -0.00  -0.00
    10   6     0.01  -0.00   0.01    -0.00   0.00   0.00    -0.00  -0.00  -0.00
    11   1     0.18  -0.11   0.06     0.00   0.00   0.00    -0.00   0.00   0.00
    12   1     0.14   0.09   0.03    -0.00  -0.00   0.00    -0.00   0.00   0.00
    13   1     0.01  -0.04  -0.06     0.00  -0.00   0.00     0.00  -0.00   0.00
    14   1    -0.04  -0.01   0.00     0.00   0.00  -0.00     0.00   0.00  -0.00
    15   1     0.05   0.02  -0.05     0.00   0.00  -0.00     0.00  -0.00  -0.00
                     34                     35                     36
                      A                      A                      A
 Frequencies --   3076.1385              3108.5349              3151.7518
 Red. masses --      1.0354                 1.0608                 1.1014
 Frc consts  --      5.7723                 6.0396                 6.4463
 IR Inten    --     10.1953                18.1835                15.2403
  Atom  AN      X      Y      Z        X      Y      Z        X      Y      Z
     1   8     0.00   0.00   0.00    -0.00  -0.00  -0.00     0.00   0.00   0.00
     2   1     0.00  -0.00   0.00    -0.00   0.00  -0.00     0.00  -0.00   0.00
     3   6     0.00   0.00   0.00    -0.00   0.00  -0.00     0.00  -0.00   0.00
     4   1    -0.00  -0.00  -0.00     0.00   0.00   0.00    -0.00  -0.00  -0.00
     5   6    -0.00   0.00  -0.00     0.00  -0.00   0.00    -0.00   0.00  -0.00
     6   6     0.00   0.00   0.00    -0.00  -0.00  -0.00     0.00   0.00  -0.00
     7   8     0.00  -0.00  -0.00    -0.00   0.00  -0.00     0.00  -0.00  -0.00
     8   8    -0.00  -0.00  -0.00     0.00   0.00  -0.00     0.00  -0.00   0.00
     9   6    -0.00   0.00  -0.00     0.03  -0.02   0.06    -0.01  -0.02  -0.01
    10   6    -0.03  -0.00   0.04    -0.01   0.00  -0.01    -0.06   0.05  -0.03
    11   1     0.00   0.01   0.01    -0.19  -0.44  -0.26     0.11   0.24   0.15
    12   1     0.00  -0.02   0.02    -0.11   0.69  -0.44    -0.01   0.02  -0.02
    13   1     0.61  -0.06   0.06     0.13  -0.01   0.02     0.65  -0.06   0.05
    14   1    -0.12   0.49  -0.31     0.01  -0.06   0.03     0.12  -0.57   0.37
    15   1    -0.19  -0.42  -0.24     0.01   0.02   0.01    -0.02   0.00  -0.01
                     37                     38                     39
                      A                      A                      A
 Frequencies --   3155.5172              3176.3386              3868.3239
 Red. masses --      1.1049                 1.1074                 1.0671
 Frc consts  --      6.4818                 6.5827                 9.4080
 IR Inten    --      1.9186                14.6375               151.3936
  Atom  AN      X      Y      Z        X      Y      Z        X      Y      Z
     1   8     0.00   0.00   0.00     0.00   0.00   0.00    -0.01  -0.06   0.02
     2   1     0.00  -0.00   0.00     0.00  -0.00   0.00     0.05   0.92  -0.37
     3   6     0.00  -0.00   0.00    -0.00   0.00   0.00    -0.00  -0.00  -0.00
     4   1    -0.00  -0.00  -0.00    -0.00  -0.00  -0.00     0.05   0.01   0.03
     5   6    -0.00   0.00  -0.00     0.00   0.00   0.00     0.00   0.00   0.00
     6   6    -0.00   0.00  -0.00     0.00  -0.00  -0.00    -0.00   0.00  -0.00
     7   8     0.00  -0.00   0.00    -0.00   0.00   0.00     0.00  -0.00   0.00
     8   8     0.00  -0.00  -0.00    -0.00   0.00   0.00     0.00   0.00   0.00
     9   6     0.01   0.05   0.00    -0.01  -0.07  -0.01    -0.00   0.00  -0.00
    10   6    -0.05  -0.05  -0.02    -0.02  -0.06  -0.00     0.00  -0.00   0.00
    11   1    -0.16  -0.35  -0.21     0.23   0.52   0.32     0.00   0.00   0.00
    12   1     0.05  -0.29   0.20    -0.06   0.35  -0.24     0.00  -0.00   0.00
    13   1     0.40  -0.05   0.03     0.08  -0.02   0.01     0.00  -0.00  -0.00
    14   1    -0.04   0.14  -0.10    -0.07   0.29  -0.20    -0.00   0.00  -0.00
    15   1     0.25   0.56   0.33     0.18   0.40   0.24    -0.00   0.00   0.00

 -------------------
 - Thermochemistry -
 -------------------
 Temperature   298.150 Kelvin.  Pressure   1.00000 Atm.
 Atom     1 has atomic number  8 and mass  15.99491
 Atom     2 has atomic number  1 and mass   1.00783
 Atom     3 has atomic number  6 and mass  12.00000
 Atom     4 has atomic number  1 and mass   1.00783
 Atom     5 has atomic number  6 and mass  12.00000
 Atom     6 has atomic number  6 and mass  12.00000
 Atom     7 has atomic number  8 and mass  15.99491
 Atom     8 has atomic number  8 and mass  15.99491
 Atom     9 has atomic number  6 and mass  12.00000
 Atom    10 has atomic number  6 and mass  12.00000
 Atom    11 has atomic number  1 and mass   1.00783
 Atom    12 has atomic number  1 and mass   1.00783
 Atom    13 has atomic number  1 and mass   1.00783
 Atom    14 has atomic number  1 and mass   1.00783
 Atom    15 has atomic number  1 and mass   1.00783
 Molecular mass:   115.03952 amu.
 Principal axes and moments of inertia in atomic units:
                           1         2         3
     Eigenvalues --   287.324042622.355472735.01037
           X            0.99993   0.00809  -0.00872
           Y           -0.00817   0.99993  -0.00874
           Z            0.00864   0.00881   0.99992
 This molecule is an asymmetric top.
 Rotational symmetry number  1.
 Rotational temperatures (Kelvin)      0.30145     0.03303     0.03167
 Rotational constants (GHZ):           6.28120     0.68821     0.65987
    4 imaginary frequencies ignored.
 Zero-point vibrational energy     286134.3 (Joules/Mol)
                                   68.38774 (Kcal/Mol)
 Warning -- explicit consideration of  11 degrees of freedom as
           vibrations may cause significant error
 Vibrational temperatures:    115.63   162.23   190.55   299.29   335.92
          (Kelvin)            369.19   480.01   605.41   680.59   795.98
                              858.28  1110.80  1149.04  1286.66  1340.21
                             1548.75  1622.37  1730.58  1850.96  1938.72
                             2016.28  2044.01  2058.92  2147.68  2160.49
                             2178.39  2646.00  3206.16  3790.17  4425.88
                             4472.49  4534.67  4540.09  4570.04  5565.66
 
 Zero-point correction=                           0.108983 (Hartree/Particle)
 Thermal correction to Energy=                    0.117165
 Thermal correction to Enthalpy=                  0.118110
 Thermal correction to Gibbs Free Energy=         0.074825
 Sum of electronic and zero-point Energies=           -420.065971
 Sum of electronic and thermal Energies=              -420.057788
 Sum of electronic and thermal Enthalpies=            -420.056844
 Sum of electronic and thermal Free Energies=         -420.100129
 
                     E (Thermal)             CV                S
                      KCal/Mol        Cal/Mol-Kelvin    Cal/Mol-Kelvin
 Total                   73.522             27.578             91.101
 Electronic               0.000              0.000              1.377
 Translational            0.889              2.981             40.136
 Rotational               0.889              2.981             29.112
 Vibrational             71.745             21.617             20.476
 Vibration     1          0.600              1.962              3.882
 Vibration     2          0.607              1.939              3.221
 Vibration     3          0.613              1.921              2.910
 Vibration     4          0.641              1.828              2.061
 Vibration     5          0.654              1.790              1.852
 Vibration     6          0.666              1.752              1.685
 Vibration     7          0.715              1.608              1.242
 Vibration     8          0.783              1.425              0.889
 Vibration     9          0.830              1.310              0.729
 Vibration    10          0.909              1.133              0.538
 Vibration    11          0.954              1.039              0.456
                       Q            Log10(Q)             Ln(Q)
 Total Bot       0.382851D-34        -34.416970        -79.248003
 Total V=0       0.514749D+16         15.711595         36.177285
 Vib (Bot)       0.768101D-48        -48.114582       -110.787918
 Vib (Bot)    1  0.256235D+01          0.408638          0.940925
 Vib (Bot)    2  0.181534D+01          0.258958          0.596272
 Vib (Bot)    3  0.153839D+01          0.187066          0.430735
 Vib (Bot)    4  0.955573D+00         -0.019736         -0.045444
 Vib (Bot)    5  0.842299D+00         -0.074534         -0.171620
 Vib (Bot)    6  0.758210D+00         -0.120211         -0.276795
 Vib (Bot)    7  0.558792D+00         -0.252749         -0.581977
 Vib (Bot)    8  0.417042D+00         -0.379821         -0.874569
 Vib (Bot)    9  0.355664D+00         -0.448960         -1.033769
 Vib (Bot)   10  0.282784D+00         -0.548546         -1.263073
 Vib (Bot)   11  0.251202D+00         -0.599976         -1.381496
 Vib (V=0)       0.103272D+03          2.013984          4.637370
 Vib (V=0)    1  0.311068D+01          0.492855          1.134840
 Vib (V=0)    2  0.238294D+01          0.377113          0.868334
 Vib (V=0)    3  0.211760D+01          0.325844          0.750285
 Vib (V=0)    4  0.157848D+01          0.198239          0.456463
 Vib (V=0)    5  0.147952D+01          0.170122          0.391721
 Vib (V=0)    6  0.140823D+01          0.148674          0.342334
 Vib (V=0)    7  0.124983D+01          0.096852          0.223010
 Vib (V=0)    8  0.115109D+01          0.061111          0.140713
 Vib (V=0)    9  0.111359D+01          0.046727          0.107592
 Vib (V=0)   10  0.107443D+01          0.031177          0.071788
 Vib (V=0)   11  0.105956D+01          0.025124          0.057850
 Electronic      0.200000D+01          0.301030          0.693147
 Translational   0.484981D+08          7.685724         17.697035
 Rotational      0.513874D+06          5.710857         13.149734
 ***** Axes restored to original set *****
 -------------------------------------------------------------------
 Center     Atomic                   Forces (Hartrees/Bohr)
 Number     Number              X              Y              Z
 -------------------------------------------------------------------
      1        8           0.002004332    0.000776663    0.001950821
      2        1          -0.000239839   -0.000283962   -0.000507218
      3        6          -0.002182995    0.000417715    0.000532509
      4        1           0.003606716   -0.001892199   -0.001939302
      5        6          -0.001614849    0.000841234    0.000301962
      6        6          -0.000723881    0.000069767   -0.000263937
      7        8          -0.000284880    0.000191533    0.000032155
      8        8          -0.000337868   -0.000061780   -0.000090542
      9        6          -0.000166665   -0.000054987   -0.000027486
     10        6          -0.000025809    0.000000935    0.000009654
     11        1          -0.000019213   -0.000003305    0.000000131
     12        1          -0.000012200   -0.000004004   -0.000003067
     13        1          -0.000002392    0.000000895    0.000005200
     14        1          -0.000000874    0.000000455    0.000001187
     15        1           0.000000418    0.000001039   -0.000002067
 -------------------------------------------------------------------
 Cartesian Forces:  Max     0.003606716 RMS     0.000927098

 GradGradGradGradGradGradGradGradGradGradGradGradGradGradGradGradGradGrad
 Berny optimization.
 Search for a local minimum.
 Step number   1 out of a maximum of    2
 All quantities printed in internal units (Hartrees-Bohrs-Radians)
 Second derivative matrix not updated -- analytic derivatives used.
 ITU=  0
     Eigenvalues ---   -0.01861  -0.00038  -0.00023  -0.00003   0.00157
     Eigenvalues ---    0.00180   0.00307   0.00441   0.01156   0.01473
     Eigenvalues ---    0.02236   0.02542   0.03310   0.03717   0.06232
     Eigenvalues ---    0.07401   0.08015   0.08900   0.10300   0.11504
     Eigenvalues ---    0.12585   0.14177   0.17016   0.17871   0.20650
     Eigenvalues ---    0.28612   0.30632   0.48010   0.49405   0.55203
     Eigenvalues ---    0.64745   0.76718   0.79111   0.86309   0.87882
     Eigenvalues ---    0.93335   0.98134   1.72281   2.29001
 Eigenvalue     1 is  -1.86D-02 should be greater than     0.000000 Eigenvector:
                          X4        Y4        Z4        Z1        Z2
   1                    0.83188  -0.34324  -0.31866   0.10874  -0.10655
                          X3        Z3        X5        Y2        X7
   1                   -0.09884   0.09534  -0.08929  -0.08137  -0.07445
 Eigenvalue     2 is  -3.76D-04 should be greater than     0.000000 Eigenvector:
                          Z4        Z1        Z2        Z3        Y2
   1                    0.44569   0.39429  -0.37688  -0.32216  -0.22891
                          Y4        Z5        Z13       X1        X14
   1                   -0.22640  -0.22503   0.18825  -0.17256   0.14572
 Eigenvalue     3 is  -2.29D-04 should be greater than     0.000000 Eigenvector:
                          Y3        X2        Y1        Y2        Y5
   1                    0.44971   0.40687  -0.38500  -0.37582   0.26599
                          Y13       X7        Y11       Y12       Y6
   1                   -0.18809  -0.18108  -0.16448  -0.14499   0.13609
 Eigenvalue     4 is  -2.86D-05 should be greater than     0.000000 Eigenvector:
                          Z2        Z3        Z1        Z4        Z5
   1                    0.70603  -0.34398   0.25096  -0.23343  -0.21440
                          Z13       X14       Y1        Z6        X15
   1                    0.19172   0.14349  -0.13112  -0.12018   0.11398
 Quadratic step=3.423D-01 exceeds max=3.000D-01 adjusted using Lamda=-1.119D-04.
 Angle between NR and scaled steps=  19.83 degrees.
 Angle between quadratic step and forces=  33.36 degrees.
 Linear search not attempted -- first point.
 B after Tr=    -0.010016    0.002246    0.001967
         Rot=    0.999999    0.000918    0.000642   -0.000383 Ang=   0.14 deg.
 Variable       Old X    -DE/DX   Delta X   Delta X   Delta X     New X
                                 (Linear)    (Quad)   (Total)
    X1        8.50183   0.00200   0.00000   0.03591   0.02539   8.52722
    Y1       -0.50427   0.00078   0.00000   0.02998   0.04000  -0.46426
    Z1        0.63452   0.00195   0.00000   0.03709   0.05089   0.68542
    X2        8.56748  -0.00024   0.00000  -0.01759  -0.02844   8.53904
    Y2        1.18031  -0.00028   0.00000   0.01219   0.02087   1.20118
    Z2       -0.06553  -0.00051   0.00000   0.00095   0.01171  -0.05382
    X3        4.14752  -0.00218   0.00000  -0.04675  -0.05616   4.09136
    Y3       -0.61057   0.00042   0.00000  -0.03035  -0.02514  -0.63572
    Z3       -0.11985   0.00053   0.00000   0.02018   0.02859  -0.09126
    X4        6.95489   0.00361   0.00000   0.25211   0.24344   7.19833
    Y4       -1.31161  -0.00189   0.00000  -0.08340  -0.07605  -1.38765
    Z4       -0.15871  -0.00194   0.00000  -0.06719  -0.05340  -0.21211
    X5        1.96076  -0.00161   0.00000  -0.03496  -0.04477   1.91599
    Y5        0.02939   0.00084   0.00000   0.00191   0.00529   0.03468
    Z5       -0.17576   0.00030   0.00000  -0.00596  -0.00158  -0.17734
    X6       -0.69465  -0.00072   0.00000  -0.02420  -0.03432  -0.72897
    Y6        0.73684   0.00007   0.00000  -0.00055   0.00049   0.73733
    Z6       -0.33640  -0.00026   0.00000  -0.01757  -0.01787  -0.35427
    X7       -1.42155  -0.00028   0.00000  -0.01580  -0.02788  -1.44943
    Y7        2.87006   0.00019   0.00000   0.00051   0.00146   2.87152
    Z7       -0.09569   0.00003   0.00000  -0.00490  -0.01005  -0.10573
    X8       -2.14490  -0.00034   0.00000  -0.01772  -0.02573  -2.17063
    Y8       -1.26678  -0.00006   0.00000  -0.00002  -0.00090  -1.26769
    Z8       -0.77963  -0.00009   0.00000  -0.02547  -0.02395  -0.80359
    X9       -4.82612  -0.00017   0.00000  -0.01461  -0.02280  -4.84893
    Y9       -0.79336  -0.00005   0.00000   0.00632   0.00312  -0.79023
    Z9       -0.94061  -0.00003   0.00000  -0.00273  -0.00553  -0.94614
   X10       -5.98702  -0.00003   0.00000   0.01337   0.00163  -5.98539
   Y10       -0.56194   0.00000   0.00000   0.00310   0.00384  -0.55810
   Z10        1.66784   0.00001   0.00000   0.00939   0.00471   1.67255
   X11       -5.55720  -0.00002   0.00000  -0.02562  -0.03127  -5.58847
   Y11       -2.42360  -0.00000   0.00000   0.01219   0.00656  -2.41703
   Z11       -1.95931   0.00000   0.00000  -0.00271  -0.00348  -1.96279
   X12       -5.12822  -0.00001   0.00000  -0.01283  -0.02091  -5.14913
   Y12        0.91127  -0.00000   0.00000   0.01232   0.00685   0.91812
   Z12       -2.05870  -0.00000   0.00000   0.00634   0.00002  -2.05868
   X13       -8.03147  -0.00000   0.00000   0.01340   0.00168  -8.02978
   Y13       -0.34712   0.00000   0.00000   0.01448   0.01338  -0.33375
   Z13        1.49526   0.00001   0.00000   0.02764   0.01992   1.51518
   X14       -5.59928  -0.00000   0.00000   0.01564   0.00378  -5.59550
   Y14       -2.25382   0.00000   0.00000  -0.00240   0.00067  -2.25315
   Z14        2.78010   0.00000   0.00000   0.00006  -0.00101   2.77909
   X15       -5.24187   0.00000   0.00000   0.03062   0.01636  -5.22551
   Y15        1.08585   0.00000   0.00000  -0.00359  -0.00046   1.08539
   Z15        2.65433  -0.00000   0.00000   0.00775   0.00103   2.65536
         Item               Value     Threshold  Converged?
 Maximum Force            0.003607     0.000450     NO 
 RMS     Force            0.000927     0.000300     NO 
 Maximum Displacement     0.243441     0.001800     NO 
 RMS     Displacement     0.044058     0.001200     NO 
 Predicted change in Energy=-2.264889D-03
 GradGradGradGradGradGradGradGradGradGradGradGradGradGradGradGradGradGrad


 ----------------------------------------------------------------------

 Electric dipole moment (input orientation):
 (Debye = 10**-18 statcoulomb cm , SI units = C m)
                  (au)            (Debye)         (10**-30 SI)
   Tot        0.714503D+00      0.181608D+01      0.605781D+01
   x         -0.550995D+00     -0.140049D+01     -0.467153D+01
   y         -0.159451D+00     -0.405283D+00     -0.135188D+01
   z         -0.426021D+00     -0.108284D+01     -0.361196D+01

 Dipole polarizability, Alpha (input orientation).
 (esu units = cm**3 , SI units = C**2 m**2 J**-1)
 Alpha(0;0):
               (au)            (10**-24 esu)      (10**-40 SI)
   iso        0.855941D+02      0.126837D+02      0.141126D+02
   aniso      0.889740D+02      0.131846D+02      0.146698D+02
   xx         0.143616D+03      0.212816D+02      0.236790D+02
   yx        -0.889396D+01     -0.131795D+01     -0.146642D+01
   yy         0.621765D+02      0.921361D+01      0.102515D+02
   zx         0.179087D+01      0.265380D+00      0.295275D+00
   zy         0.563344D+00      0.834789D-01      0.928828D-01
   zz         0.509901D+02      0.755595D+01      0.840713D+01

 ----------------------------------------------------------------------

 Dipole orientation:
     8          4.89950555          1.54673150         -6.82206152
     1          5.29893074         -0.23443500         -6.83121561
     6          2.76060027          1.01192745         -2.99067576
     1          4.62763019          1.98508694         -4.97599364
     6          1.36264937          0.14369708         -1.41381935
     6         -0.25587920         -0.86381216          0.57182559
     8         -1.12758515         -2.95512895          0.51280237
     8         -0.60801764          0.82202788          2.40161478
     6         -2.21724584          0.03838322          4.45959565
     6         -4.98212618          0.27113954          3.74790098
     1         -1.71462028          1.31160569          5.99457421
     1         -1.72835323         -1.89514298          4.97881050
     1         -6.15498537         -0.19590548          5.37945665
     1         -5.41416260          2.20024989          3.16327265
     1         -5.45298100         -1.02476004          2.21735320

 Electric dipole moment (dipole orientation):
 (Debye = 10**-18 statcoulomb cm , SI units = C m)
                  (au)            (Debye)         (10**-30 SI)
   Tot        0.714503D+00      0.181608D+01      0.605781D+01
   x          0.000000D+00      0.000000D+00      0.000000D+00
   y          0.000000D+00      0.000000D+00      0.000000D+00
   z          0.714503D+00      0.181608D+01      0.605781D+01

 Dipole polarizability, Alpha (dipole orientation).
 (esu units = cm**3 , SI units = C**2 m**2 J**-1)
 Alpha(0;0):
               (au)            (10**-24 esu)      (10**-40 SI)
   iso        0.855941D+02      0.126837D+02      0.141126D+02
   aniso      0.889740D+02      0.131846D+02      0.146698D+02
   xx         0.871499D+02      0.129143D+02      0.143691D+02
   yx         0.134531D+02      0.199355D+01      0.221812D+01
   yy         0.642665D+02      0.952331D+01      0.105961D+02
   zx        -0.435147D+02     -0.644822D+01     -0.717461D+01
   zy        -0.118390D+02     -0.175436D+01     -0.195199D+01
   zz         0.105366D+03      0.156136D+02      0.173725D+02

 ----------------------------------------------------------------------
 1\1\GINC-AJ\Freq\UM062X\6-311++G(d,p)\C5H7O3(2)\AAYUSH\16-Aug-2025\0\\
 # freq 6-311++g(d,p) m062x\\Title Card Required\\0,2\O,4.498976,-0.266
 846,0.335774\H,4.533715,0.624593,-0.034678\C,2.194771,-0.323101,-0.063
 422\H,3.680371,-0.694073,-0.083986\C,1.037591,0.015552,-0.09301\C,-0.3
 67592,0.389918,-0.178014\O,-0.752252,1.51877,-0.050635\O,-1.135033,-0.
 670352,-0.412565\C,-2.553875,-0.419827,-0.497751\C,-3.168194,-0.297367
 ,0.882582\H,-2.940742,-1.282512,-1.036822\H,-2.713739,0.482221,-1.0894
 17\H,-4.25007,-0.18369,0.791257\H,-2.96301,-1.19267,1.471164\H,-2.7738
 8,0.574608,1.404612\\Version=ES64L-G16RevA.03\State=2-A\HF=-420.174953
 9\S2=0.769356\S2-1=0.\S2A=0.750285\RMSD=4.467e-09\RMSF=9.271e-04\ZeroP
 oint=0.1089828\Thermal=0.1171654\Dipole=-0.5509949,-0.1594506,-0.42602
 11\DipoleDeriv=-0.583294,-0.0205235,0.0747204,0.0607572,-0.3493231,-0.
 0636865,0.4240573,-0.0987827,-0.364259,0.3853877,0.0765108,-0.0505083,
 0.3277857,0.2510213,0.0632967,-0.1340961,0.0716997,0.2975295,0.4725242
 ,0.1971776,0.1561266,0.2079281,-0.2606071,-0.0108956,0.2113595,-0.0092
 489,-0.1278603,-0.5778879,-0.018382,-0.1286348,-0.4080201,0.274877,0.0
 049865,-0.4482518,0.0429054,0.1846928,-0.4742125,-0.1158833,-0.0718508
 ,-0.2238359,0.0501832,-0.0057843,-0.192711,-0.000137,-0.0260849,2.7602
 64,-0.049345,0.1115575,0.5717084,1.7221155,0.1663535,0.3877069,0.18555
 17,0.3866785,-1.0961635,0.3091371,-0.0004217,0.1496135,-1.1453811,-0.0
 614977,-0.0635333,-0.0676672,-0.3448691,-1.8585322,-0.3866794,-0.03454
 47,-0.6576518,-0.8540557,-0.0962658,-0.2022562,-0.134052,-0.3523462,1.
 0960322,0.0958771,-0.0451525,-0.032877,0.2545816,0.0014541,-0.0140475,
 0.0449257,0.3543914,-0.0907028,-0.0338407,0.0150603,0.008624,0.0352145
 ,-0.017999,0.043949,-0.050236,-0.0818744,-0.036166,-0.023187,0.0002741
 ,-0.0618693,-0.0206118,-0.0906744,-0.0189516,-0.0646973,0.0073174,-0.0
 289431,-0.0380849,0.0299356,0.0605537,-0.0046795,0.0886854,0.0111514,0
 .0420311,-0.0085773,-0.1319563,0.012179,-0.0011343,0.0173015,0.0958319
 ,0.0028636,-0.0029691,0.0158602,0.059152,0.077432,0.0512814,-0.01847,0
 .0210654,-0.0409641,0.0830213,0.0191132,0.048559,-0.0012976,0.0862181,
 -0.0562372,-0.0369575,-0.0410832,-0.0082027,-0.0638576,-0.0205206,-0.0
 267119,0.0174073\Polar=143.6156744,-8.8939649,62.1764952,1.7908701,0.5
 633437,50.9901105\Quadrupole=5.4066058,-4.129758,-1.2768478,5.6326497,
 -2.8413399,-0.1879832\PG=C01 [X(C5H7O3)]\NImag=4\\0.24930549,0.1199194
 2,0.53141949,0.12641867,-0.14151138,0.15928793,-0.02934758,-0.00199718
 ,-0.01648613,0.03230823,-0.03956954,-0.45124176,0.16918181,0.03176246,
 0.46167951,-0.00353523,0.19821503,-0.09089890,0.00534739,-0.18123467,0
 .08610016,-0.07418021,-0.03258939,-0.03955339,-0.00552628,-0.00678876,
 0.00301638,0.98713832,0.01470503,0.01164686,0.00642889,-0.00124246,0.0
 0129874,0.00121605,-0.25664750,0.07936249,-0.00096187,0.00394948,0.002
 33492,0.00193938,-0.00058975,0.00031472,0.03878373,-0.00926319,0.01027
 063,-0.13847450,-0.08968118,-0.07166328,-0.00074888,0.01440982,-0.0040
 4025,0.05128886,-0.01464806,-0.00632882,0.08162425,-0.09786999,-0.0892
 6333,-0.03464164,-0.02715949,-0.01187263,-0.01809644,0.03503539,-0.014
 33789,-0.00295364,0.09153629,0.11378410,-0.12180354,-0.06019665,-0.070
 14535,0.00935050,0.01248584,0.00463472,0.03188397,-0.00713163,-0.00427
 106,0.08099214,0.05535625,0.06825976,-0.00848822,0.00476744,0.00197705
 ,0.00388413,0.00117360,-0.00088755,-0.96073983,0.25670732,-0.03247495,
 0.00470031,-0.00333675,-0.00143540,1.29755479,0.00370340,-0.00386326,0
 .00166426,-0.00255151,0.00060332,-0.00006333,0.24782938,-0.08008040,0.
 00848330,-0.00433797,0.00046767,-0.00234637,-0.30742054,0.16660293,0.0
 0018780,0.00037986,-0.00079236,0.00015980,0.00065835,-0.00017388,-0.03
 871467,0.01006010,-0.01449810,-0.00157136,-0.00106227,0.00052514,0.060
 60199,-0.00705692,0.04856438,0.00448708,-0.00037620,-0.00319806,-0.001
 67976,-0.00362341,0.00099230,0.00742520,-0.00372327,-0.00272185,0.0050
 7179,0.00499160,0.00438925,-0.25994280,0.05295183,-0.01014751,0.666737
 39,-0.00122706,0.00121752,-0.00090354,0.00124153,0.00028212,-0.0000049
 3,0.01394188,-0.00087618,0.00001088,0.00176701,0.00099361,0.00138073,0
 .01901146,-0.05429150,0.00376664,-0.14596386,0.94492856,-0.00006251,-0
 .00131984,0.00020174,-0.00061067,-0.00084691,0.00022182,0.00668508,-0.
 00289967,0.00599934,0.00382342,0.00226924,0.00140221,-0.02310804,0.009
 04360,-0.06871469,0.02371631,0.09321145,0.22172117,-0.00146485,-0.0004
 1446,0.00158671,0.00023703,0.00157270,-0.00042326,-0.00608275,0.002356
 89,0.00068165,-0.00263634,-0.00196764,-0.00229618,-0.01961725,0.045154
 92,0.00226595,-0.18351581,0.21922734,0.02191423,0.18359119,0.00114913,
 -0.00001112,-0.00074246,-0.00031415,-0.00118432,0.00017365,-0.00142204
 ,0.00179615,-0.00009544,0.00166841,0.00116358,0.00119243,0.04359974,-0
 .03065105,-0.00335170,0.20306204,-0.67604559,-0.06723161,-0.23403928,0
 .81023860,0.00002643,0.00030261,-0.00010454,0.00010549,0.00013666,-0.0
 0013429,-0.00205009,0.00107827,-0.00019156,-0.00079239,-0.00046895,-0.
 00005419,0.00426314,-0.00388606,0.02046781,0.01976045,-0.06386855,-0.0
 8717144,-0.01957401,0.09060441,0.04570338,-0.00235704,0.00033591,0.001
 28973,0.00107909,0.00146804,-0.00058412,0.00007667,0.00317030,0.001267
 93,-0.00134335,-0.00169535,-0.00158175,-0.05795714,-0.03385843,-0.0125
 9808,-0.18716672,-0.09762592,-0.02355649,0.02862144,-0.02420768,-0.005
 74483,0.49119169,-0.00072562,0.00007285,0.00051632,0.00021016,0.000400
 73,-0.00018783,0.00084643,0.00065471,0.00033663,-0.00073707,-0.0009544
 7,-0.00075895,-0.01106850,0.00424788,-0.00186339,-0.07103127,-0.226039
 13,-0.02906810,-0.02668347,-0.10338882,-0.02343763,0.08904635,0.415445
 57,-0.00031035,0.00011261,0.00018720,0.00016234,0.00022450,-0.00010854
 ,-0.00007598,0.00053151,0.00039182,-0.00040880,-0.00041679,-0.00033246
 ,-0.00767285,-0.00428961,0.00942641,-0.02182916,-0.03287394,-0.0735068
 1,-0.00473340,-0.02253593,0.02687364,0.04963250,0.05705281,0.09666655,
 0.00090490,-0.00003345,-0.00057167,-0.00038301,-0.00065847,0.00020003,
 0.00074269,-0.00102390,-0.00040669,0.00077622,0.00077305,0.00075903,0.
 00317938,0.00015575,0.00086697,-0.05157884,-0.03441295,-0.01237418,-0.
 00080044,0.01971293,0.00305902,-0.17605229,0.02102356,-0.01162494,0.44
 310298,-0.00009188,0.00001350,0.00004048,0.00004999,0.00003413,-0.0000
 3267,-0.00020296,0.00056135,0.00014866,0.00003703,0.00003324,-0.000004
 90,-0.00422184,-0.00324739,-0.00192430,-0.03497873,0.01432347,-0.00228
 463,-0.00023230,-0.00382177,-0.00002335,0.04277422,-0.09995505,0.00151
 037,0.04287016,0.65150871,0.00005334,0.00005950,-0.00006944,0.00002075
 ,-0.00002243,0.00004541,-0.00005511,0.00005920,-0.00046536,-0.00001474
 ,0.00003005,-0.00001301,-0.00159223,-0.00178922,0.00563566,-0.01160217
 ,-0.00500682,-0.00168185,-0.00205267,0.00243966,-0.00555167,-0.0084515
 6,0.00038407,-0.06663946,0.03505866,0.00083226,0.54963841,-0.00018746,
 0.00000608,0.00011658,0.00007468,0.00012268,-0.00004686,-0.00000656,0.
 00015599,0.00018285,-0.00011900,-0.00014123,-0.00011728,-0.00072224,-0
 .00026419,-0.00175162,0.00174767,0.00763522,0.00388694,0.00052260,-0.0
 0299916,0.00073833,-0.03976965,0.00219544,0.03566099,-0.08597453,0.000
 33685,0.03370474,0.56928363,0.00003178,-0.00000499,-0.00003183,-0.0000
 0901,-0.00001804,0.00001779,0.00008237,-0.00009179,-0.00009804,0.00003
 005,0.00004140,0.00003115,0.00013350,0.00002969,0.00050307,-0.00159533
 ,0.00063386,0.00096701,0.00091574,0.00061185,-0.00111883,0.00627524,0.
 00157716,-0.00455100,0.00012287,-0.08608246,-0.00857778,0.00397957,0.5
 8887708,-0.00004486,0.00000963,0.00001426,0.00001832,0.00003341,-0.000
 01147,-0.00008014,0.00004151,0.00008322,-0.00002962,-0.00005061,-0.000
 01869,0.00021393,-0.00005833,-0.00050824,0.00000920,0.00438470,0.00180
 911,0.00167630,-0.00155728,-0.00131826,0.00056054,-0.00248360,0.006882
 81,0.04586644,-0.00949958,-0.20360774,0.03939435,-0.00577484,0.5108675
 5,-0.00013879,0.00003432,0.00007358,0.00006643,0.00008585,-0.00003397,
 -0.00019482,0.00028493,0.00005747,-0.00009108,-0.00011788,-0.00010196,
 -0.00136698,-0.00120286,0.00010543,-0.00383742,0.00626678,-0.00140443,
 0.00153712,-0.00141510,0.00008357,-0.03259393,-0.03165939,-0.01759790,
 -0.07417905,-0.06827357,-0.04309605,0.00695000,0.01224835,0.00690097,0
 .10034668,-0.00002543,-0.00001377,0.00003534,0.00000265,0.00001988,-0.
 00001334,0.00000114,0.00001038,0.00006432,-0.00002912,-0.00002193,-0.0
 0003861,0.00029841,0.00022941,-0.00030364,0.00236585,-0.00189470,0.000
 11596,-0.00199388,0.00117869,-0.00034262,0.00560035,0.00800271,0.00516
 280,-0.08075818,-0.23393745,-0.10853063,0.00060194,0.00035119,0.000511
 19,0.08174964,0.24202557,-0.00000797,0.00001377,-0.00000312,0.00000737
 ,0.00000192,-0.00000079,0.00002198,-0.00000364,0.00000952,-0.00000830,
 -0.00001630,0.00000146,-0.00017242,-0.00002537,0.00005063,0.00058939,0
 .00239366,0.00035890,0.00108620,-0.00024367,0.00047360,-0.00300161,-0.
 00186839,0.00032775,-0.04816888,-0.10639111,-0.11766245,-0.00959660,-0
 .02536673,-0.01537727,0.04956981,0.11725617,0.12414836,-0.00008410,0.0
 0003397,0.00003583,0.00005132,0.00006179,-0.00001632,0.00010394,-0.000
 06767,-0.00001886,-0.00006609,-0.00007853,-0.00006196,-0.00047407,-0.0
 0020671,0.00075176,0.00235681,0.00906130,0.00030292,0.00065675,-0.0037
 4164,-0.00055820,-0.02631462,0.02975935,-0.02196317,-0.05264213,0.0201
 1977,-0.01494702,0.00389575,-0.01249650,0.00786008,0.00344644,-0.00862
 071,0.00712473,0.06940605,0.00003842,0.00002396,-0.00006144,-0.0000039
 5,-0.00002397,0.00001915,0.00001568,-0.00000418,-0.00007781,0.00001293
 ,0.00000567,0.00006232,0.00032849,-0.00014922,0.00059269,-0.00271695,-
 0.00097099,-0.00106417,-0.00194392,-0.00009277,-0.00107023,0.00807824,
 -0.00179733,0.00077441,0.03068483,-0.24017631,0.12316126,-0.00157615,0
 .00490519,-0.00311734,0.00272603,-0.01796623,0.01337279,-0.03523349,0.
 25472972,0.00003254,0.00000256,-0.00002454,-0.00000589,-0.00002490,0.0
 0000935,0.00014958,-0.00010368,0.00002652,0.00004508,0.00004227,0.0000
 3078,-0.00005315,-0.00011700,-0.00012856,-0.00053107,0.00354952,0.0012
 5139,0.00157642,-0.00139206,-0.00020002,-0.00366219,-0.00039361,0.0002
 0179,-0.01965959,0.11924185,-0.12982197,-0.00299651,0.02563471,-0.0166
 8237,0.00333858,-0.01349484,0.01052055,0.01957129,-0.13177008,0.137648
 83,-0.00008372,0.00000727,0.00005164,0.00003770,0.00005968,-0.00001948
 ,0.00001543,0.00004046,0.00007428,-0.00007424,-0.00007424,-0.00006889,
 -0.00015832,0.00001727,-0.00027860,0.00152972,0.00166626,0.00026628,-0
 .00008256,-0.00062135,0.00020816,-0.00134694,-0.00084644,0.00318770,-0
 .01244845,0.00095309,-0.00443434,-0.31421753,0.02808826,-0.02277848,0.
 00035326,0.00031204,0.00019915,0.00023562,-0.00036463,0.00026062,0.340
 54957,-0.00000323,-0.00000050,0.00000224,-0.00000006,0.00000280,-0.000
 00110,-0.00002762,0.00000856,0.00004298,-0.00000293,-0.00000343,-0.000
 00427,0.00004108,0.00006110,-0.00016695,0.00012510,-0.00136656,-0.0005
 5354,-0.00053646,0.00036306,0.00065935,0.00129192,0.00147547,-0.000686
 35,0.00200327,-0.00240263,0.00086299,0.02770388,-0.04846160,0.00226840
 ,-0.00012427,-0.00005948,0.00015116,0.00003861,0.00001238,-0.00006286,
 -0.03103008,0.04818731,0.00004637,-0.00000284,-0.00001919,-0.00001729,
 -0.00003371,0.00000965,0.00005376,-0.00007005,-0.00004784,0.00003289,0
 .00004126,0.00002377,0.00023191,0.00019427,0.00044907,-0.00068881,-0.0
 0334406,-0.00138519,-0.00051147,0.00129674,0.00033535,0.00763730,0.000
 61841,-0.00600894,0.02798743,-0.00275007,0.00709927,-0.02497001,0.0027
 2549,-0.05013149,-0.00078272,-0.00060887,0.00104859,-0.00069091,0.0008
 4771,0.00082783,0.02423552,-0.00228292,0.05124305,0.00003583,-0.000002
 81,-0.00002849,-0.00001902,-0.00002524,0.00001230,-0.00005602,0.000009
 26,-0.00004345,0.00002967,0.00002722,0.00003498,0.00005664,0.00001200,
 0.00005166,-0.00047370,-0.00153753,-0.00024956,-0.00043826,0.00060676,
 0.00022024,0.00246521,-0.00005412,-0.00085931,0.00066928,-0.01232682,0
 .00918641,-0.05689896,0.04329000,-0.02972011,0.00021020,0.00028120,-0.
 00085936,-0.00066356,0.00023564,0.00286385,-0.00423183,0.02685000,-0.0
 1745902,0.05733220,-0.00000705,-0.00000275,-0.00000265,-0.00000121,0.0
 0000535,0.00000408,-0.00007202,0.00004242,0.00000818,-0.00001068,-0.00
 001037,-0.00000330,-0.00004767,0.00003652,-0.00011558,0.00024797,-0.00
 086927,0.00023443,-0.00057440,0.00039788,0.00035498,-0.00103273,0.0003
 2791,-0.00019462,-0.00073517,0.00393963,-0.00282471,0.04293035,-0.2355
 1000,0.11991669,-0.00047243,0.00073626,0.00040939,0.00088779,0.0009962
 5,-0.00112079,-0.00000304,-0.00196402,-0.00002436,-0.04740914,0.250709
 08,0.00000837,-0.00000938,-0.00000015,-0.00000511,-0.00000383,0.000000
 47,0.00003000,-0.00003047,0.00000619,0.00000915,0.00001791,0.00000217,
 0.00002546,0.00006260,-0.00006956,0.00016901,0.00037463,0.00005256,-0.
 00009439,-0.00023766,0.00020220,-0.00152192,-0.00100257,0.00287938,-0.
 00696673,0.02805429,-0.01963656,-0.02746481,0.11762454,-0.12383588,-0.
 00051248,-0.00019655,0.00107750,0.00308019,-0.00175798,-0.00483591,-0.
 00034221,0.00062073,-0.00171298,0.02895623,-0.13067491,0.13654646,0.00
 007315,-0.00000974,-0.00004878,-0.00003408,-0.00005121,0.00001864,-0.0
 0000465,-0.00007733,-0.00003082,0.00006239,0.00007756,0.00005706,0.000
 09161,0.00001767,0.00007048,-0.00116062,0.00094853,0.00077069,-0.00052
 786,-0.00103862,0.00025469,0.00146758,-0.00027540,-0.00156766,0.004683
 29,0.01318698,0.00822198,-0.08457842,-0.08109688,-0.04984692,-0.000508
 06,0.00021412,0.00321651,0.00009190,-0.00028118,-0.00092957,-0.0100776
 9,-0.02632920,-0.01510495,0.00198232,0.00629944,0.00462924,0.08843913,
 -0.00002737,0.00000730,0.00002559,0.00001224,0.00001415,-0.00001141,-0
 .00000196,0.00000881,0.00003344,-0.00001452,-0.00002520,-0.00002405,0.
 00003425,0.00000430,-0.00011595,0.00026462,-0.00002521,-0.00057320,-0.
 00084178,-0.00055436,0.00107994,0.00037954,-0.00007019,0.00017923,0.00
 027570,-0.00079095,-0.00107738,-0.08068726,-0.22685852,-0.10462395,-0.
 00013039,0.00133947,0.00031635,0.00048266,0.00050783,0.00000891,0.0017
 9545,0.00414755,0.00339300,-0.00995643,-0.01883488,-0.01284137,0.08841
 525,0.24112991,-0.00004719,-0.00000496,0.00003155,0.00001376,0.0000337
 1,-0.00000840,-0.00009511,0.00008680,0.00003704,-0.00004512,-0.0000503
 4,-0.00004526,0.00008312,0.00018420,-0.00023370,0.00109270,-0.00307037
 ,-0.00055825,-0.00110209,0.00168094,0.00066998,0.00031455,0.00215582,0
 .00275886,-0.01402489,-0.02691730,-0.01726924,-0.04674111,-0.10198471,
 -0.10816553,0.00340009,0.00038333,-0.00497321,-0.00047038,0.00008873,0
 .00117633,-0.00056136,-0.00084987,-0.00173095,0.00789362,0.01403318,0.
 00932413,0.05028941,0.11423085,0.11898663\\-0.00200433,-0.00077666,-0.
 00195082,0.00023984,0.00028396,0.00050722,0.00218300,-0.00041772,-0.00
 053251,-0.00360672,0.00189220,0.00193930,0.00161485,-0.00084123,-0.000
 30196,0.00072388,-0.00006977,0.00026394,0.00028488,-0.00019153,-0.0000
 3216,0.00033787,0.00006178,0.00009054,0.00016666,0.00005499,0.00002749
 ,0.00002581,-0.00000094,-0.00000965,0.00001921,0.00000330,-0.00000013,
 0.00001220,0.00000400,0.00000307,0.00000239,-0.00000090,-0.00000520,0.
 00000087,-0.00000046,-0.00000119,-0.00000042,-0.00000104,0.00000207\\\
 @


 ONE OF THE BENEFITS OF A COLLEGE EDUCATION
 IS TO SHOW THE BOY ITS LITTLE AVAIL 
                                    EMERSON IN 'CULTURE'
 Job cpu time:       0 days  0 hours 49 minutes 17.6 seconds.
 Elapsed time:       0 days  0 hours  2 minutes  3.3 seconds.
 File lengths (MBytes):  RWF=    153 Int=      0 D2E=      0 Chk=      5 Scr=      1
 Normal termination of Gaussian 16 at Sat Aug 16 14:11:06 2025.
