 Entering Gaussian System, Link 0=g16
 Initial command:
 /opt/g16/l1.exe "/home/aayush/scratches/g16/Gau-5481.inp" -scrdir="/home/aayush/scratches/g16/"
 Entering Link 1 = /opt/g16/l1.exe PID=      5484.
  
 Copyright (c) 1988,1990,1992,1993,1995,1998,2003,2009,2016,
            Gaussian, Inc.  All Rights Reserved.
  
 This is part of the Gaussian(R) 16 program.  It is based on
 the Gaussian(R) 09 system (copyright 2009, Gaussian, Inc.),
 the Gaussian(R) 03 system (copyright 2003, Gaussian, Inc.),
 the Gaussian(R) 98 system (copyright 1998, Gaussian, Inc.),
 the Gaussian(R) 94 system (copyright 1995, Gaussian, Inc.),
 the Gaussian 92(TM) system (copyright 1992, Gaussian, Inc.),
 the Gaussian 90(TM) system (copyright 1990, Gaussian, Inc.),
 the Gaussian 88(TM) system (copyright 1988, Gaussian, Inc.),
 the Gaussian 86(TM) system (copyright 1986, Carnegie Mellon
 University), and the Gaussian 82(TM) system (copyright 1983,
 Carnegie Mellon University). Gaussian is a federally registered
 trademark of Gaussian, Inc.
  
 This software contains proprietary and confidential information,
 including trade secrets, belonging to Gaussian, Inc.
  
 This software is provided under written license and may be
 used, copied, transmitted, or stored only in accord with that
 written license.
  
 The following legend is applicable only to US Government
 contracts under FAR:
  
                    RESTRICTED RIGHTS LEGEND
  
 Use, reproduction and disclosure by the US Government is
 subject to restrictions as set forth in subparagraphs (a)
 and (c) of the Commercial Computer Software - Restricted
 Rights clause in FAR 52.227-19.
  
 Gaussian, Inc.
 340 Quinnipiac St., Bldg. 40, Wallingford CT 06492
  
  
 ---------------------------------------------------------------
 Warning -- This program may not be used in any manner that
 competes with the business of Gaussian, Inc. or will provide
 assistance to any competitor of Gaussian, Inc.  The licensee
 of this program is prohibited from giving any competitor of
 Gaussian, Inc. access to this program.  By using this program,
 the user acknowledges that Gaussian, Inc. is engaged in the
 business of creating and licensing software in the field of
 computational chemistry and represents and warrants to the
 licensee that it is not a competitor of Gaussian, Inc. and that
 it will not use this program in any manner prohibited above.
 ---------------------------------------------------------------
  

 Cite this work as:
 Gaussian 16, Revision A.03,
 M. J. Frisch, G. W. Trucks, H. B. Schlegel, G. E. Scuseria, 
 M. A. Robb, J. R. Cheeseman, G. Scalmani, V. Barone, 
 G. A. Petersson, H. Nakatsuji, X. Li, M. Caricato, A. V. Marenich, 
 J. Bloino, B. G. Janesko, R. Gomperts, B. Mennucci, H. P. Hratchian, 
 J. V. Ortiz, A. F. Izmaylov, J. L. Sonnenberg, D. Williams-Young, 
 F. Ding, F. Lipparini, F. Egidi, J. Goings, B. Peng, A. Petrone, 
 T. Henderson, D. Ranasinghe, V. G. Zakrzewski, J. Gao, N. Rega, 
 G. Zheng, W. Liang, M. Hada, M. Ehara, K. Toyota, R. Fukuda, 
 J. Hasegawa, M. Ishida, T. Nakajima, Y. Honda, O. Kitao, H. Nakai, 
 T. Vreven, K. Throssell, J. A. Montgomery, Jr., J. E. Peralta, 
 F. Ogliaro, M. J. Bearpark, J. J. Heyd, E. N. Brothers, K. N. Kudin, 
 V. N. Staroverov, T. A. Keith, R. Kobayashi, J. Normand, 
 K. Raghavachari, A. P. Rendell, J. C. Burant, S. S. Iyengar, 
 J. Tomasi, M. Cossi, J. M. Millam, M. Klene, C. Adamo, R. Cammi, 
 J. W. Ochterski, R. L. Martin, K. Morokuma, O. Farkas, 
 J. B. Foresman, and D. J. Fox, Gaussian, Inc., Wallingford CT, 2016.
 
 ******************************************
 Gaussian 16:  ES64L-G16RevA.03 25-Dec-2016
                18-Aug-2025 
 ******************************************
 %chk=ethyl_propiolate.chk
 %nprocshared=24
 Will use up to   24 processors via shared memory.
 %mem=12GB
 --------------------------
 # ccsd(t)/6-311++g(d,p) sp
 --------------------------
 1/38=1,172=1/1;
 2/12=2,17=6,18=5,40=1/2;
 3/5=4,6=6,7=1111,11=9,25=1,30=1/1,2,3;
 4//1;
 5/5=2,38=5/2;
 8/6=4,9=120000,10=2/1,4;
 9/5=7,14=2/13;
 6/7=2,8=2,9=2,10=2/1;
 99/5=1,9=1/99;
 -------------------
 Title Card Required
 -------------------
 Symbolic Z-matrix:
 Charge =  0 Multiplicity = 2
 O                     4.49771  -0.26731   0.33449 
 H                     4.5366    0.62775  -0.02909 
 C                     2.19684  -0.32347  -0.06388 
 H                     3.6368   -0.67409  -0.06378 
 C                     1.03917   0.0147   -0.09331 
 C                    -0.36689   0.38988  -0.17775 
 O                    -0.75208   1.51865  -0.05066 
 O                    -1.13482  -0.67031  -0.41251 
 C                    -2.55372  -0.41978  -0.49773 
 C                    -3.16817  -0.29737   0.88257 
 H                    -2.94055  -1.28248  -1.03682 
 H                    -2.71362   0.48227  -1.08938 
 H                    -4.25005  -0.1837    0.79121 
 H                    -2.963    -1.19268   1.47115 
 H                    -2.77388   0.5746    1.40463 
 
                          Input orientation:                          
 ---------------------------------------------------------------------
 Center     Atomic      Atomic             Coordinates (Angstroms)
 Number     Number       Type             X           Y           Z
 ---------------------------------------------------------------------
      1          8           0        4.497708   -0.267308    0.334490
      2          1           0        4.536600    0.627746   -0.029090
      3          6           0        2.196839   -0.323465   -0.063881
      4          1           0        3.636802   -0.674089   -0.063778
      5          6           0        1.039169    0.014702   -0.093307
      6          6           0       -0.366889    0.389876   -0.177754
      7          8           0       -0.752084    1.518649   -0.050659
      8          8           0       -1.134815   -0.670311   -0.412508
      9          6           0       -2.553720   -0.419776   -0.497726
     10          6           0       -3.168174   -0.297370    0.882572
     11          1           0       -2.940547   -1.282476   -1.036819
     12          1           0       -2.713621    0.482268   -1.089383
     13          1           0       -4.250052   -0.183698    0.791207
     14          1           0       -2.962999   -1.192677    1.471153
     15          1           0       -2.773877    0.574599    1.404630
 ---------------------------------------------------------------------
                    Distance matrix (angstroms):
                    1          2          3          4          5
     1  O    0.000000
     2  H    0.966863   0.000000
     3  C    2.335776   2.525964   0.000000
     4  H    1.032108   1.582913   1.482036   0.000000
     5  C    3.496288   3.551334   1.206409   2.687564   0.000000
     6  C    4.935442   4.911506   2.663555   4.144219   1.457699
     7  O    5.558624   5.363241   3.477025   4.906179   2.339287
     8  O    5.696116   5.830687   3.367753   4.784345   2.301595
     9  C    7.102004   7.182587   4.771300   6.210922   3.641590
    10  C    7.685509   7.813483   5.447919   6.880784   4.330296
    11  H    7.631428   7.782814   5.315924   6.676711   4.290807
    12  H    7.388677   7.328785   5.080697   6.535817   3.910782
    13  H    8.760073   8.862087   6.504853   7.948204   5.366338
    14  H    7.603319   7.861848   5.453053   6.795757   4.463479
    15  H    7.397970   7.449930   5.260329   6.694195   4.134806
                    6          7          8          9         10
     6  C    0.000000
     7  O    1.199440   0.000000
     8  O    1.329969   2.251436   0.000000
     9  C    2.353752   2.683888   1.443372   0.000000
    10  C    3.073076   3.163279   2.439440   1.515836   0.000000
    11  H    3.187235   3.688927   2.006285   1.088351   2.169403
    12  H    2.519277   2.449625   2.068629   1.090555   2.168654
    13  H    4.043121   3.980264   3.374970   2.143507   1.091663
    14  H    3.458779   3.815147   2.676435   2.154384   1.090917
    15  H    2.886460   2.663971   2.745599   2.157825   1.090112
                   11         12         13         14         15
    11  H    0.000000
    12  H    1.780050   0.000000
    13  H    2.502758   2.518085   0.000000
    14  H    2.509680   3.069849   1.771121   0.000000
    15  H    3.071999   2.496449   1.769292   1.778611   0.000000
 Stoichiometry    C5H7O3(2)
 Framework group  C1[X(C5H7O3)]
 Deg. of freedom    39
 Full point group                 C1      NOp   1
 Largest Abelian subgroup         C1      NOp   1
 Largest concise Abelian subgroup C1      NOp   1
                         Standard orientation:                         
 ---------------------------------------------------------------------
 Center     Atomic      Atomic             Coordinates (Angstroms)
 Number     Number       Type             X           Y           Z
 ---------------------------------------------------------------------
      1          8           0        4.558362   -0.252731    0.323197
      2          1           0        4.597074    0.642184   -0.040746
      3          6           0        2.257538   -0.309587   -0.075339
      4          1           0        3.697583   -0.659875   -0.074975
      5          6           0        1.099792    0.028297   -0.104998
      6          6           0       -0.306347    0.403109   -0.189713
      7          8           0       -0.691815    1.531844   -0.063112
      8          8           0       -1.074006   -0.657353   -0.424096
      9          6           0       -2.492963   -0.407184   -0.509533
     10          6           0       -3.107558   -0.284357    0.870665
     11          1           0       -2.879544   -1.270195   -1.048304
     12          1           0       -2.653026    0.494580   -1.101572
     13          1           0       -4.189455   -0.170975    0.779165
     14          1           0       -2.902222   -1.179375    1.459629
     15          1           0       -2.713507    0.587917    1.392398
 ---------------------------------------------------------------------
 Rotational constants (GHZ):           6.2844516           0.6885697           0.6601987
 Standard basis: 6-311++G(d,p) (5D, 7F)
 There are   233 symmetry adapted cartesian basis functions of A   symmetry.
 There are   225 symmetry adapted basis functions of A   symmetry.
   225 basis functions,   351 primitive gaussians,   233 cartesian basis functions
    31 alpha electrons       30 beta electrons
       nuclear repulsion energy       335.0582271011 Hartrees.
 NAtoms=   15 NActive=   15 NUniq=   15 SFac= 1.00D+00 NAtFMM=   60 NAOKFM=F Big=F
 Integral buffers will be    131072 words long.
 Raffenetti 2 integral format.
 Two-electron integral symmetry is turned on.
 One-electron integrals computed using PRISM.
 NBasis=   225 RedAO= T EigKep=  5.16D-06  NBF=   225
 NBsUse=   224 1.00D-06 EigRej=  3.98D-07 NBFU=   224
 ExpMin= 3.60D-02 ExpMax= 8.59D+03 ExpMxC= 1.30D+03 IAcc=3 IRadAn=         5 AccDes= 0.00D+00
 Harris functional with IExCor=  205 and IRadAn=       5 diagonalized for initial guess.
 HarFok:  IExCor=  205 AccDes= 0.00D+00 IRadAn=         5 IDoV= 1 UseB2=F ITyADJ=14
 ICtDFT=  3500011 ScaDFX=  1.000000  1.000000  1.000000  1.000000
 FoFCou: FMM=F IPFlag=           0 FMFlag=      100000 FMFlg1=           0
         NFxFlg=           0 DoJE=T BraDBF=F KetDBF=T FulRan=T
         wScrn=  0.000000 ICntrl=       500 IOpCl=  0 I1Cent=   200000004 NGrid=           0
         NMat0=    1 NMatS0=      1 NMatT0=    0 NMatD0=    1 NMtDS0=    0 NMtDT0=    0
 Petite list used in FoFCou.
 Initial guess <Sx>= 0.0000 <Sy>= 0.0000 <Sz>= 0.5000 <S**2>= 0.7500 S= 0.5000
 Requested convergence on RMS density matrix=1.00D-08 within 128 cycles.
 Requested convergence on MAX density matrix=1.00D-06.
 Requested convergence on             energy=1.00D-06.
 No special actions if energy rises.
 Rare condition: small coef for last iteration:  0.000D+00
 Initial convergence to 1.0D-05 achieved.  Increase integral accuracy.
 SCF Done:  E(UHF) =  -417.936365428     A.U. after   34 cycles
            NFock= 34  Conv=0.71D-08     -V/T= 2.0006
 <Sx>= 0.0000 <Sy>= 0.0000 <Sz>= 0.5000 <S**2>= 1.1583 S= 0.6867
 <L.S>=  0.00000000000    
 Annihilation of the first spin contaminant:
 S**2 before annihilation     1.1583,   after     0.8810
 ExpMin= 3.60D-02 ExpMax= 8.59D+03 ExpMxC= 1.30D+03 IAcc=3 IRadAn=         5 AccDes= 0.00D+00
 HarFok:  IExCor=  205 AccDes= 0.00D+00 IRadAn=         5 IDoV=-2 UseB2=F ITyADJ=14
 ICtDFT= 12500011 ScaDFX=  1.000000  1.000000  1.000000  1.000000
 Range of M.O.s used for correlation:     9   224
 NBasis=   225 NAE=    31 NBE=    30 NFC=     8 NFV=     0
 NROrb=    216 NOA=    23 NOB=    22 NVA=   193 NVB=   194

 **** Warning!!: The largest alpha MO coefficient is  0.96730915D+02


 **** Warning!!: The largest beta MO coefficient is  0.10317371D+03

 Semi-Direct transformation.
 ModeAB=           4 MOrb=            23 LenV=    1609194981
 LASXX=    107793295 LTotXX=   107793295 LenRXX=   218294035
 LTotAB=   110500740 MaxLAS=   121000608 LenRXY=           0
 NonZer=   326087330 LenScr=   491049984 LnRSAI=   121000608
 LnScr1=   182258688 LExtra=           0 Total=   1012603315
 MaxDsk=          -1 SrtSym=           T ITran=            4
 JobTyp=1 Pass  1:  I=   1 to  23.
 (rs|ai) integrals will be sorted in core.
 ModeAB=           4 MOrb=            22 LenV=    1609194981
 LASXX=    103454307 LTotXX=   103454307 LenRXX=   188091948
 LTotAB=    84637641 MaxLAS=   115739712 LenRXY=           0
 NonZer=   291546255 LenScr=   439034880 LnRSAI=   115739712
 LnScr1=   174377984 LExtra=           0 Total=    917244524
 MaxDsk=          -1 SrtSym=           T ITran=            4
 JobTyp=2 Pass  1:  I=   1 to  22.
 (rs|ai) integrals will be sorted in core.
 SymMOI:  orbitals are not symmetric.
 Spin components of T(2) and E(2):
     alpha-alpha T2 =       0.5260742416D-01 E2=     -0.1708370866D+00
     alpha-beta  T2 =       0.2822659733D+00 E2=     -0.9323542579D+00
     beta-beta   T2 =       0.5179035131D-01 E2=     -0.1638230624D+00
 ANorm=    0.1177566877D+01
 E2 =    -0.1267014407D+01 EUMP2 =    -0.41920337983462D+03
 (S**2,0)=  0.11583D+01           (S**2,1)=  0.10610D+01
 E(PUHF)=      -0.41796619581D+03        E(PMP2)=      -0.41923021542D+03
 Keep R2 and R3 ints in memory in canonical form, NReq=652883968.
 CIDS: In Core Option IDoMem=           1.
 Iterations=  50 Convergence= 0.100D-06
 Produce multiple copies of IABC intergrals
 Iteration Nr.   1
 **********************
 DD1Dir will call FoFMem   1 times, MxPair=      1496
 NAB=   506 NAA=   253 NBB=   231.
 E(PMP3)=      -0.41924908574D+03
 MP4(R+Q)=  0.23842422D-01
 E3=       -0.24100868D-01        EUMP3=      -0.41922748070D+03
 E4(DQ)=   -0.67991310D-02        UMP4(DQ)=   -0.41923427983D+03
 E4(SDQ)=  -0.29660911D-01        UMP4(SDQ)=  -0.41925714161D+03
 DE(Corr)=  -1.2669985     E(Corr)=     -419.20336394    
 NORM(A)=   0.11870558D+01
 Iteration Nr.   2
 **********************
 DD1Dir will call FoFMem   1 times, MxPair=      1496
 NAB=   506 NAA=   253 NBB=   231.
 DE(Corr)=  -1.3119271     E(CORR)=     -419.24829255     Delta=-4.49D-02
 NORM(A)=   0.12114456D+01
 Iteration Nr.   3
 **********************
 DD1Dir will call FoFMem   1 times, MxPair=      1496
 NAB=   506 NAA=   253 NBB=   231.
 DE(Corr)=  -1.3163670     E(CORR)=     -419.25273248     Delta=-4.44D-03
 NORM(A)=   0.12295264D+01
 Iteration Nr.   4
 **********************
 DD1Dir will call FoFMem   1 times, MxPair=      1496
 NAB=   506 NAA=   253 NBB=   231.
 DE(Corr)=  -1.3259746     E(CORR)=     -419.26234007     Delta=-9.61D-03
 NORM(A)=   0.12441356D+01
 Iteration Nr.   5
 **********************
 DD1Dir will call FoFMem   1 times, MxPair=      1496
 NAB=   506 NAA=   253 NBB=   231.
 DE(Corr)=  -1.3296011     E(CORR)=     -419.26596657     Delta=-3.63D-03
 NORM(A)=   0.12526518D+01
 Iteration Nr.   6
 **********************
 DD1Dir will call FoFMem   1 times, MxPair=      1496
 NAB=   506 NAA=   253 NBB=   231.
 DE(Corr)=  -1.3309313     E(CORR)=     -419.26729672     Delta=-1.33D-03
 NORM(A)=   0.12547810D+01
 Iteration Nr.   7
 **********************
 DD1Dir will call FoFMem   1 times, MxPair=      1496
 NAB=   506 NAA=   253 NBB=   231.
 DE(Corr)=  -1.3311997     E(CORR)=     -419.26756512     Delta=-2.68D-04
 NORM(A)=   0.12558043D+01
 Iteration Nr.   8
 **********************
 DD1Dir will call FoFMem   1 times, MxPair=      1496
 NAB=   506 NAA=   253 NBB=   231.
 DE(Corr)=  -1.3311715     E(CORR)=     -419.26753695     Delta= 2.82D-05
 NORM(A)=   0.12565127D+01
 Iteration Nr.   9
 **********************
 DD1Dir will call FoFMem   1 times, MxPair=      1496
 NAB=   506 NAA=   253 NBB=   231.
 DE(Corr)=  -1.3311719     E(CORR)=     -419.26753728     Delta=-3.31D-07
 NORM(A)=   0.12571189D+01
 Iteration Nr.  10
 **********************
 DD1Dir will call FoFMem   1 times, MxPair=      1496
 NAB=   506 NAA=   253 NBB=   231.
 DE(Corr)=  -1.3310982     E(CORR)=     -419.26746359     Delta= 7.37D-05
 NORM(A)=   0.12576068D+01
 Iteration Nr.  11
 **********************
 DD1Dir will call FoFMem   1 times, MxPair=      1496
 NAB=   506 NAA=   253 NBB=   231.
 DE(Corr)=  -1.3311470     E(CORR)=     -419.26751238     Delta=-4.88D-05
 NORM(A)=   0.12580470D+01
 Iteration Nr.  12
 **********************
 DD1Dir will call FoFMem   1 times, MxPair=      1496
 NAB=   506 NAA=   253 NBB=   231.
 DE(Corr)=  -1.3311950     E(CORR)=     -419.26756045     Delta=-4.81D-05
 NORM(A)=   0.12584342D+01
 Iteration Nr.  13
 **********************
 DD1Dir will call FoFMem   1 times, MxPair=      1496
 NAB=   506 NAA=   253 NBB=   231.
 DE(Corr)=  -1.3312615     E(CORR)=     -419.26762692     Delta=-6.65D-05
 NORM(A)=   0.12587323D+01
 Iteration Nr.  14
 **********************
 DD1Dir will call FoFMem   1 times, MxPair=      1496
 NAB=   506 NAA=   253 NBB=   231.
 DE(Corr)=  -1.3313202     E(CORR)=     -419.26768558     Delta=-5.87D-05
 NORM(A)=   0.12589531D+01
 Iteration Nr.  15
 **********************
 DD1Dir will call FoFMem   1 times, MxPair=      1496
 NAB=   506 NAA=   253 NBB=   231.
 DE(Corr)=  -1.3313564     E(CORR)=     -419.26772179     Delta=-3.62D-05
 NORM(A)=   0.12590715D+01
 Iteration Nr.  16
 **********************
 DD1Dir will call FoFMem   1 times, MxPair=      1496
 NAB=   506 NAA=   253 NBB=   231.
 DE(Corr)=  -1.3313771     E(CORR)=     -419.26774255     Delta=-2.08D-05
 NORM(A)=   0.12591373D+01
 Iteration Nr.  17
 **********************
 DD1Dir will call FoFMem   1 times, MxPair=      1496
 NAB=   506 NAA=   253 NBB=   231.
 DE(Corr)=  -1.3313844     E(CORR)=     -419.26774986     Delta=-7.32D-06
 NORM(A)=   0.12591601D+01
 Iteration Nr.  18
 **********************
 DD1Dir will call FoFMem   1 times, MxPair=      1496
 NAB=   506 NAA=   253 NBB=   231.
 DE(Corr)=  -1.3313847     E(CORR)=     -419.26775009     Delta=-2.23D-07
 NORM(A)=   0.12591705D+01
 Iteration Nr.  19
 **********************
 DD1Dir will call FoFMem   1 times, MxPair=      1496
 NAB=   506 NAA=   253 NBB=   231.
 DE(Corr)=  -1.3313829     E(CORR)=     -419.26774830     Delta= 1.79D-06
 NORM(A)=   0.12591865D+01
 Iteration Nr.  20
 **********************
 DD1Dir will call FoFMem   1 times, MxPair=      1496
 NAB=   506 NAA=   253 NBB=   231.
 DE(Corr)=  -1.3313808     E(CORR)=     -419.26774623     Delta= 2.07D-06
 NORM(A)=   0.12592013D+01
 Iteration Nr.  21
 **********************
 DD1Dir will call FoFMem   1 times, MxPair=      1496
 NAB=   506 NAA=   253 NBB=   231.
 DE(Corr)=  -1.3313802     E(CORR)=     -419.26774560     Delta= 6.24D-07
 NORM(A)=   0.12592218D+01
 Iteration Nr.  22
 **********************
 DD1Dir will call FoFMem   1 times, MxPair=      1496
 NAB=   506 NAA=   253 NBB=   231.
 DE(Corr)=  -1.3313814     E(CORR)=     -419.26774681     Delta=-1.21D-06
 NORM(A)=   0.12592399D+01
 Iteration Nr.  23
 **********************
 DD1Dir will call FoFMem   1 times, MxPair=      1496
 NAB=   506 NAA=   253 NBB=   231.
 DE(Corr)=  -1.3313834     E(CORR)=     -419.26774881     Delta=-2.00D-06
 NORM(A)=   0.12592568D+01
 Iteration Nr.  24
 **********************
 DD1Dir will call FoFMem   1 times, MxPair=      1496
 NAB=   506 NAA=   253 NBB=   231.
 DE(Corr)=  -1.3313857     E(CORR)=     -419.26775113     Delta=-2.32D-06
 NORM(A)=   0.12592666D+01
 Iteration Nr.  25
 **********************
 DD1Dir will call FoFMem   1 times, MxPair=      1496
 NAB=   506 NAA=   253 NBB=   231.
 DE(Corr)=  -1.3313872     E(CORR)=     -419.26775258     Delta=-1.46D-06
 NORM(A)=   0.12592717D+01
 Iteration Nr.  26
 **********************
 DD1Dir will call FoFMem   1 times, MxPair=      1496
 NAB=   506 NAA=   253 NBB=   231.
 DE(Corr)=  -1.3313879     E(CORR)=     -419.26775336     Delta=-7.81D-07
 NORM(A)=   0.12592750D+01
 Iteration Nr.  27
 **********************
 DD1Dir will call FoFMem   1 times, MxPair=      1496
 NAB=   506 NAA=   253 NBB=   231.
 DE(Corr)=  -1.3313884     E(CORR)=     -419.26775387     Delta=-5.05D-07
 NORM(A)=   0.12592765D+01
 Iteration Nr.  28
 **********************
 DD1Dir will call FoFMem   1 times, MxPair=      1496
 NAB=   506 NAA=   253 NBB=   231.
 DE(Corr)=  -1.3313886     E(CORR)=     -419.26775402     Delta=-1.53D-07
 NORM(A)=   0.12592771D+01
 Iteration Nr.  29
 **********************
 DD1Dir will call FoFMem   1 times, MxPair=      1496
 NAB=   506 NAA=   253 NBB=   231.
 DE(Corr)=  -1.3313886     E(CORR)=     -419.26775405     Delta=-3.31D-08
 NORM(A)=   0.12592774D+01
 Wavefunction amplitudes converged. E(Corr)=     -419.26775405    
 Dominant configurations:
 ***********************
 Spin Case        I    J    A    B          Value
    BB           30        31           -0.118692D+00
 Largest amplitude= 1.19D-01
 Time for triples=    35976.25 seconds.
 T4(CCSD)= -0.60193263D-01
 T5(CCSD)=  0.48261840D-02
 CCSD(T)= -0.41932312113D+03

 S**2, projected HF & approx projected MPn energies after annihilation of
 unwanted spin states (see manual for definitions):

 spins       (S**2,0) (S**2,1)    PUHF        PMP2        PMP3        PMP4
 annihilated
 s+1         0.67392  0.71735 -417.966196 -419.230215 -419.249086
 s+1,s+2     0.75279  0.74979 -417.961680 -419.225939 -419.245135
 s+1 to s+3  0.74997  0.75002 -417.961864 -419.226079 -419.245205
 s+1 to s+4  0.75000  0.75000 -417.961862 -419.226077 -419.245203
 s+1 to s+5  0.75000  0.75000 -417.961862
 s+1 to s+6  0.75000  0.75000 -417.961862

 Discarding MO integrals.

 **********************************************************************

            Population analysis using the SCF density.

 **********************************************************************

 Orbital symmetries:
 Alpha Orbitals:
       Occupied  (A) (A) (A) (A) (A) (A) (A) (A) (A) (A) (A) (A)
                 (A) (A) (A) (A) (A) (A) (A) (A) (A) (A) (A) (A)
                 (A) (A) (A) (A) (A) (A) (A)
       Virtual   (A) (A) (A) (A) (A) (A) (A) (A) (A) (A) (A) (A)
                 (A) (A) (A) (A) (A) (A) (A) (A) (A) (A) (A) (A)
                 (A) (A) (A) (A) (A) (A) (A) (A) (A) (A) (A) (A)
                 (A) (A) (A) (A) (A) (A) (A) (A) (A) (A) (A) (A)
                 (A) (A) (A) (A) (A) (A) (A) (A) (A) (A) (A) (A)
                 (A) (A) (A) (A) (A) (A) (A) (A) (A) (A) (A) (A)
                 (A) (A) (A) (A) (A) (A) (A) (A) (A) (A) (A) (A)
                 (A) (A) (A) (A) (A) (A) (A) (A) (A) (A) (A) (A)
                 (A) (A) (A) (A) (A) (A) (A) (A) (A) (A) (A) (A)
                 (A) (A) (A) (A) (A) (A) (A) (A) (A) (A) (A) (A)
                 (A) (A) (A) (A) (A) (A) (A) (A) (A) (A) (A) (A)
                 (A) (A) (A) (A) (A) (A) (A) (A) (A) (A) (A) (A)
                 (A) (A) (A) (A) (A) (A) (A) (A) (A) (A) (A) (A)
                 (A) (A) (A) (A) (A) (A) (A) (A) (A) (A) (A) (A)
                 (A) (A) (A) (A) (A) (A) (A) (A) (A) (A) (A) (A)
                 (A) (A) (A) (A) (A) (A) (A) (A) (A) (A) (A) (A)
                 (A)
 Beta  Orbitals:
       Occupied  (A) (A) (A) (A) (A) (A) (A) (A) (A) (A) (A) (A)
                 (A) (A) (A) (A) (A) (A) (A) (A) (A) (A) (A) (A)
                 (A) (A) (A) (A) (A) (A)
       Virtual   (A) (A) (A) (A) (A) (A) (A) (A) (A) (A) (A) (A)
                 (A) (A) (A) (A) (A) (A) (A) (A) (A) (A) (A) (A)
                 (A) (A) (A) (A) (A) (A) (A) (A) (A) (A) (A) (A)
                 (A) (A) (A) (A) (A) (A) (A) (A) (A) (A) (A) (A)
                 (A) (A) (A) (A) (A) (A) (A) (A) (A) (A) (A) (A)
                 (A) (A) (A) (A) (A) (A) (A) (A) (A) (A) (A) (A)
                 (A) (A) (A) (A) (A) (A) (A) (A) (A) (A) (A) (A)
                 (A) (A) (A) (A) (A) (A) (A) (A) (A) (A) (A) (A)
                 (A) (A) (A) (A) (A) (A) (A) (A) (A) (A) (A) (A)
                 (A) (A) (A) (A) (A) (A) (A) (A) (A) (A) (A) (A)
                 (A) (A) (A) (A) (A) (A) (A) (A) (A) (A) (A) (A)
                 (A) (A) (A) (A) (A) (A) (A) (A) (A) (A) (A) (A)
                 (A) (A) (A) (A) (A) (A) (A) (A) (A) (A) (A) (A)
                 (A) (A) (A) (A) (A) (A) (A) (A) (A) (A) (A) (A)
                 (A) (A) (A) (A) (A) (A) (A) (A) (A) (A) (A) (A)
                 (A) (A) (A) (A) (A) (A) (A) (A) (A) (A) (A) (A)
                 (A) (A)
 The electronic state is 2-A.
 Alpha  occ. eigenvalues --  -20.62081 -20.61879 -20.56725 -11.42535 -11.31642
 Alpha  occ. eigenvalues --  -11.30326 -11.26194 -11.23077  -1.48956  -1.40600
 Alpha  occ. eigenvalues --   -1.38518  -1.09311  -1.05290  -0.93579  -0.84619
 Alpha  occ. eigenvalues --   -0.79959  -0.76618  -0.70146  -0.67536  -0.66950
 Alpha  occ. eigenvalues --   -0.63961  -0.58963  -0.57192  -0.55780  -0.55051
 Alpha  occ. eigenvalues --   -0.54551  -0.51144  -0.48822  -0.47224  -0.45875
 Alpha  occ. eigenvalues --   -0.45724
 Alpha virt. eigenvalues --    0.03946   0.04763   0.05672   0.06378   0.07320
 Alpha virt. eigenvalues --    0.08047   0.08380   0.09103   0.11155   0.12222
 Alpha virt. eigenvalues --    0.13040   0.13337   0.14386   0.15605   0.15976
 Alpha virt. eigenvalues --    0.17224   0.17767   0.18471   0.18966   0.19026
 Alpha virt. eigenvalues --    0.19846   0.20638   0.22058   0.22741   0.23974
 Alpha virt. eigenvalues --    0.25307   0.25906   0.27518   0.28459   0.28770
 Alpha virt. eigenvalues --    0.29942   0.31051   0.31906   0.33483   0.33748
 Alpha virt. eigenvalues --    0.35025   0.36136   0.36519   0.37288   0.38908
 Alpha virt. eigenvalues --    0.39593   0.40774   0.41660   0.42358   0.43026
 Alpha virt. eigenvalues --    0.45155   0.46320   0.46768   0.48174   0.49898
 Alpha virt. eigenvalues --    0.52702   0.57383   0.58706   0.59803   0.62040
 Alpha virt. eigenvalues --    0.63051   0.67563   0.69413   0.71240   0.73313
 Alpha virt. eigenvalues --    0.75330   0.77756   0.78629   0.82415   0.83981
 Alpha virt. eigenvalues --    0.84681   0.86703   0.87820   0.88851   0.89163
 Alpha virt. eigenvalues --    0.90254   0.90403   0.94098   0.94975   0.97490
 Alpha virt. eigenvalues --    1.06437   1.09392   1.11383   1.16617   1.18865
 Alpha virt. eigenvalues --    1.22598   1.23810   1.26486   1.30289   1.33773
 Alpha virt. eigenvalues --    1.34900   1.35809   1.36902   1.38211   1.40321
 Alpha virt. eigenvalues --    1.42103   1.44052   1.47717   1.49031   1.53271
 Alpha virt. eigenvalues --    1.54420   1.55751   1.58046   1.59122   1.65399
 Alpha virt. eigenvalues --    1.67437   1.71408   1.72734   1.78041   1.79510
 Alpha virt. eigenvalues --    1.80922   1.82491   1.84219   1.84529   1.87403
 Alpha virt. eigenvalues --    1.88353   1.90080   1.93203   1.94825   1.96144
 Alpha virt. eigenvalues --    1.98470   2.03170   2.06852   2.10636   2.13630
 Alpha virt. eigenvalues --    2.18518   2.22584   2.27194   2.29555   2.34505
 Alpha virt. eigenvalues --    2.39463   2.40948   2.48076   2.55289   2.59423
 Alpha virt. eigenvalues --    2.63059   2.68965   2.73694   2.80134   2.82068
 Alpha virt. eigenvalues --    2.83868   2.84479   2.91843   2.92207   2.95226
 Alpha virt. eigenvalues --    2.98366   3.00406   3.03369   3.05285   3.09798
 Alpha virt. eigenvalues --    3.13230   3.13676   3.20283   3.23530   3.26833
 Alpha virt. eigenvalues --    3.29963   3.31875   3.33950   3.35629   3.40528
 Alpha virt. eigenvalues --    3.45950   3.46620   3.50064   3.58556   3.60630
 Alpha virt. eigenvalues --    3.64192   3.69275   3.72780   3.78625   3.92202
 Alpha virt. eigenvalues --    3.99554   4.05304   4.09925   4.20699   4.22054
 Alpha virt. eigenvalues --    4.26068   4.27271   4.38249   4.43274   4.53899
 Alpha virt. eigenvalues --    4.66220   5.53778   5.57655   5.62856   5.75456
 Alpha virt. eigenvalues --    5.84601   5.90595   6.11641   6.20211   6.42298
 Alpha virt. eigenvalues --   24.48745  24.99411  25.00958  25.13989  26.05080
 Alpha virt. eigenvalues --   51.53412  51.59218  51.70501
  Beta  occ. eigenvalues --  -20.62099 -20.60008 -20.57339 -11.42062 -11.30333
  Beta  occ. eigenvalues --  -11.27976 -11.26410 -11.23079  -1.49260  -1.39506
  Beta  occ. eigenvalues --   -1.34333  -1.08765  -1.03948  -0.91957  -0.83371
  Beta  occ. eigenvalues --   -0.76777  -0.72625  -0.70742  -0.67568  -0.64269
  Beta  occ. eigenvalues --   -0.59434  -0.58620  -0.56339  -0.54817  -0.52545
  Beta  occ. eigenvalues --   -0.51308  -0.49638  -0.48145  -0.44188  -0.43736
  Beta virt. eigenvalues --   -0.00686   0.04023   0.05642   0.05902   0.06386
  Beta virt. eigenvalues --    0.07381   0.08144   0.09086   0.09905   0.11601
  Beta virt. eigenvalues --    0.12553   0.13277   0.13617   0.14800   0.15493
  Beta virt. eigenvalues --    0.16426   0.17876   0.18321   0.18539   0.19100
  Beta virt. eigenvalues --    0.19282   0.20025   0.21246   0.22654   0.23422
  Beta virt. eigenvalues --    0.24163   0.25440   0.26421   0.27931   0.28660
  Beta virt. eigenvalues --    0.29047   0.30060   0.31663   0.31919   0.33573
  Beta virt. eigenvalues --    0.33908   0.35117   0.36090   0.36711   0.37419
  Beta virt. eigenvalues --    0.38922   0.39455   0.40632   0.42148   0.42720
  Beta virt. eigenvalues --    0.43312   0.45317   0.46523   0.47252   0.48368
  Beta virt. eigenvalues --    0.50114   0.52554   0.57453   0.59484   0.60411
  Beta virt. eigenvalues --    0.62618   0.63429   0.67839   0.70934   0.72144
  Beta virt. eigenvalues --    0.74473   0.77220   0.78889   0.79812   0.82494
  Beta virt. eigenvalues --    0.83406   0.85059   0.86594   0.88616   0.88774
  Beta virt. eigenvalues --    0.89474   0.90315   0.93583   0.93900   0.97226
  Beta virt. eigenvalues --    0.98403   1.05688   1.09428   1.11680   1.18026
  Beta virt. eigenvalues --    1.19441   1.23274   1.24544   1.28560   1.32365
  Beta virt. eigenvalues --    1.34002   1.35445   1.37048   1.37597   1.38182
  Beta virt. eigenvalues --    1.41376   1.41790   1.44151   1.47950   1.50595
  Beta virt. eigenvalues --    1.53717   1.54864   1.57210   1.58851   1.60023
  Beta virt. eigenvalues --    1.66786   1.68469   1.72603   1.72905   1.79385
  Beta virt. eigenvalues --    1.79887   1.81197   1.82702   1.84894   1.85116
  Beta virt. eigenvalues --    1.87741   1.89175   1.90077   1.93324   1.95296
  Beta virt. eigenvalues --    1.96895   1.98392   2.03280   2.07492   2.11257
  Beta virt. eigenvalues --    2.14486   2.19150   2.23320   2.27714   2.30327
  Beta virt. eigenvalues --    2.34787   2.40022   2.41411   2.48130   2.57003
  Beta virt. eigenvalues --    2.59593   2.63228   2.69893   2.75483   2.80038
  Beta virt. eigenvalues --    2.82082   2.83891   2.84768   2.91927   2.92250
  Beta virt. eigenvalues --    2.95284   2.98454   3.01141   3.03831   3.05301
  Beta virt. eigenvalues --    3.09735   3.13326   3.14664   3.21642   3.23868
  Beta virt. eigenvalues --    3.26536   3.28820   3.32328   3.34110   3.38471
  Beta virt. eigenvalues --    3.40728   3.46190   3.47657   3.51093   3.58640
  Beta virt. eigenvalues --    3.63090   3.64647   3.70051   3.73844   3.77746
  Beta virt. eigenvalues --    3.95194   3.99368   4.05665   4.11291   4.20730
  Beta virt. eigenvalues --    4.22073   4.26203   4.30067   4.38491   4.43537
  Beta virt. eigenvalues --    4.53867   4.66208   5.55343   5.57518   5.61269
  Beta virt. eigenvalues --    5.75075   5.88393   5.90540   6.13702   6.20036
  Beta virt. eigenvalues --    6.42169  24.50569  24.99826  25.00959  25.13991
  Beta virt. eigenvalues --   26.06113  51.54466  51.59186  51.70162
          Condensed to atoms (all electrons):
               1          2          3          4          5          6
     1  O    7.754821   0.307612   0.004723   0.293701  -0.015332   0.008184
     2  H    0.307612   0.434683   0.026789  -0.043592  -0.000108   0.004646
     3  C    0.004723   0.026789   5.990612   0.032655  -0.469416   1.113460
     4  H    0.293701  -0.043592   0.032655   0.373744  -0.087084   0.053413
     5  C   -0.015332  -0.000108  -0.469416  -0.087084  12.263336  -6.683410
     6  C    0.008184   0.004646   1.113460   0.053413  -6.683410  12.119207
     7  O    0.000098  -0.000117  -0.065952  -0.000061   0.282819   0.155777
     8  O    0.000063   0.000014  -0.068951  -0.001305  -0.215599   0.102861
     9  C   -0.000043  -0.000032   0.022821   0.000422  -0.357215   0.150294
    10  C   -0.000023   0.000014  -0.014341  -0.000115   0.024412  -0.099639
    11  H    0.000011   0.000007   0.002200  -0.000001  -0.016040   0.011819
    12  H    0.000006  -0.000010   0.001070   0.000059  -0.022349   0.010308
    13  H   -0.000003   0.000000  -0.001734  -0.000022   0.009098  -0.013196
    14  H    0.000017  -0.000002   0.001510   0.000024  -0.002060   0.003951
    15  H    0.000002   0.000002   0.002032  -0.000011  -0.035536   0.019461
               7          8          9         10         11         12
     1  O    0.000098   0.000063  -0.000043  -0.000023   0.000011   0.000006
     2  H   -0.000117   0.000014  -0.000032   0.000014   0.000007  -0.000010
     3  C   -0.065952  -0.068951   0.022821  -0.014341   0.002200   0.001070
     4  H   -0.000061  -0.001305   0.000422  -0.000115  -0.000001   0.000059
     5  C    0.282819  -0.215599  -0.357215   0.024412  -0.016040  -0.022349
     6  C    0.155777   0.102861   0.150294  -0.099639   0.011819   0.010308
     7  O    8.058288  -0.109658   0.034083  -0.060480   0.002343  -0.023662
     8  O   -0.109658   8.331850   0.224561  -0.077600  -0.079288  -0.016285
     9  C    0.034083   0.224561   5.338337  -0.027284   0.440374   0.442273
    10  C   -0.060480  -0.077600  -0.027284   5.467675  -0.047870  -0.037827
    11  H    0.002343  -0.079288   0.440374  -0.047870   0.550554  -0.035367
    12  H   -0.023662  -0.016285   0.442273  -0.037827  -0.035367   0.512633
    13  H   -0.001028   0.017364  -0.044438   0.407901   0.000594  -0.004348
    14  H    0.002874  -0.007494  -0.030247   0.415792  -0.005999  -0.000016
    15  H   -0.002236  -0.014050  -0.027826   0.409356   0.007604  -0.002845
              13         14         15
     1  O   -0.000003   0.000017   0.000002
     2  H    0.000000  -0.000002   0.000002
     3  C   -0.001734   0.001510   0.002032
     4  H   -0.000022   0.000024  -0.000011
     5  C    0.009098  -0.002060  -0.035536
     6  C   -0.013196   0.003951   0.019461
     7  O   -0.001028   0.002874  -0.002236
     8  O    0.017364  -0.007494  -0.014050
     9  C   -0.044438  -0.030247  -0.027826
    10  C    0.407901   0.415792   0.409356
    11  H    0.000594  -0.005999   0.007604
    12  H   -0.004348  -0.000016  -0.002845
    13  H    0.558472  -0.032007  -0.033559
    14  H   -0.032007   0.554287  -0.046308
    15  H   -0.033559  -0.046308   0.550587
          Atomic-Atomic Spin Densities.
               1          2          3          4          5          6
     1  O    0.406919   0.003551  -0.087727   0.031560  -0.027351   0.017138
     2  H    0.003551  -0.019558   0.000850  -0.000532   0.000420  -0.001572
     3  C   -0.087727   0.000850   2.102395  -0.073978  -0.162480   0.072237
     4  H    0.031560  -0.000532  -0.073978  -0.082556  -0.023070   0.020196
     5  C   -0.027351   0.000420  -0.162480  -0.023070  -0.547965  -0.427119
     6  C    0.017138  -0.001572   0.072237   0.020196  -0.427119   0.542288
     7  O    0.000046  -0.000034   0.000798   0.000064   0.000617   0.035896
     8  O    0.000049   0.000010  -0.002874  -0.000082   0.086241  -0.095310
     9  C    0.000051   0.000018   0.001467  -0.000107   0.015954  -0.004254
    10  C    0.000006   0.000005  -0.001337  -0.000092  -0.002547  -0.002610
    11  H    0.000007  -0.000001   0.000697   0.000026  -0.000436   0.001457
    12  H    0.000006   0.000001  -0.000744  -0.000011   0.008498  -0.005659
    13  H   -0.000001   0.000001  -0.000279  -0.000011   0.001463  -0.001104
    14  H   -0.000001  -0.000001   0.000050   0.000016   0.001347  -0.001022
    15  H    0.000007   0.000001  -0.000315  -0.000017   0.003645  -0.002091
               7          8          9         10         11         12
     1  O    0.000046   0.000049   0.000051   0.000006   0.000007   0.000006
     2  H   -0.000034   0.000010   0.000018   0.000005  -0.000001   0.000001
     3  C    0.000798  -0.002874   0.001467  -0.001337   0.000697  -0.000744
     4  H    0.000064  -0.000082  -0.000107  -0.000092   0.000026  -0.000011
     5  C    0.000617   0.086241   0.015954  -0.002547  -0.000436   0.008498
     6  C    0.035896  -0.095310  -0.004254  -0.002610   0.001457  -0.005659
     7  O   -0.168675   0.000128   0.004932  -0.001428   0.000374  -0.000012
     8  O    0.000128   0.018822  -0.007859   0.005483  -0.000018   0.000133
     9  C    0.004932  -0.007859  -0.000325  -0.001559  -0.001269  -0.003568
    10  C   -0.001428   0.005483  -0.001559  -0.000811   0.001078   0.001432
    11  H    0.000374  -0.000018  -0.001269   0.001078  -0.001234  -0.000565
    12  H   -0.000012   0.000133  -0.003568   0.001432  -0.000565   0.000469
    13  H    0.000199  -0.000070  -0.000282  -0.000161   0.000007   0.000168
    14  H   -0.000238  -0.000187  -0.000718   0.001102  -0.000060  -0.000020
    15  H    0.000340  -0.001153  -0.000107   0.000219  -0.000307  -0.000232
              13         14         15
     1  O   -0.000001  -0.000001   0.000007
     2  H    0.000001  -0.000001   0.000001
     3  C   -0.000279   0.000050  -0.000315
     4  H   -0.000011   0.000016  -0.000017
     5  C    0.001463   0.001347   0.003645
     6  C   -0.001104  -0.001022  -0.002091
     7  O    0.000199  -0.000238   0.000340
     8  O   -0.000070  -0.000187  -0.001153
     9  C   -0.000282  -0.000718  -0.000107
    10  C   -0.000161   0.001102   0.000219
    11  H    0.000007  -0.000060  -0.000307
    12  H    0.000168  -0.000020  -0.000232
    13  H   -0.000492   0.000218   0.000221
    14  H    0.000218  -0.000448  -0.000153
    15  H    0.000221  -0.000153  -0.000215
 Mulliken charges and spin densities:
               1          2
     1  O   -0.353838   0.344260
     2  H    0.270095  -0.016843
     3  C   -0.577481   1.848762
     4  H    0.378173  -0.128593
     5  C    1.324484  -1.072784
     6  C   -0.957136   0.148471
     7  O   -0.273089  -0.126994
     8  O   -0.086483   0.003313
     9  C   -0.166081   0.002375
    10  C   -0.359973  -0.001219
    11  H    0.169059  -0.000245
    12  H    0.176360  -0.000106
    13  H    0.136905  -0.000122
    14  H    0.145677  -0.000117
    15  H    0.173326  -0.000158
 Sum of Mulliken charges =  -0.00000   1.00000
 Mulliken charges and spin densities with hydrogens summed into heavy atoms:
               1          2
     1  O    0.294430   0.198824
     3  C   -0.577481   1.848762
     5  C    1.324484  -1.072784
     6  C   -0.957136   0.148471
     7  O   -0.273089  -0.126994
     8  O   -0.086483   0.003313
     9  C    0.179338   0.002024
    10  C    0.095936  -0.001615
 Electronic spatial extent (au):  <R**2>=           1685.5034
 Charge=             -0.0000 electrons
 Dipole moment (field-independent basis, Debye):
    X=             -1.6111    Y=             -0.6225    Z=             -1.2210  Tot=              2.1152
 Quadrupole moment (field-independent basis, Debye-Ang):
   XX=            -42.2445   YY=            -52.2209   ZZ=            -47.8468
   XY=              7.7119   XZ=             -4.0283   YZ=             -0.2824
 Traceless Quadrupole moment (field-independent basis, Debye-Ang):
   XX=              5.1929   YY=             -4.7835   ZZ=             -0.4094
   XY=              7.7119   XZ=             -4.0283   YZ=             -0.2824
 Octapole moment (field-independent basis, Debye-Ang**2):
  XXX=            -39.9283  YYY=             -6.3544  ZZZ=             -2.0397  XYY=              9.2408
  XXY=             26.5154  XXZ=            -25.0235  XZZ=             -4.4783  YZZ=              1.4883
  YYZ=             -0.0089  XYZ=              0.1229
 Hexadecapole moment (field-independent basis, Debye-Ang**3):
 XXXX=          -1908.6266 YYYY=           -189.4540 ZZZZ=           -122.1871 XXXY=            166.8888
 XXXZ=            -78.8013 YYYX=              9.7955 YYYZ=              0.9798 ZZZX=              6.6248
 ZZZY=              0.0960 XXYY=           -308.8585 XXZZ=           -339.4551 YYZZ=            -47.4696
 XXYZ=              5.1523 YYXZ=              2.9706 ZZXY=              1.1958
 N-N= 3.350582271011D+02 E-N=-1.652552391401D+03  KE= 4.176834561084D+02
 1\1\GINC-AJ\SP\UCCSD(T)-FC\6-311++G(d,p)\C5H7O3(2)\AAYUSH\18-Aug-2025\
 0\\# ccsd(t)/6-311++g(d,p) sp\\Title Card Required\\0,2\O,0,4.497708,-
 0.267308,0.33449\H,0,4.5366,0.627746,-0.02909\C,0,2.196839,-0.323465,-
 0.063881\H,0,3.636802,-0.674089,-0.063778\C,0,1.039169,0.014702,-0.093
 307\C,0,-0.366889,0.389876,-0.177754\O,0,-0.752084,1.518649,-0.050659\
 O,0,-1.134815,-0.670311,-0.412508\C,0,-2.55372,-0.419776,-0.497726\C,0
 ,-3.168174,-0.29737,0.882572\H,0,-2.940547,-1.282476,-1.036819\H,0,-2.
 713621,0.482268,-1.089383\H,0,-4.250052,-0.183698,0.791207\H,0,-2.9629
 99,-1.192677,1.471153\H,0,-2.773877,0.574599,1.40463\\Version=ES64L-G1
 6RevA.03\State=2-A\HF=-417.9363654\MP2=-419.2033798\MP3=-419.2274807\M
 P4D=-419.2581223\MP4DQ=-419.2342798\PUHF=-417.9661958\PMP2-0=-419.2302
 154\PMP3-0=-419.2490857\MP4SDQ=-419.2571416\CCSD=-419.2677541\CCSD(T)=
 -419.3231211\S2=1.158267\S2-1=1.061015\S2A=0.881006\RMSD=7.137e-09\PG=
 C01 [X(C5H7O3)]\\@


 I WISH TO HAVE NO CONNECTION WITH ANY SHIP THAT DOES NOT SAIL FAST,
 FOR I INTEND TO GO IN HARM'S WAY.
     -- JOHN PAUL JONES, USN 1747-1792
 Job cpu time:       0 days 20 hours  9 minutes 18.1 seconds.
 Elapsed time:       0 days  0 hours 50 minutes 37.9 seconds.
 File lengths (MBytes):  RWF=  44258 Int=      0 D2E=      0 Chk=      7 Scr=      1
 Normal termination of Gaussian 16 at Mon Aug 18 19:01:36 2025.
