 Entering Gaussian System, Link 0=g16
 Initial command:
 /opt/g16/l1.exe "/home/aayush/scratches/g16/Gau-5109.inp" -scrdir="/home/aayush/scratches/g16/"
 Entering Link 1 = /opt/g16/l1.exe PID=      5112.
  
 Copyright (c) 1988,1990,1992,1993,1995,1998,2003,2009,2016,
            Gaussian, Inc.  All Rights Reserved.
  
 This is part of the Gaussian(R) 16 program.  It is based on
 the Gaussian(R) 09 system (copyright 2009, Gaussian, Inc.),
 the Gaussian(R) 03 system (copyright 2003, Gaussian, Inc.),
 the Gaussian(R) 98 system (copyright 1998, Gaussian, Inc.),
 the Gaussian(R) 94 system (copyright 1995, Gaussian, Inc.),
 the Gaussian 92(TM) system (copyright 1992, Gaussian, Inc.),
 the Gaussian 90(TM) system (copyright 1990, Gaussian, Inc.),
 the Gaussian 88(TM) system (copyright 1988, Gaussian, Inc.),
 the Gaussian 86(TM) system (copyright 1986, Carnegie Mellon
 University), and the Gaussian 82(TM) system (copyright 1983,
 Carnegie Mellon University). Gaussian is a federally registered
 trademark of Gaussian, Inc.
  
 This software contains proprietary and confidential information,
 including trade secrets, belonging to Gaussian, Inc.
  
 This software is provided under written license and may be
 used, copied, transmitted, or stored only in accord with that
 written license.
  
 The following legend is applicable only to US Government
 contracts under FAR:
  
                    RESTRICTED RIGHTS LEGEND
  
 Use, reproduction and disclosure by the US Government is
 subject to restrictions as set forth in subparagraphs (a)
 and (c) of the Commercial Computer Software - Restricted
 Rights clause in FAR 52.227-19.
  
 Gaussian, Inc.
 340 Quinnipiac St., Bldg. 40, Wallingford CT 06492
  
  
 ---------------------------------------------------------------
 Warning -- This program may not be used in any manner that
 competes with the business of Gaussian, Inc. or will provide
 assistance to any competitor of Gaussian, Inc.  The licensee
 of this program is prohibited from giving any competitor of
 Gaussian, Inc. access to this program.  By using this program,
 the user acknowledges that Gaussian, Inc. is engaged in the
 business of creating and licensing software in the field of
 computational chemistry and represents and warrants to the
 licensee that it is not a competitor of Gaussian, Inc. and that
 it will not use this program in any manner prohibited above.
 ---------------------------------------------------------------
  

 Cite this work as:
 Gaussian 16, Revision A.03,
 M. J. Frisch, G. W. Trucks, H. B. Schlegel, G. E. Scuseria, 
 M. A. Robb, J. R. Cheeseman, G. Scalmani, V. Barone, 
 G. A. Petersson, H. Nakatsuji, X. Li, M. Caricato, A. V. Marenich, 
 J. Bloino, B. G. Janesko, R. Gomperts, B. Mennucci, H. P. Hratchian, 
 J. V. Ortiz, A. F. Izmaylov, J. L. Sonnenberg, D. Williams-Young, 
 F. Ding, F. Lipparini, F. Egidi, J. Goings, B. Peng, A. Petrone, 
 T. Henderson, D. Ranasinghe, V. G. Zakrzewski, J. Gao, N. Rega, 
 G. Zheng, W. Liang, M. Hada, M. Ehara, K. Toyota, R. Fukuda, 
 J. Hasegawa, M. Ishida, T. Nakajima, Y. Honda, O. Kitao, H. Nakai, 
 T. Vreven, K. Throssell, J. A. Montgomery, Jr., J. E. Peralta, 
 F. Ogliaro, M. J. Bearpark, J. J. Heyd, E. N. Brothers, K. N. Kudin, 
 V. N. Staroverov, T. A. Keith, R. Kobayashi, J. Normand, 
 K. Raghavachari, A. P. Rendell, J. C. Burant, S. S. Iyengar, 
 J. Tomasi, M. Cossi, J. M. Millam, M. Klene, C. Adamo, R. Cammi, 
 J. W. Ochterski, R. L. Martin, K. Morokuma, O. Farkas, 
 J. B. Foresman, and D. J. Fox, Gaussian, Inc., Wallingford CT, 2016.
 
 ******************************************
 Gaussian 16:  ES64L-G16RevA.03 25-Dec-2016
                20-Jun-2025 
 ******************************************
 %nprocshared=24
 Will use up to   24 processors via shared memory.
 %mem=12GB
 %chk=ethyl_propiolate_ts1.chk
 -------------------
 # freq 6-31+g m062x
 -------------------
 1/10=4,30=1,38=1/1,3;
 2/12=2,17=6,18=5,40=1/2;
 3/5=1,6=6,7=10,11=2,25=1,30=1,71=2,74=-55,140=1/1,2,3;
 4//1;
 5/5=2,38=5,98=1/2;
 8/6=4,10=90,11=11/1;
 11/6=1,8=1,9=11,15=111,16=1/1,2,10;
 10/6=1/2;
 6/7=2,8=2,9=2,10=2,28=1/1;
 7/8=1,10=1,25=1/1,2,3,16;
 1/10=4,30=1/3;
 99//99;
 -------------------
 Title Card Required
 -------------------
 Symbolic Z-matrix:
 Charge =  0 Multiplicity = 2
 O                     4.49777  -0.2675    0.33272 
 H                     4.54471   0.63683  -0.01769 
 C                     2.203    -0.32472  -0.06491 
 H                     3.46089  -0.63357  -0.03433 
 C                     1.04371   0.01199  -0.09412 
 C                    -0.36479   0.38998  -0.17702 
 O                    -0.75197   1.51849  -0.05075 
 O                    -1.13445  -0.67025  -0.41241 
 C                    -2.55333  -0.41968  -0.49768 
 C                    -3.16815  -0.29736   0.88256 
 H                    -2.94025  -1.2824   -1.03679 
 H                    -2.71347   0.48239  -1.08925 
 H                    -4.25006  -0.18371   0.79117 
 H                    -2.96294  -1.19267   1.47115 
 H                    -2.77379   0.57459   1.4046 
 

 GradGradGradGradGradGradGradGradGradGradGradGradGradGradGradGradGradGrad
 Berny optimization.
 Initialization pass.
 Trust Radius=3.00D-01 FncErr=1.00D-07 GrdErr=1.00D-07 EigMax=2.50D+02 EigMin=1.00D-04
 Number of steps in this run=      2 maximum allowed number of steps=      2.
 GradGradGradGradGradGradGradGradGradGradGradGradGradGradGradGradGradGrad

                          Input orientation:                          
 ---------------------------------------------------------------------
 Center     Atomic      Atomic             Coordinates (Angstroms)
 Number     Number       Type             X           Y           Z
 ---------------------------------------------------------------------
      1          8           0        4.497773   -0.267496    0.332724
      2          1           0        4.544712    0.636832   -0.017686
      3          6           0        2.202996   -0.324722   -0.064906
      4          1           0        3.460894   -0.633571   -0.034328
      5          6           0        1.043713    0.011986   -0.094122
      6          6           0       -0.364789    0.389977   -0.177016
      7          8           0       -0.751968    1.518493   -0.050745
      8          8           0       -1.134447   -0.670254   -0.412410
      9          6           0       -2.553334   -0.419679   -0.497676
     10          6           0       -3.168151   -0.297358    0.882555
     11          1           0       -2.940254   -1.282395   -1.036787
     12          1           0       -2.713469    0.482385   -1.089252
     13          1           0       -4.250059   -0.183709    0.791172
     14          1           0       -2.962940   -1.192669    1.471145
     15          1           0       -2.773791    0.574587    1.404599
 ---------------------------------------------------------------------
                    Distance matrix (angstroms):
                    1          2          3          4          5
     1  O    0.000000
     2  H    0.970979   0.000000
     3  C    2.329675   2.531887   0.000000
     4  H    1.159248   1.669989   1.295620   0.000000
     5  C    3.491538   3.557143   1.207544   2.502615   0.000000
     6  C    4.933215   4.918285   2.667749   3.962810   1.460694
     7  O    5.558470   5.369659   3.482737   4.730735   2.344337
     8  O    5.695554   5.840987   3.373229   4.611014   2.304591
     9  C    7.101467   7.192278   4.776922   6.035841   3.645262
    10  C    7.685675   7.821215   5.454141   6.700593   4.334673
    11  H    7.630847   7.794018   5.321157   6.511574   4.293720
    12  H    7.388257   7.338481   5.086485   6.362467   3.915096
    13  H    8.760237   8.869923   6.511119   7.768051   5.370853
    14  H    7.603564   7.869468   5.458908   6.621532   4.467049
    15  H    7.398220   7.455686   5.266556   6.511640   4.139568
                    6          7          8          9         10
     6  C    0.000000
     7  O    1.199750   0.000000
     8  O    1.331117   2.251156   0.000000
     9  C    2.355439   2.683501   1.443364   0.000000
    10  C    3.074729   3.163274   2.439659   1.515916   0.000000
    11  H    3.188895   3.688611   2.006365   1.088406   2.169357
    12  H    2.521311   2.449388   2.068817   1.090562   2.168584
    13  H    4.044975   3.980321   3.375259   2.143755   1.091692
    14  H    3.459999   3.815094   2.676581   2.154425   1.090931
    15  H    2.887711   2.663973   2.745651   2.157734   1.090109
                   11         12         13         14         15
    11  H    0.000000
    12  H    1.780065   0.000000
    13  H    2.502825   2.518091   0.000000
    14  H    2.509639   3.069800   1.771169   0.000000
    15  H    3.071882   2.496284   1.769371   1.778595   0.000000
 Stoichiometry    C5H7O3(2)
 Framework group  C1[X(C5H7O3)]
 Deg. of freedom    39
 Full point group                 C1      NOp   1
 Largest Abelian subgroup         C1      NOp   1
 Largest concise Abelian subgroup C1      NOp   1
                         Standard orientation:                         
 ---------------------------------------------------------------------
 Center     Atomic      Atomic             Coordinates (Angstroms)
 Number     Number       Type             X           Y           Z
 ---------------------------------------------------------------------
      1          8           0        4.559645   -0.256634    0.320619
      2          1           0        4.607003    0.647672   -0.029791
      3          6           0        2.264842   -0.312798   -0.077011
      4          1           0        3.522597   -0.622229   -0.046433
      5          6           0        1.105715    0.024447   -0.106227
      6          6           0       -0.302612    0.403090   -0.189121
      7          8           0       -0.689268    1.531786   -0.062850
      8          8           0       -1.072761   -0.656784   -0.424515
      9          6           0       -2.491531   -0.405552   -0.509781
     10          6           0       -3.106292   -0.282946    0.870450
     11          1           0       -2.878851   -1.268089   -1.048892
     12          1           0       -2.651249    0.496586   -1.101357
     13          1           0       -4.188147   -0.168796    0.779067
     14          1           0       -2.901495   -1.178352    1.459040
     15          1           0       -2.711528    0.588816    1.392494
 ---------------------------------------------------------------------
 Rotational constants (GHZ):           6.2892430           0.6893468           0.6609240
 Standard basis: 6-31+G (6D, 7F)
 There are   118 symmetry adapted cartesian basis functions of A   symmetry.
 There are   118 symmetry adapted basis functions of A   symmetry.
   118 basis functions,   236 primitive gaussians,   118 cartesian basis functions
    31 alpha electrons       30 beta electrons
       nuclear repulsion energy       334.9660307455 Hartrees.
 NAtoms=   15 NActive=   15 NUniq=   15 SFac= 1.00D+00 NAtFMM=   60 NAOKFM=F Big=F
 Integral buffers will be    131072 words long.
 Raffenetti 2 integral format.
 Two-electron integral symmetry is turned on.
 One-electron integrals computed using PRISM.
 NBasis=   118 RedAO= T EigKep=  1.04D-06  NBF=   118
 NBsUse=   118 1.00D-06 EigRej= -1.00D+00 NBFU=   118
 ExpMin= 4.38D-02 ExpMax= 5.48D+03 ExpMxC= 8.25D+02 IAcc=3 IRadAn=         5 AccDes= 0.00D+00
 Harris functional with IExCor= 1009 and IRadAn=       5 diagonalized for initial guess.
 HarFok:  IExCor= 1009 AccDes= 0.00D+00 IRadAn=         5 IDoV= 1 UseB2=F ITyADJ=14
 ICtDFT=  3500011 ScaDFX=  1.000000  1.000000  1.000000  1.000000
 FoFCou: FMM=F IPFlag=           0 FMFlag=      100000 FMFlg1=           0
         NFxFlg=           0 DoJE=T BraDBF=F KetDBF=T FulRan=T
         wScrn=  0.000000 ICntrl=       500 IOpCl=  0 I1Cent=   200000004 NGrid=           0
         NMat0=    1 NMatS0=      1 NMatT0=    0 NMatD0=    1 NMtDS0=    0 NMtDT0=    0
 Petite list used in FoFCou.
 Initial guess <Sx>= 0.0000 <Sy>= 0.0000 <Sz>= 0.5000 <S**2>= 0.7500 S= 0.5000
 Requested convergence on RMS density matrix=1.00D-08 within 128 cycles.
 Requested convergence on MAX density matrix=1.00D-06.
 Requested convergence on             energy=1.00D-06.
 No special actions if energy rises.
 Restarting incremental Fock formation.
 SCF Done:  E(UM062X) =  -419.924266003     A.U. after   24 cycles
            NFock= 24  Conv=0.20D-08     -V/T= 2.0050
 <Sx>= 0.0000 <Sy>= 0.0000 <Sz>= 0.5000 <S**2>= 0.7615 S= 0.5057
 <L.S>=  0.00000000000    
 Annihilation of the first spin contaminant:
 S**2 before annihilation     0.7615,   after     0.7501
 DoSCS=F DFT=T ScalE2(SS,OS)=  1.000000  1.000000
 Range of M.O.s used for correlation:     1   118
 NBasis=   118 NAE=    31 NBE=    30 NFC=     0 NFV=     0
 NROrb=    118 NOA=    31 NOB=    30 NVA=    87 NVB=    88

 **** Warning!!: The largest alpha MO coefficient is  0.27787415D+03


 **** Warning!!: The largest beta MO coefficient is  0.28705013D+03

 Symmetrizing basis deriv contribution to polar:
 IMax=3 JMax=2 DiffMx= 0.00D+00
 G2DrvN: will do    16 centers at a time, making    1 passes.
 Calling FoFCou, ICntrl=  3107 FMM=F I1Cent=   0 AccDes= 0.00D+00.
 End of G2Drv F.D. properties file   721 does not exist.
 End of G2Drv F.D. properties file   722 does not exist.
 End of G2Drv F.D. properties file   788 does not exist.
          IDoAtm=111111111111111
          Differentiating once with respect to electric field.
                with respect to dipole field.
          Differentiating once with respect to nuclear coordinates.
 Keep R1 and R2 ints in memory in canonical form, NReq=71861356.
          There are    48 degrees of freedom in the 1st order CPHF.  IDoFFX=6 NUNeed=     3.
     45 vectors produced by pass  0 Test12= 1.11D-14 2.08D-09 XBig12= 1.33D+02 4.23D+00.
 AX will form    45 AO Fock derivatives at one time.
     45 vectors produced by pass  1 Test12= 1.11D-14 2.08D-09 XBig12= 2.86D+01 9.92D-01.
     45 vectors produced by pass  2 Test12= 1.11D-14 2.08D-09 XBig12= 1.13D+00 1.95D-01.
     45 vectors produced by pass  3 Test12= 1.11D-14 2.08D-09 XBig12= 9.42D-03 1.33D-02.
     45 vectors produced by pass  4 Test12= 1.11D-14 2.08D-09 XBig12= 1.04D-04 1.87D-03.
     45 vectors produced by pass  5 Test12= 1.11D-14 2.08D-09 XBig12= 9.54D-07 1.23D-04.
     33 vectors produced by pass  6 Test12= 1.11D-14 2.08D-09 XBig12= 5.97D-09 8.51D-06.
     13 vectors produced by pass  7 Test12= 1.11D-14 2.08D-09 XBig12= 3.79D-11 7.33D-07.
      3 vectors produced by pass  8 Test12= 1.11D-14 2.08D-09 XBig12= 2.55D-13 4.43D-08.
      2 vectors produced by pass  9 Test12= 1.11D-14 2.08D-09 XBig12= 2.54D-15 5.61D-09.
      1 vectors produced by pass 10 Test12= 1.11D-14 2.08D-09 XBig12= 3.19D-16 2.89D-09.
 InvSVY:  IOpt=1 It=  1 EMax= 8.88D-15
 Solved reduced A of dimension   322 with    48 vectors.
 Isotropic polarizability for W=    0.000000       78.11 Bohr**3.
 End of Minotr F.D. properties file   721 does not exist.
 End of Minotr F.D. properties file   722 does not exist.
 End of Minotr F.D. properties file   788 does not exist.

 **********************************************************************

            Population analysis using the SCF density.

 **********************************************************************

 Orbital symmetries:
 Alpha Orbitals:
       Occupied  (A) (A) (A) (A) (A) (A) (A) (A) (A) (A) (A) (A)
                 (A) (A) (A) (A) (A) (A) (A) (A) (A) (A) (A) (A)
                 (A) (A) (A) (A) (A) (A) (A)
       Virtual   (A) (A) (A) (A) (A) (A) (A) (A) (A) (A) (A) (A)
                 (A) (A) (A) (A) (A) (A) (A) (A) (A) (A) (A) (A)
                 (A) (A) (A) (A) (A) (A) (A) (A) (A) (A) (A) (A)
                 (A) (A) (A) (A) (A) (A) (A) (A) (A) (A) (A) (A)
                 (A) (A) (A) (A) (A) (A) (A) (A) (A) (A) (A) (A)
                 (A) (A) (A) (A) (A) (A) (A) (A) (A) (A) (A) (A)
                 (A) (A) (A) (A) (A) (A) (A) (A) (A) (A) (A) (A)
                 (A) (A) (A)
 Beta  Orbitals:
       Occupied  (A) (A) (A) (A) (A) (A) (A) (A) (A) (A) (A) (A)
                 (A) (A) (A) (A) (A) (A) (A) (A) (A) (A) (A) (A)
                 (A) (A) (A) (A) (A) (A)
       Virtual   (A) (A) (A) (A) (A) (A) (A) (A) (A) (A) (A) (A)
                 (A) (A) (A) (A) (A) (A) (A) (A) (A) (A) (A) (A)
                 (A) (A) (A) (A) (A) (A) (A) (A) (A) (A) (A) (A)
                 (A) (A) (A) (A) (A) (A) (A) (A) (A) (A) (A) (A)
                 (A) (A) (A) (A) (A) (A) (A) (A) (A) (A) (A) (A)
                 (A) (A) (A) (A) (A) (A) (A) (A) (A) (A) (A) (A)
                 (A) (A) (A) (A) (A) (A) (A) (A) (A) (A) (A) (A)
                 (A) (A) (A) (A)
 The electronic state is 2-A.
 Alpha  occ. eigenvalues --  -19.73446 -19.70984 -19.66638 -10.73329 -10.61860
 Alpha  occ. eigenvalues --  -10.60457 -10.58964 -10.54840  -1.28346  -1.20543
 Alpha  occ. eigenvalues --   -1.18972  -0.91382  -0.87972  -0.78797  -0.71697
 Alpha  occ. eigenvalues --   -0.68146  -0.64651  -0.58745  -0.57557  -0.57054
 Alpha  occ. eigenvalues --   -0.54416  -0.49841  -0.47312  -0.47109  -0.45704
 Alpha  occ. eigenvalues --   -0.43675  -0.42243  -0.39706  -0.38637  -0.37813
 Alpha  occ. eigenvalues --   -0.36851
 Alpha virt. eigenvalues --   -0.01978   0.01248   0.02155   0.03430   0.04091
 Alpha virt. eigenvalues --    0.04717   0.04983   0.06555   0.07463   0.08398
 Alpha virt. eigenvalues --    0.08850   0.09060   0.09321   0.10682   0.12441
 Alpha virt. eigenvalues --    0.13169   0.14292   0.15540   0.16511   0.16819
 Alpha virt. eigenvalues --    0.18520   0.19442   0.20070   0.21502   0.22036
 Alpha virt. eigenvalues --    0.23562   0.24639   0.25141   0.25998   0.26480
 Alpha virt. eigenvalues --    0.27507   0.28213   0.28872   0.29756   0.30532
 Alpha virt. eigenvalues --    0.31072   0.32573   0.33051   0.34144   0.35303
 Alpha virt. eigenvalues --    0.36107   0.38271   0.39372   0.41727   0.43511
 Alpha virt. eigenvalues --    0.47094   0.57947   0.64372   0.68614   0.69517
 Alpha virt. eigenvalues --    0.70660   0.73071   0.74553   0.75666   0.76591
 Alpha virt. eigenvalues --    0.78946   0.81994   0.85806   0.89581   0.92199
 Alpha virt. eigenvalues --    0.94291   0.97541   1.01488   1.05154   1.08365
 Alpha virt. eigenvalues --    1.09702   1.10948   1.14028   1.15577   1.20175
 Alpha virt. eigenvalues --    1.21742   1.22272   1.24443   1.26337   1.27467
 Alpha virt. eigenvalues --    1.35117   1.35664   1.37304   1.42673   1.44015
 Alpha virt. eigenvalues --    1.47409   1.63141   1.68232   1.75239   1.78753
 Alpha virt. eigenvalues --    2.00703   2.02676
  Beta  occ. eigenvalues --  -19.72165 -19.70990 -19.66637 -10.73316 -10.61860
  Beta  occ. eigenvalues --  -10.59733 -10.58892 -10.54840  -1.28347  -1.18974
  Beta  occ. eigenvalues --   -1.15956  -0.91014  -0.87274  -0.78458  -0.70888
  Beta  occ. eigenvalues --   -0.64926  -0.63732  -0.58752  -0.57103  -0.54518
  Beta  occ. eigenvalues --   -0.51787  -0.49826  -0.47214  -0.45637  -0.43698
  Beta  occ. eigenvalues --   -0.42310  -0.39385  -0.38642  -0.36924  -0.36364
  Beta virt. eigenvalues --   -0.16610  -0.01446   0.01681   0.02226   0.03451
  Beta virt. eigenvalues --    0.04608   0.04792   0.05028   0.06662   0.07646
  Beta virt. eigenvalues --    0.08444   0.08935   0.09080   0.09468   0.10900
  Beta virt. eigenvalues --    0.12570   0.13251   0.14392   0.15597   0.16466
  Beta virt. eigenvalues --    0.17185   0.18684   0.19827   0.20161   0.21259
  Beta virt. eigenvalues --    0.22204   0.23741   0.24739   0.25368   0.26317
  Beta virt. eigenvalues --    0.26532   0.27704   0.28335   0.28887   0.29775
  Beta virt. eigenvalues --    0.30662   0.31097   0.32604   0.33114   0.34391
  Beta virt. eigenvalues --    0.35368   0.36224   0.38463   0.40072   0.41918
  Beta virt. eigenvalues --    0.43660   0.47413   0.58101   0.64956   0.68775
  Beta virt. eigenvalues --    0.69760   0.71356   0.73273   0.74989   0.75765
  Beta virt. eigenvalues --    0.76775   0.79112   0.82202   0.85759   0.90344
  Beta virt. eigenvalues --    0.92283   0.95617   0.99352   1.01449   1.06466
  Beta virt. eigenvalues --    1.08234   1.09721   1.10945   1.13985   1.15551
  Beta virt. eigenvalues --    1.20187   1.22175   1.23417   1.24475   1.27416
  Beta virt. eigenvalues --    1.28812   1.35478   1.37112   1.38027   1.42696
  Beta virt. eigenvalues --    1.44054   1.47507   1.63170   1.68241   1.76282
  Beta virt. eigenvalues --    1.79403   2.00725   2.02698
          Condensed to atoms (all electrons):
               1          2          3          4          5          6
     1  O    8.248141   0.191994   0.360353   0.077561  -0.396911  -0.014927
     2  H    0.191994   0.387992   0.151652  -0.030507  -0.110740  -0.011627
     3  C    0.360353   0.151652  69.359063   0.734230 -33.109831 -30.346497
     4  H    0.077561  -0.030507   0.734230   0.324186  -0.472734  -0.128245
     5  C   -0.396911  -0.110740 -33.109831  -0.472734  39.374804   3.315668
     6  C   -0.014927  -0.011627 -30.346497  -0.128245   3.315668  30.708438
     7  O    0.000268   0.000013  -0.669988  -0.000200  -0.016316   0.819384
     8  O    0.000428  -0.000006  -1.209740  -0.000877  -1.469604   1.966941
     9  C    0.000109   0.000011  -0.430354  -0.000544  -0.475807   0.557652
    10  C    0.000008   0.000008  -0.093643  -0.000086  -0.251261   0.175401
    11  H   -0.000000   0.000000   0.010577   0.000000   0.014281  -0.009263
    12  H    0.000000  -0.000000  -0.002706  -0.000000   0.007502  -0.005146
    13  H   -0.000000   0.000000   0.001452   0.000000   0.008181  -0.000981
    14  H    0.000000  -0.000000   0.004582  -0.000000   0.013656  -0.009425
    15  H   -0.000000   0.000000   0.000854   0.000000  -0.010879   0.004379
               7          8          9         10         11         12
     1  O    0.000268   0.000428   0.000109   0.000008  -0.000000   0.000000
     2  H    0.000013  -0.000006   0.000011   0.000008   0.000000  -0.000000
     3  C   -0.669988  -1.209740  -0.430354  -0.093643   0.010577  -0.002706
     4  H   -0.000200  -0.000877  -0.000544  -0.000086   0.000000  -0.000000
     5  C   -0.016316  -1.469604  -0.475807  -0.251261   0.014281   0.007502
     6  C    0.819384   1.966941   0.557652   0.175401  -0.009263  -0.005146
     7  O    8.495636  -0.246571   0.010570  -0.043259  -0.000622   0.001758
     8  O   -0.246571   9.135123   0.119065   0.019706  -0.068893  -0.034806
     9  C    0.010570   0.119065   5.856832  -0.054924   0.422944   0.422044
    10  C   -0.043259   0.019706  -0.054924   5.743839  -0.056314  -0.076473
    11  H   -0.000622  -0.068893   0.422944  -0.056314   0.499463  -0.032172
    12  H    0.001758  -0.034806   0.422044  -0.076473  -0.032172   0.488603
    13  H   -0.000205   0.007198  -0.075133   0.401015  -0.000773  -0.000738
    14  H   -0.000388  -0.002310  -0.054564   0.391152  -0.004480   0.003761
    15  H    0.001337  -0.008094  -0.046301   0.405558   0.003584  -0.004715
              13         14         15
     1  O   -0.000000   0.000000  -0.000000
     2  H    0.000000  -0.000000   0.000000
     3  C    0.001452   0.004582   0.000854
     4  H    0.000000  -0.000000   0.000000
     5  C    0.008181   0.013656  -0.010879
     6  C   -0.000981  -0.009425   0.004379
     7  O   -0.000205  -0.000388   0.001337
     8  O    0.007198  -0.002310  -0.008094
     9  C   -0.075133  -0.054564  -0.046301
    10  C    0.401015   0.391152   0.405558
    11  H   -0.000773  -0.004480   0.003584
    12  H   -0.000738   0.003761  -0.004715
    13  H    0.499230  -0.025184  -0.023107
    14  H   -0.025184   0.488678  -0.026883
    15  H   -0.023107  -0.026883   0.467809
          Atomic-Atomic Spin Densities.
               1          2          3          4          5          6
     1  O    0.802979   0.001694   0.245207  -0.042106  -0.327770  -0.028267
     2  H    0.001694  -0.025063  -0.013475   0.001926   0.011392   0.000730
     3  C    0.245207  -0.013475   8.334448  -0.181653  -5.880347  -2.407386
     4  H   -0.042106   0.001926  -0.181653  -0.034752   0.179454   0.025911
     5  C   -0.327770   0.011392  -5.880347   0.179454   4.823987   1.437106
     6  C   -0.028267   0.000730  -2.407386   0.025911   1.437106   1.047927
     7  O   -0.000015  -0.000003  -0.000787   0.000008   0.000342   0.000976
     8  O    0.000090  -0.000000   0.028599  -0.000034   0.003278  -0.028151
     9  C   -0.000024   0.000000  -0.015126   0.000047   0.016138   0.000743
    10  C    0.000018   0.000000   0.000112  -0.000004  -0.000639   0.001284
    11  H   -0.000000  -0.000000  -0.000021   0.000000  -0.000049   0.000006
    12  H    0.000000   0.000000   0.000356  -0.000000   0.000009  -0.000395
    13  H   -0.000000  -0.000000   0.000002  -0.000000   0.000007  -0.000026
    14  H   -0.000000   0.000000   0.000069  -0.000000   0.000025  -0.000102
    15  H   -0.000000  -0.000000   0.000116  -0.000000   0.000221  -0.000420
               7          8          9         10         11         12
     1  O   -0.000015   0.000090  -0.000024   0.000018  -0.000000   0.000000
     2  H   -0.000003  -0.000000   0.000000   0.000000  -0.000000   0.000000
     3  C   -0.000787   0.028599  -0.015126   0.000112  -0.000021   0.000356
     4  H    0.000008  -0.000034   0.000047  -0.000004   0.000000  -0.000000
     5  C    0.000342   0.003278   0.016138  -0.000639  -0.000049   0.000009
     6  C    0.000976  -0.028151   0.000743   0.001284   0.000006  -0.000395
     7  O   -0.002575   0.001184   0.000571  -0.000121   0.000005  -0.000039
     8  O    0.001184  -0.004957  -0.000452  -0.000013   0.000002  -0.000021
     9  C    0.000571  -0.000452  -0.002319   0.000645   0.000094   0.000034
    10  C   -0.000121  -0.000013   0.000645  -0.001791   0.000005   0.000027
    11  H    0.000005   0.000002   0.000094   0.000005  -0.000054  -0.000008
    12  H   -0.000039  -0.000021   0.000034   0.000027  -0.000008   0.000006
    13  H   -0.000001   0.000010  -0.000120   0.000188  -0.000000  -0.000003
    14  H   -0.000004  -0.000017   0.000020   0.000013  -0.000002  -0.000000
    15  H    0.000009   0.000001   0.000039   0.000018  -0.000001  -0.000000
              13         14         15
     1  O   -0.000000  -0.000000  -0.000000
     2  H   -0.000000   0.000000  -0.000000
     3  C    0.000002   0.000069   0.000116
     4  H   -0.000000  -0.000000  -0.000000
     5  C    0.000007   0.000025   0.000221
     6  C   -0.000026  -0.000102  -0.000420
     7  O   -0.000001  -0.000004   0.000009
     8  O    0.000010  -0.000017   0.000001
     9  C   -0.000120   0.000020   0.000039
    10  C    0.000188   0.000013   0.000018
    11  H   -0.000000  -0.000002  -0.000001
    12  H   -0.000003  -0.000000  -0.000000
    13  H   -0.000107  -0.000007   0.000000
    14  H   -0.000007   0.000004   0.000001
    15  H    0.000000   0.000001   0.000024
 Mulliken charges and spin densities:
               1          2
     1  O   -0.467022   0.651807
     2  H    0.421209  -0.022798
     3  C    1.239996   0.110114
     4  H    0.497215  -0.051202
     5  C   -0.420010   0.263154
     6  C   -1.021753   0.049938
     7  O   -0.351418  -0.000450
     8  O   -0.207560  -0.000483
     9  C   -0.251600   0.000290
    10  C   -0.560725  -0.000259
    11  H    0.221668  -0.000024
    12  H    0.233088  -0.000035
    13  H    0.209047  -0.000058
    14  H    0.221406  -0.000003
    15  H    0.236459   0.000009
 Sum of Mulliken charges =  -0.00000   1.00000
 Mulliken charges and spin densities with hydrogens summed into heavy atoms:
               1          2
     1  O    0.451402   0.577807
     3  C    1.239996   0.110114
     5  C   -0.420010   0.263154
     6  C   -1.021753   0.049938
     7  O   -0.351418  -0.000450
     8  O   -0.207560  -0.000483
     9  C    0.203156   0.000231
    10  C    0.106186  -0.000310
 APT charges:
               1
     1  O   -0.184175
     2  H    0.356229
     3  C   -0.108579
     4  H   -0.044640
     5  C   -0.321209
     6  C    1.590174
     7  O   -0.812266
     8  O   -1.004556
     9  C    0.528130
    10  C   -0.062944
    11  H   -0.006217
    12  H   -0.006371
    13  H    0.013890
    14  H    0.021345
    15  H    0.041190
 Sum of APT charges =   0.00000
 APT charges with hydrogens summed into heavy atoms:
               1
     1  O    0.127413
     3  C   -0.108579
     5  C   -0.321209
     6  C    1.590174
     7  O   -0.812266
     8  O   -1.004556
     9  C    0.515542
    10  C    0.013481
 Electronic spatial extent (au):  <R**2>=           1677.9548
 Charge=             -0.0000 electrons
 Dipole moment (field-independent basis, Debye):
    X=             -0.7595    Y=             -0.0239    Z=             -1.0170  Tot=              1.2695
 Quadrupole moment (field-independent basis, Debye-Ang):
   XX=            -35.2277   YY=            -53.4986   ZZ=            -48.4730
   XY=              9.1649   XZ=             -3.5394   YZ=             -0.4201
 Traceless Quadrupole moment (field-independent basis, Debye-Ang):
   XX=             10.5054   YY=             -7.7655   ZZ=             -2.7399
   XY=              9.1649   XZ=             -3.5394   YZ=             -0.4201
 Octapole moment (field-independent basis, Debye-Ang**2):
  XXX=              0.1169  YYY=             -6.1145  ZZZ=             -1.8424  XYY=              8.0404
  XXY=             30.5688  XXZ=            -22.6258  XZZ=             -5.7822  YZZ=              1.5971
  YYZ=              0.2438  XYZ=             -0.0198
 Hexadecapole moment (field-independent basis, Debye-Ang**3):
 XXXX=          -1681.3823 YYYY=           -195.2067 ZZZZ=           -125.0572 XXXY=            181.5809
 XXXZ=            -74.2241 YYYX=             11.7696 YYYZ=              0.6447 ZZZX=              5.6581
 ZZZY=             -0.0356 XXYY=           -317.5764 XXZZ=           -343.7967 YYZZ=            -48.5180
 XXYZ=              4.2260 YYXZ=              3.1875 ZZXY=              1.9034
 N-N= 3.349660307455D+02 E-N=-1.652129850111D+03  KE= 4.178336580911D+02
  Exact polarizability: 129.548  -6.529  58.710   3.353   0.411  46.077
 Approx polarizability: 114.456 -13.159  74.591   4.176   1.804  47.671
                          Isotropic Fermi Contact Couplings
        Atom                 a.u.       MegaHertz       Gauss      10(-4) cm-1
     1  O(17)              0.06433     -38.99932     -13.91593     -13.00877
     2  H(1)              -0.01138     -50.85471     -18.14622     -16.96330
     3  C(13)              0.44530     500.60351     178.62778     166.98336
     4  H(1)              -0.03526    -157.62189     -56.24341     -52.57700
     5  C(13)              0.06882      77.36357      27.60525      25.80571
     6  C(13)              0.00627       7.05215       2.51638       2.35234
     7  O(17)             -0.00025       0.14870       0.05306       0.04960
     8  O(17)             -0.00398       2.41533       0.86185       0.80567
     9  C(13)             -0.00030      -0.33670      -0.12014      -0.11231
    10  C(13)             -0.00016      -0.18106      -0.06461      -0.06040
    11  H(1)              -0.00000      -0.01794      -0.00640      -0.00598
    12  H(1)              -0.00002      -0.09177      -0.03275      -0.03061
    13  H(1)              -0.00002      -0.08707      -0.03107      -0.02904
    14  H(1)              -0.00000      -0.00491      -0.00175      -0.00164
    15  H(1)               0.00000       0.01583       0.00565       0.00528
 --------------------------------------------------------
       Center         ----  Spin Dipole Couplings  ----
                      3XX-RR        3YY-RR        3ZZ-RR
 --------------------------------------------------------
     1   Atom        2.494650     -1.257149     -1.237502
     2   Atom       -0.034967      0.097028     -0.062062
     3   Atom        0.313424     -0.161911     -0.151512
     4   Atom        0.182703     -0.086567     -0.096136
     5   Atom        0.087182     -0.014067     -0.073115
     6   Atom        0.010307     -0.006495     -0.003812
     7   Atom        0.039139     -0.001780     -0.037359
     8   Atom        0.003205      0.002715     -0.005920
     9   Atom        0.000673     -0.000301     -0.000372
    10   Atom        0.000865     -0.000389     -0.000476
    11   Atom        0.000929     -0.000480     -0.000449
    12   Atom        0.001045     -0.000547     -0.000499
    13   Atom        0.000585     -0.000291     -0.000294
    14   Atom        0.000894     -0.000465     -0.000430
    15   Atom        0.000956     -0.000496     -0.000460
 --------------------------------------------------------
                        XY            XZ            YZ
 --------------------------------------------------------
     1   Atom       -0.257594      0.350912     -0.026824
     2   Atom        0.017128     -0.001655     -0.074147
     3   Atom       -0.050379      0.054724     -0.011848
     4   Atom        0.049010      0.078120      0.030451
     5   Atom       -0.091518     -0.020058      0.025759
     6   Atom       -0.005262      0.001331     -0.001429
     7   Atom       -0.007415      0.024535      0.005536
     8   Atom       -0.000161      0.001804      0.004817
     9   Atom        0.000009      0.000208     -0.000008
    10   Atom       -0.000041     -0.000009      0.000066
    11   Atom        0.000179      0.000237      0.000002
    12   Atom       -0.000183      0.000305      0.000004
    13   Atom       -0.000022     -0.000079      0.000002
    14   Atom        0.000173     -0.000291     -0.000025
    15   Atom       -0.000245     -0.000321      0.000026
 --------------------------------------------------------


 ---------------------------------------------------------------------------------
              Anisotropic Spin Dipole Couplings in Principal Axis System
 ---------------------------------------------------------------------------------

       Atom             a.u.   MegaHertz   Gauss  10(-4) cm-1        Axes

              Baa    -1.2761    92.339    32.949    30.801  0.0214  0.9017  0.4319
     1 O(17)  Bbb    -1.2689    91.816    32.762    30.626 -0.1129 -0.4271  0.8971
              Bcc     2.5450  -184.154   -65.711   -61.427  0.9934 -0.0680  0.0926
 
              Baa    -0.0917   -48.908   -17.452   -16.314 -0.0851  0.3711  0.9247
     2 H(1)   Bbb    -0.0362   -19.338    -6.900    -6.450  0.9912 -0.0626  0.1164
              Bcc     0.1279    68.246    24.352    22.764  0.1011  0.9265 -0.3625
 
              Baa    -0.1702   -22.837    -8.149    -7.618  0.0434  0.8963  0.4414
     3 C(13)  Bbb    -0.1550   -20.802    -7.423    -6.939 -0.1503 -0.4309  0.8898
              Bcc     0.3252    43.639    15.572    14.557  0.9877 -0.1050  0.1160
 
              Baa    -0.1261   -67.305   -24.016   -22.451 -0.1402 -0.4888  0.8610
     4 H(1)   Bbb    -0.0871   -46.479   -16.585   -15.504 -0.2820  0.8533  0.4385
              Bcc     0.2133   113.784    40.601    37.954  0.9491  0.1813  0.2575
 
              Baa    -0.0855   -11.467    -4.092    -3.825 -0.1919 -0.5414  0.8185
     5 C(13)  Bbb    -0.0599    -8.042    -2.869    -2.682  0.4920  0.6686  0.5576
              Bcc     0.1454    19.508     6.961     6.507  0.8492 -0.5097 -0.1381
 
              Baa    -0.0082    -1.106    -0.395    -0.369  0.2505  0.9409  0.2281
     6 C(13)  Bbb    -0.0038    -0.504    -0.180    -0.168 -0.1632 -0.1912  0.9679
              Bcc     0.0120     1.610     0.574     0.537  0.9543 -0.2797  0.1056
 
              Baa    -0.0458     3.314     1.183     1.106 -0.2870 -0.1670  0.9433
     7 O(17)  Bbb    -0.0012     0.085     0.030     0.028  0.0630  0.9793  0.1925
              Bcc     0.0470    -3.399    -1.213    -1.134  0.9559 -0.1147  0.2706
 
              Baa    -0.0083     0.602     0.215     0.201 -0.1472 -0.3973  0.9058
     8 O(17)  Bbb     0.0032    -0.235    -0.084    -0.078  0.9303 -0.3668 -0.0097
              Bcc     0.0051    -0.367    -0.131    -0.123  0.3360  0.8412  0.4236
 
              Baa    -0.0004    -0.055    -0.020    -0.018 -0.1879  0.0899  0.9781
     9 C(13)  Bbb    -0.0003    -0.040    -0.014    -0.013  0.0095  0.9959 -0.0897
              Bcc     0.0007     0.096     0.034     0.032  0.9821  0.0075  0.1880
 
              Baa    -0.0005    -0.069    -0.025    -0.023 -0.0080 -0.4769  0.8789
    10 C(13)  Bbb    -0.0004    -0.048    -0.017    -0.016  0.0329  0.8783  0.4769
              Bcc     0.0009     0.116     0.042     0.039  0.9994 -0.0327 -0.0087
 
              Baa    -0.0005    -0.279    -0.100    -0.093 -0.1937  0.7778  0.5979
    11 H(1)   Bbb    -0.0005    -0.249    -0.089    -0.083 -0.0541 -0.6170  0.7851
              Bcc     0.0010     0.528     0.189     0.176  0.9796  0.1197  0.1616
 
              Baa    -0.0006    -0.320    -0.114    -0.107  0.2012  0.7431 -0.6382
    12 H(1)   Bbb    -0.0005    -0.279    -0.100    -0.093 -0.0684  0.6606  0.7476
              Bcc     0.0011     0.599     0.214     0.200  0.9772 -0.1067  0.1837
 
              Baa    -0.0003    -0.160    -0.057    -0.054  0.0882 -0.0413  0.9952
    13 H(1)   Bbb    -0.0003    -0.156    -0.056    -0.052  0.0289  0.9988  0.0389
              Bcc     0.0006     0.316     0.113     0.105  0.9957 -0.0253 -0.0892
 
              Baa    -0.0005    -0.267    -0.095    -0.089  0.2334 -0.6190  0.7499
    14 H(1)   Bbb    -0.0005    -0.254    -0.091    -0.085  0.0357  0.7761  0.6296
              Bcc     0.0010     0.521     0.186     0.174  0.9717  0.1202 -0.2032
 
              Baa    -0.0006    -0.298    -0.106    -0.099  0.2529  0.7306  0.6342
    15 H(1)   Bbb    -0.0005    -0.270    -0.096    -0.090  0.0521 -0.6649  0.7451
              Bcc     0.0011     0.567     0.202     0.189  0.9661 -0.1554 -0.2062
 

 ---------------------------------------------------------------------------------

 Calling FoFJK, ICntrl=    100127 FMM=F ISym2X=0 I1Cent= 0 IOpClX= 1 NMat=1 NMatS=1 NMatT=0.
 Full mass-weighted force constant matrix:
 Low frequencies ----1296.3949 -474.0368 -164.0113 -141.8863  -87.9797  -70.0916
 Low frequencies ---  -48.4301   -0.0010   -0.0001
 ******    5 imaginary frequencies (negative Signs) ****** 
 Diagonal vibrational polarizability:
      107.8725308      27.0006111     103.0070355
 Harmonic frequencies (cm**-1), IR intensities (KM/Mole), Raman scattering
 activities (A**4/AMU), depolarization ratios for plane and unpolarized
 incident light, reduced masses (AMU), force constants (mDyne/A),
 and normal coordinates:
                      1                      2                      3
                      A                      A                      A
 Frequencies --  -1296.3879              -470.3694              -160.1307
 Red. masses --      1.0432                 1.0492                 3.5597
 Frc consts  --      1.0330                 0.1368                 0.0538
 IR Inten    --    494.9277               124.9274                31.4367
  Atom  AN      X      Y      Z        X      Y      Z        X      Y      Z
     1   8    -0.04  -0.00  -0.01     0.00  -0.02  -0.02     0.03  -0.21   0.13
     2   1    -0.00  -0.02   0.02    -0.24   0.33   0.86     0.72  -0.29   0.04
     3   6    -0.01   0.01   0.01     0.01   0.01  -0.03     0.03   0.26  -0.17
     4   1     0.99  -0.10   0.09     0.02   0.08  -0.27     0.05   0.26  -0.27
     5   6    -0.01   0.01   0.00     0.00  -0.01   0.00    -0.01   0.12  -0.07
     6   6    -0.01  -0.00  -0.00     0.00  -0.00  -0.00    -0.03   0.03  -0.01
     7   8     0.00  -0.00   0.00     0.00  -0.00  -0.02    -0.10   0.01  -0.02
     8   8    -0.00   0.00  -0.00    -0.00  -0.01   0.01     0.02  -0.01   0.03
     9   6    -0.00   0.00  -0.00    -0.00  -0.01   0.01     0.01  -0.08   0.03
    10   6     0.00   0.00  -0.00     0.00   0.01   0.01     0.01  -0.03   0.03
    11   1    -0.00   0.00  -0.00    -0.00  -0.01   0.02     0.04  -0.12   0.08
    12   1     0.00  -0.00  -0.00     0.00  -0.01  -0.00    -0.04  -0.12  -0.01
    13   1     0.00   0.00  -0.00     0.00   0.01   0.01     0.00  -0.08   0.03
    14   1    -0.00   0.00  -0.00     0.00   0.02   0.02     0.05   0.02   0.08
    15   1    -0.00   0.00   0.00     0.00   0.02  -0.01    -0.02   0.02  -0.02
                      4                      5                      6
                      A                      A                      A
 Frequencies --    -96.1853               -27.1010                55.6867
 Red. masses --      8.4245                 2.9576                 4.0889
 Frc consts  --      0.0459                 0.0013                 0.0075
 IR Inten    --      7.7347                 0.2616                10.0319
  Atom  AN      X      Y      Z        X      Y      Z        X      Y      Z
     1   8    -0.22   0.20   0.36     0.03   0.01  -0.06    -0.02   0.07  -0.03
     2   1    -0.09   0.04  -0.06    -0.02   0.03  -0.00     0.09   0.00  -0.19
     3   6     0.04  -0.13  -0.37    -0.00   0.02   0.03     0.06  -0.01  -0.22
     4   1     0.03  -0.06  -0.33    -0.00   0.02   0.04     0.06   0.02  -0.30
     5   6     0.03  -0.13  -0.26    -0.01   0.01   0.01     0.05  -0.03   0.00
     6   6     0.04  -0.08  -0.10    -0.02  -0.04   0.03     0.04  -0.04   0.13
     7   8     0.10  -0.08   0.11    -0.09  -0.08   0.19     0.06  -0.03   0.07
     8   8    -0.04  -0.01  -0.12     0.03  -0.05  -0.09     0.02  -0.05   0.25
     9   6    -0.04   0.06   0.08     0.02  -0.10  -0.05     0.05   0.00  -0.04
    10   6     0.13   0.09   0.15     0.06   0.24  -0.06    -0.24   0.06  -0.17
    11   1    -0.16   0.09   0.12     0.01  -0.25   0.19     0.12   0.01  -0.09
    12   1    -0.07   0.08   0.11    -0.04  -0.26  -0.28     0.20  -0.00  -0.09
    13   1     0.12   0.14   0.28     0.04   0.07  -0.06    -0.22   0.14  -0.41
    14   1     0.16   0.08   0.13     0.19   0.44   0.20    -0.43   0.06  -0.11
    15   1     0.22   0.08   0.11    -0.04   0.45  -0.34    -0.30   0.05  -0.10
                      7                      8                      9
                      A                      A                      A
 Frequencies --    112.3777               185.6646               268.3527
 Red. masses --      3.4555                 1.2925                 3.9674
 Frc consts  --      0.0257                 0.0262                 0.1683
 IR Inten    --      4.2547                 1.6753                18.2619
  Atom  AN      X      Y      Z        X      Y      Z        X      Y      Z
     1   8     0.18   0.05  -0.01    -0.05  -0.01  -0.01    -0.12   0.02  -0.03
     2   1     0.36   0.08   0.09    -0.08  -0.01  -0.02     0.18  -0.05  -0.18
     3   6     0.06   0.19   0.07    -0.02  -0.02  -0.01    -0.00   0.07  -0.11
     4   1     0.12   0.29   0.08    -0.04  -0.05  -0.03    -0.03   0.11  -0.46
     5   6    -0.03  -0.14  -0.01     0.00   0.05   0.02    -0.05  -0.07   0.34
     6   6    -0.03  -0.15  -0.03    -0.00   0.01   0.01    -0.02  -0.08   0.17
     7   8     0.06  -0.12   0.01    -0.07  -0.01   0.00    -0.01  -0.04  -0.11
     8   8    -0.12  -0.07  -0.05     0.05  -0.03   0.00    -0.01  -0.05  -0.03
     9   6    -0.10   0.12  -0.00     0.05  -0.02  -0.01     0.03   0.11  -0.09
    10   6    -0.05   0.07   0.02     0.06   0.03  -0.01     0.16   0.02  -0.02
    11   1    -0.23   0.23  -0.08     0.03  -0.02   0.00    -0.07   0.20  -0.17
    12   1     0.01   0.20   0.10     0.07  -0.03  -0.02     0.13   0.19   0.01
    13   1    -0.02   0.42   0.05     0.12   0.62  -0.02     0.13  -0.20   0.17
    14   1    -0.32  -0.09  -0.13    -0.42  -0.17  -0.15     0.45   0.06  -0.06
    15   1     0.22  -0.14   0.17     0.49  -0.26   0.15     0.08   0.10  -0.09
                     10                     11                     12
                      A                      A                      A
 Frequencies --    317.2459               397.3684               427.7179
 Red. masses --      3.1755                 6.2817                 3.6864
 Frc consts  --      0.1883                 0.5844                 0.3973
 IR Inten    --      7.3894                10.3207                 1.9017
  Atom  AN      X      Y      Z        X      Y      Z        X      Y      Z
     1   8    -0.01   0.01  -0.01    -0.32  -0.08  -0.07     0.09   0.02   0.02
     2   1     0.18  -0.01  -0.04    -0.61  -0.07  -0.10     0.17   0.04   0.11
     3   6    -0.01   0.03  -0.04     0.02   0.37   0.19    -0.10  -0.05  -0.01
     4   1     0.01   0.11  -0.17    -0.34  -0.14   0.10     0.04   0.12   0.21
     5   6    -0.05  -0.10   0.12    -0.04  -0.01  -0.15    -0.10  -0.07  -0.14
     6   6    -0.02   0.04   0.05     0.04  -0.07  -0.07    -0.08   0.03   0.03
     7   8     0.21   0.12   0.01     0.23  -0.03   0.06     0.01   0.07   0.04
     8   8    -0.05   0.10  -0.08     0.02  -0.08   0.09    -0.09   0.01   0.23
     9   6    -0.09  -0.21  -0.01     0.06  -0.02  -0.02    -0.04  -0.02  -0.16
    10   6    -0.02  -0.03   0.00     0.06  -0.01  -0.04     0.20  -0.02  -0.10
    11   1     0.06  -0.43   0.22     0.03   0.02  -0.07     0.03  -0.04  -0.17
    12   1    -0.35  -0.39  -0.23     0.15   0.01  -0.01     0.05  -0.02  -0.19
    13   1     0.01   0.27   0.02     0.06  -0.04   0.00     0.18   0.01   0.33
    14   1    -0.24  -0.04   0.05     0.11   0.00  -0.04     0.44  -0.04  -0.21
    15   1     0.21  -0.10  -0.05     0.07   0.00  -0.06     0.44  -0.06  -0.21
                     13                     14                     15
                      A                      A                      A
 Frequencies --    568.6093               628.9549               662.8529
 Red. masses --      2.5064                 3.2647                 3.3020
 Frc consts  --      0.4775                 0.7609                 0.8548
 IR Inten    --     58.9212                45.5824               133.4666
  Atom  AN      X      Y      Z        X      Y      Z        X      Y      Z
     1   8    -0.04   0.03  -0.02    -0.06   0.03  -0.03     0.11  -0.02   0.03
     2   1     0.66   0.04   0.13     0.69   0.03   0.10    -0.41   0.02   0.06
     3   6    -0.16  -0.04   0.06    -0.05  -0.14   0.10    -0.17   0.02  -0.17
     4   1    -0.00   0.39  -0.18     0.00   0.26  -0.42    -0.04  -0.12   0.70
     5   6    -0.16  -0.13  -0.04     0.08   0.31   0.03    -0.12   0.18   0.04
     6   6    -0.01   0.03  -0.05     0.02  -0.06  -0.09    -0.08  -0.05   0.08
     7   8     0.02   0.04   0.02     0.13  -0.04   0.04     0.15   0.03  -0.01
     8   8     0.10  -0.03  -0.03    -0.05  -0.08   0.02     0.03  -0.14  -0.06
     9   6     0.17   0.01   0.07    -0.10  -0.01  -0.04     0.04  -0.02   0.03
    10   6     0.00   0.01   0.00    -0.02   0.00  -0.00     0.00   0.01   0.01
    11   1     0.08   0.10   0.00    -0.13   0.03  -0.07    -0.10   0.12  -0.08
    12   1     0.21   0.07   0.15    -0.02   0.02  -0.02     0.17   0.09   0.15
    13   1     0.02  -0.02  -0.28    -0.03   0.01   0.16     0.01   0.00  -0.11
    14   1    -0.14   0.02   0.07     0.08   0.01  -0.03    -0.07   0.05   0.09
    15   1    -0.16   0.04   0.08     0.08  -0.00  -0.07    -0.07   0.05  -0.00
                     16                     17                     18
                      A                      A                      A
 Frequencies --    801.7434               820.2056               894.0679
 Red. masses --      2.7936                 1.8319                 2.8437
 Frc consts  --      1.0580                 0.7261                 1.3393
 IR Inten    --     26.7406                 8.4923                16.3534
  Atom  AN      X      Y      Z        X      Y      Z        X      Y      Z
     1   8    -0.04   0.01  -0.01    -0.02   0.00  -0.00    -0.03   0.00  -0.02
     2   1     0.22   0.03   0.11     0.09   0.00   0.01     0.15   0.04   0.13
     3   6    -0.03  -0.02   0.04     0.05  -0.01   0.06    -0.06   0.01  -0.05
     4   1    -0.03   0.09   0.18     0.01   0.01  -0.10    -0.06   0.07   0.43
     5   6     0.01   0.06  -0.17     0.04  -0.01  -0.11    -0.02   0.05   0.04
     6   6     0.02  -0.09   0.29    -0.03   0.01   0.19     0.09  -0.09  -0.04
     7   8     0.01  -0.06  -0.08    -0.01   0.05  -0.04     0.00  -0.17  -0.02
     8   8    -0.00   0.06  -0.05     0.01  -0.02  -0.05    -0.08   0.22   0.04
     9   6     0.03   0.07   0.01    -0.03  -0.08  -0.01     0.05  -0.03   0.05
    10   6     0.01   0.03  -0.00    -0.02  -0.03   0.01     0.06  -0.06  -0.04
    11   1     0.09  -0.22   0.42    -0.06   0.21  -0.45     0.26   0.02  -0.17
    12   1    -0.15  -0.22  -0.38     0.07   0.23   0.42    -0.20   0.10   0.30
    13   1    -0.00  -0.14  -0.07     0.00   0.18   0.06     0.09   0.15  -0.25
    14   1     0.04  -0.17  -0.30    -0.09   0.20   0.38    -0.15   0.15   0.33
    15   1    -0.14  -0.11   0.34     0.15   0.15  -0.39     0.09   0.12  -0.36
                     19                     20                     21
                      A                      A                      A
 Frequencies --    928.9769               998.7343              1114.2919
 Red. masses --      1.9731                 1.7261                 4.1120
 Frc consts  --      1.0033                 1.0144                 3.0082
 IR Inten    --     28.1219                69.9580                 4.7381
  Atom  AN      X      Y      Z        X      Y      Z        X      Y      Z
     1   8    -0.05   0.00  -0.03    -0.09   0.01  -0.05    -0.02   0.00  -0.01
     2   1     0.23   0.05   0.17     0.43   0.07   0.27     0.12   0.02   0.07
     3   6    -0.03   0.01  -0.05     0.11  -0.02  -0.05     0.09  -0.02  -0.00
     4   1    -0.07   0.08   0.52    -0.11   0.02   0.71    -0.03  -0.06   0.14
     5   6    -0.02  -0.04   0.02     0.09  -0.04   0.03     0.06   0.02   0.01
     6   6     0.10   0.02  -0.01    -0.03   0.04  -0.01    -0.15  -0.04  -0.03
     7   8    -0.01  -0.03  -0.00    -0.02   0.07   0.01     0.01   0.02   0.01
     8   8     0.13   0.00   0.00    -0.04  -0.06  -0.00    -0.18   0.04  -0.01
     9   6    -0.06   0.01  -0.10    -0.04  -0.01   0.05     0.28  -0.06  -0.23
    10   6    -0.14   0.02   0.09     0.07   0.00  -0.05    -0.04   0.03   0.24
    11   1     0.13  -0.03  -0.17    -0.21   0.04   0.10     0.25  -0.00  -0.32
    12   1     0.05  -0.00  -0.14    -0.02   0.01   0.07     0.39  -0.06  -0.28
    13   1    -0.17   0.06   0.62     0.08  -0.05  -0.27    -0.04  -0.02   0.06
    14   1     0.16   0.02   0.01    -0.05  -0.03  -0.06    -0.16   0.02   0.28
    15   1     0.17  -0.04  -0.04    -0.09   0.01   0.05    -0.20   0.02   0.38
                     22                     23                     24
                      A                      A                      A
 Frequencies --   1157.5630              1227.1597              1325.6661
 Red. masses --      2.0957                 1.7637                 2.1751
 Frc consts  --      1.6545                 1.5649                 2.2522
 IR Inten    --     25.8833                 4.4091               463.7391
  Atom  AN      X      Y      Z        X      Y      Z        X      Y      Z
     1   8    -0.01   0.00  -0.00    -0.00   0.00  -0.00     0.01  -0.00   0.00
     2   1     0.04   0.01   0.02     0.03   0.00   0.01    -0.04  -0.00  -0.02
     3   6     0.03  -0.01  -0.00     0.03  -0.01   0.00    -0.05   0.01  -0.00
     4   1    -0.01  -0.03   0.04    -0.01  -0.03   0.02     0.02   0.03  -0.02
     5   6     0.02   0.01   0.01     0.01  -0.00   0.00    -0.02  -0.00  -0.00
     6   6    -0.06  -0.01  -0.00    -0.07  -0.01  -0.01     0.24   0.09   0.04
     7   8     0.00   0.01  -0.00     0.00   0.03   0.01    -0.03   0.01  -0.00
     8   8    -0.08   0.02  -0.05    -0.00  -0.07  -0.01    -0.12  -0.04  -0.02
     9   6     0.14  -0.05   0.17     0.05   0.18   0.02     0.08  -0.00  -0.03
    10   6    -0.11   0.03  -0.13    -0.03  -0.13  -0.01    -0.02  -0.07   0.00
    11   1     0.12   0.05   0.06     0.38  -0.15   0.31    -0.72   0.12   0.33
    12   1     0.31  -0.04   0.15    -0.27  -0.10  -0.32     0.28  -0.10  -0.24
    13   1    -0.14  -0.00   0.55     0.01   0.26   0.07    -0.01   0.10   0.03
    14   1     0.40  -0.01  -0.35    -0.03   0.15   0.39    -0.00   0.07   0.22
    15   1     0.34  -0.14  -0.16     0.14   0.08  -0.45     0.06   0.00  -0.18
                     25                     26                     27
                      A                      A                      A
 Frequencies --   1369.9809              1442.4879              1455.8718
 Red. masses --      1.6339                 1.3634                 1.2638
 Frc consts  --      1.8068                 1.6715                 1.5782
 IR Inten    --    318.5946                41.0281                16.5935
  Atom  AN      X      Y      Z        X      Y      Z        X      Y      Z
     1   8    -0.00  -0.00  -0.00     0.00  -0.00   0.00     0.00  -0.00   0.00
     2   1     0.01  -0.00   0.00    -0.02  -0.00  -0.01    -0.01  -0.00  -0.00
     3   6     0.03  -0.01   0.00    -0.02   0.00  -0.00    -0.00   0.00  -0.00
     4   1    -0.01  -0.00   0.00     0.01   0.03  -0.00     0.00   0.02  -0.00
     5   6     0.01   0.00   0.00    -0.00  -0.00   0.00    -0.00  -0.00   0.00
     6   6    -0.13  -0.06  -0.02     0.08   0.02   0.01     0.02   0.01   0.00
     7   8     0.01  -0.03  -0.00    -0.01   0.02   0.00    -0.00   0.00   0.00
     8   8     0.09   0.10   0.01    -0.06  -0.03  -0.03    -0.02  -0.01  -0.01
     9   6    -0.07   0.01   0.02    -0.09   0.01   0.08    -0.04   0.00   0.04
    10   6     0.01  -0.06   0.01     0.02   0.00   0.06     0.08  -0.01  -0.11
    11   1    -0.43   0.06   0.20     0.54  -0.02  -0.35     0.18   0.01  -0.14
    12   1     0.75  -0.07  -0.31     0.50  -0.14  -0.33     0.18  -0.07  -0.13
    13   1     0.02   0.05  -0.04     0.05  -0.02  -0.29     0.01  -0.02   0.54
    14   1    -0.06   0.01   0.12     0.02  -0.14  -0.17    -0.37   0.19   0.36
    15   1     0.01   0.04  -0.17     0.06   0.11  -0.17    -0.37  -0.09   0.37
                     28                     29                     30
                      A                      A                      A
 Frequencies --   1528.0425              1535.7656              1544.6978
 Red. masses --      1.0421                 1.0767                 1.0649
 Frc consts  --      1.4336                 1.4962                 1.4970
 IR Inten    --     16.8106                 5.0820                 4.5556
  Atom  AN      X      Y      Z        X      Y      Z        X      Y      Z
     1   8    -0.00  -0.00   0.00    -0.00  -0.00   0.00    -0.00  -0.01   0.00
     2   1    -0.01  -0.00  -0.00    -0.02  -0.00  -0.01    -0.06  -0.01  -0.02
     3   6     0.00  -0.00  -0.00    -0.00  -0.00  -0.00    -0.00  -0.00  -0.00
     4   1     0.00   0.03   0.00     0.01   0.06   0.01     0.01   0.15   0.02
     5   6     0.00  -0.00  -0.00     0.00  -0.00   0.00     0.01  -0.00   0.00
     6   6    -0.00   0.00   0.00     0.02  -0.00   0.00     0.01  -0.00   0.00
     7   8     0.00  -0.01  -0.00    -0.00   0.01   0.00    -0.00   0.01   0.00
     8   8     0.00   0.00   0.00    -0.02  -0.01  -0.01    -0.01  -0.00  -0.00
     9   6    -0.01  -0.02   0.01    -0.02  -0.01  -0.06    -0.04   0.01  -0.03
    10   6    -0.02  -0.05  -0.01     0.02  -0.02   0.01    -0.04   0.01  -0.03
    11   1    -0.01   0.05  -0.12     0.20  -0.39   0.43     0.16  -0.21   0.18
    12   1    -0.01  -0.05  -0.04     0.30   0.34   0.41     0.22   0.16   0.14
    13   1     0.07   0.65  -0.12     0.02   0.18   0.15    -0.02  -0.17  -0.29
    14   1     0.57   0.12   0.01    -0.06  -0.14  -0.17     0.22   0.31   0.36
    15   1    -0.36  -0.03   0.26    -0.27   0.19  -0.12     0.37  -0.37   0.32
                     31                     32                     33
                      A                      A                      A
 Frequencies --   1548.0285              1905.2908              2363.4707
 Red. masses --      1.0704                12.4032                10.8363
 Frc consts  --      1.5113                26.5282                35.6643
 IR Inten    --    357.9728               323.8669                58.6483
  Atom  AN      X      Y      Z        X      Y      Z        X      Y      Z
     1   8    -0.01  -0.03   0.00    -0.00   0.00  -0.00     0.02   0.01   0.01
     2   1    -0.33  -0.05  -0.14     0.01  -0.00   0.00     0.06   0.00   0.02
     3   6     0.01  -0.03  -0.01     0.06  -0.01   0.00    -0.60   0.17  -0.02
     4   1     0.08   0.90   0.11    -0.01   0.04   0.01     0.02  -0.29  -0.12
     5   6     0.05  -0.01   0.00    -0.02  -0.01  -0.00     0.67  -0.18   0.02
     6   6    -0.02  -0.00  -0.00    -0.24   0.76   0.09    -0.11   0.03  -0.01
     7   8    -0.00   0.00  -0.00     0.18  -0.49  -0.05     0.00  -0.01  -0.00
     8   8     0.00  -0.00   0.00    -0.03  -0.07  -0.01    -0.01  -0.00  -0.00
     9   6     0.01   0.00   0.01    -0.02   0.02  -0.00     0.00   0.00  -0.00
    10   6     0.00   0.00   0.00     0.01  -0.00   0.01    -0.00  -0.00   0.00
    11   1    -0.05   0.06  -0.04     0.15  -0.09   0.05     0.01   0.00   0.00
    12   1    -0.07  -0.04  -0.04     0.12   0.08   0.03    -0.00   0.00   0.00
    13   1    -0.00  -0.00   0.04     0.01  -0.03  -0.05     0.00  -0.00   0.00
    14   1    -0.04  -0.04  -0.05    -0.03  -0.01   0.00     0.00  -0.00  -0.00
    15   1    -0.03   0.05  -0.06     0.04   0.02  -0.04     0.00   0.00  -0.00
                     34                     35                     36
                      A                      A                      A
 Frequencies --   3108.0139              3138.0380              3187.9528
 Red. masses --      1.0351                 1.0601                 1.1008
 Frc consts  --      5.8911                 6.1508                 6.5913
 IR Inten    --     13.5508                20.5098                12.8745
  Atom  AN      X      Y      Z        X      Y      Z        X      Y      Z
     1   8     0.00   0.00  -0.00    -0.00  -0.00  -0.00    -0.00  -0.00   0.00
     2   1     0.00  -0.00   0.00    -0.00   0.00  -0.00    -0.00   0.00  -0.00
     3   6     0.00  -0.00   0.00    -0.00   0.00  -0.00    -0.00   0.00  -0.00
     4   1    -0.00  -0.00  -0.00     0.00   0.00   0.00     0.00   0.00   0.00
     5   6    -0.00   0.00  -0.00     0.00  -0.00   0.00     0.00  -0.00  -0.00
     6   6     0.00   0.00   0.00    -0.00  -0.00  -0.00    -0.00  -0.00   0.00
     7   8     0.00  -0.00  -0.00    -0.00   0.00  -0.00     0.00   0.00   0.00
     8   8    -0.00  -0.00  -0.00     0.00   0.00   0.00    -0.00   0.00  -0.00
     9   6     0.00   0.00  -0.00     0.03  -0.02   0.06     0.01   0.04   0.01
    10   6    -0.03  -0.00   0.04    -0.01   0.00  -0.01     0.04  -0.06   0.03
    11   1     0.00   0.01   0.00    -0.20  -0.45  -0.26    -0.17  -0.37  -0.23
    12   1     0.00  -0.02   0.01    -0.11   0.68  -0.43     0.03  -0.15   0.10
    13   1     0.61  -0.07   0.06     0.12  -0.01   0.01    -0.49   0.04  -0.04
    14   1    -0.12   0.49  -0.31     0.01  -0.06   0.03    -0.12   0.56  -0.36
    15   1    -0.20  -0.42  -0.24     0.01   0.02   0.01     0.08   0.13   0.09
                     37                     38                     39
                      A                      A                      A
 Frequencies --   3191.0042              3211.9577              3821.9657
 Red. masses --      1.1022                 1.1053                 1.0654
 Frc consts  --      6.6123                 6.7182                 9.1697
 IR Inten    --      7.8858                17.6002                78.1284
  Atom  AN      X      Y      Z        X      Y      Z        X      Y      Z
     1   8     0.00  -0.00  -0.00     0.00   0.00  -0.00    -0.01  -0.06   0.02
     2   1     0.00  -0.00   0.00     0.00  -0.00   0.00     0.07   0.93  -0.35
     3   6     0.00  -0.00   0.00    -0.00   0.00   0.00    -0.00   0.00  -0.00
     4   1    -0.00  -0.00  -0.00    -0.00  -0.00  -0.00     0.02  -0.01   0.02
     5   6    -0.00  -0.00  -0.00    -0.00   0.00  -0.00     0.00  -0.00   0.00
     6   6    -0.00   0.00  -0.00     0.00  -0.00  -0.00    -0.00   0.00  -0.00
     7   8     0.00  -0.00   0.00    -0.00   0.00   0.00     0.00  -0.00  -0.00
     8   8     0.00   0.00  -0.00     0.00  -0.00   0.00     0.00   0.00   0.00
     9   6     0.01   0.05  -0.00    -0.01  -0.06  -0.01    -0.00  -0.00   0.00
    10   6    -0.07  -0.03  -0.03    -0.02  -0.06  -0.01     0.00   0.00   0.00
    11   1    -0.14  -0.31  -0.19     0.20   0.45   0.28     0.00   0.00   0.00
    12   1     0.05  -0.31   0.21    -0.05   0.31  -0.21     0.00  -0.00  -0.00
    13   1     0.57  -0.07   0.04     0.10  -0.03   0.01     0.00  -0.00  -0.00
    14   1     0.00  -0.09   0.05    -0.09   0.34  -0.23    -0.00   0.00   0.00
    15   1     0.21   0.48   0.28     0.21   0.46   0.29    -0.00   0.00   0.00

 -------------------
 - Thermochemistry -
 -------------------
 Temperature   298.150 Kelvin.  Pressure   1.00000 Atm.
 Atom     1 has atomic number  8 and mass  15.99491
 Atom     2 has atomic number  1 and mass   1.00783
 Atom     3 has atomic number  6 and mass  12.00000
 Atom     4 has atomic number  1 and mass   1.00783
 Atom     5 has atomic number  6 and mass  12.00000
 Atom     6 has atomic number  6 and mass  12.00000
 Atom     7 has atomic number  8 and mass  15.99491
 Atom     8 has atomic number  8 and mass  15.99491
 Atom     9 has atomic number  6 and mass  12.00000
 Atom    10 has atomic number  6 and mass  12.00000
 Atom    11 has atomic number  1 and mass   1.00783
 Atom    12 has atomic number  1 and mass   1.00783
 Atom    13 has atomic number  1 and mass   1.00783
 Atom    14 has atomic number  1 and mass   1.00783
 Atom    15 has atomic number  1 and mass   1.00783
 Molecular mass:   115.03952 amu.
 Principal axes and moments of inertia in atomic units:
                           1         2         3
     Eigenvalues --   286.956822618.045382730.63340
           X            0.99993   0.00864  -0.00848
           Y           -0.00872   0.99992  -0.00946
           Z            0.00840   0.00953   0.99992
 This molecule is an asymmetric top.
 Rotational symmetry number  1.
 Rotational temperatures (Kelvin)      0.30184     0.03308     0.03172
 Rotational constants (GHZ):           6.28924     0.68935     0.66092
    5 imaginary frequencies ignored.
 Zero-point vibrational energy     282592.7 (Joules/Mol)
                                   67.54127 (Kcal/Mol)
 Warning -- explicit consideration of   8 degrees of freedom as
           vibrations may cause significant error
 Vibrational temperatures:     80.12   161.69   267.13   386.10   456.45
          (Kelvin)            571.72   615.39   818.10   904.93   953.70
                             1153.53  1180.09  1286.36  1336.59  1436.96
                             1603.22  1665.48  1765.61  1907.34  1971.10
                             2075.42  2094.67  2198.51  2209.62  2222.48
                             2227.27  2741.29  3400.51  4471.74  4514.94
                             4586.75  4591.14  4621.29  5498.96
 
 Zero-point correction=                           0.107634 (Hartree/Particle)
 Thermal correction to Energy=                    0.114889
 Thermal correction to Enthalpy=                  0.115833
 Thermal correction to Gibbs Free Energy=         0.074128
 Sum of electronic and zero-point Energies=           -419.816632
 Sum of electronic and thermal Energies=              -419.809377
 Sum of electronic and thermal Enthalpies=            -419.808433
 Sum of electronic and thermal Free Energies=         -419.850138
 
                     E (Thermal)             CV                S
                      KCal/Mol        Cal/Mol-Kelvin    Cal/Mol-Kelvin
 Total                   72.094             24.983             87.776
 Electronic               0.000              0.000              1.377
 Translational            0.889              2.981             40.136
 Rotational               0.889              2.981             29.108
 Vibrational             70.317             19.022             17.155
 Vibration     1          0.596              1.975              4.604
 Vibration     2          0.607              1.939              3.227
 Vibration     3          0.632              1.859              2.271
 Vibration     4          0.673              1.731              1.607
 Vibration     5          0.704              1.641              1.324
 Vibration     6          0.764              1.476              0.972
 Vibration     7          0.789              1.410              0.866
 Vibration     8          0.925              1.099              0.507
                       Q            Log10(Q)             Ln(Q)
 Total Bot       0.800533D-34        -34.096621        -78.510370
 Total V=0       0.257917D+16         15.411480         35.486244
 Vib (Bot)       0.160972D-47        -47.793249       -110.048023
 Vib (Bot)    1  0.371008D+01          0.569384          1.311054
 Vib (Bot)    2  0.182160D+01          0.260452          0.599714
 Vib (Bot)    3  0.107965D+01          0.033282          0.076635
 Vib (Bot)    4  0.720779D+00         -0.142198         -0.327422
 Vib (Bot)    5  0.593516D+00         -0.226567         -0.521690
 Vib (Bot)    6  0.449403D+00         -0.347364         -0.799834
 Vib (Bot)    7  0.408092D+00         -0.389242         -0.896263
 Vib (Bot)    8  0.271041D+00         -0.566965         -1.305485
 Vib (V=0)       0.518622D+02          1.714851          3.948591
 Vib (V=0)    1  0.424362D+01          0.627737          1.445417
 Vib (V=0)    2  0.238897D+01          0.378211          0.870863
 Vib (V=0)    3  0.168981D+01          0.227837          0.524614
 Vib (V=0)    4  0.137722D+01          0.139005          0.320070
 Vib (V=0)    5  0.127606D+01          0.105869          0.243773
 Vib (V=0)    6  0.117228D+01          0.069032          0.158953
 Vib (V=0)    7  0.114540D+01          0.058957          0.135752
 Vib (V=0)    8  0.106874D+01          0.028871          0.066479
 Electronic      0.200000D+01          0.301030          0.693147
 Translational   0.484981D+08          7.685724         17.697035
 Rotational      0.512713D+06          5.709874         13.147471
 ***** Axes restored to original set *****
 -------------------------------------------------------------------
 Center     Atomic                   Forces (Hartrees/Bohr)
 Number     Number              X              Y              Z
 -------------------------------------------------------------------
      1        8           0.012754568   -0.005894577    0.005143590
      2        1           0.006707263    0.017042366   -0.002479441
      3        6           0.026482070   -0.003402450   -0.000604668
      4        1          -0.031257182   -0.008952415   -0.000860324
      5        6          -0.020114014    0.000496860   -0.002862830
      6        6           0.047064484   -0.029557008    0.001831110
      7        8          -0.020302132    0.046221580    0.004357989
      8        8          -0.002400702   -0.014771453   -0.002556494
      9        6          -0.016795082   -0.002678756   -0.003409617
     10        6          -0.000345036    0.000051159    0.000187100
     11        1          -0.000334218   -0.000622575   -0.000476929
     12        1          -0.000462614    0.001486626   -0.000663901
     13        1          -0.001456478    0.000284294    0.000408399
     14        1           0.000263065   -0.000920945    0.000785045
     15        1           0.000196006    0.001217295    0.001200971
 -------------------------------------------------------------------
 Cartesian Forces:  Max     0.047064484 RMS     0.014103772

 GradGradGradGradGradGradGradGradGradGradGradGradGradGradGradGradGradGrad
 Berny optimization.
 Search for a local minimum.
 Step number   1 out of a maximum of    2
 All quantities printed in internal units (Hartrees-Bohrs-Radians)
 Second derivative matrix not updated -- analytic derivatives used.
 ITU=  0
     Eigenvalues ---   -0.08078  -0.01023  -0.00464  -0.00394  -0.00201
     Eigenvalues ---    0.00068   0.00139   0.00355   0.01269   0.01902
     Eigenvalues ---    0.03278   0.03454   0.04268   0.06351   0.07040
     Eigenvalues ---    0.07633   0.08161   0.09530   0.10504   0.10865
     Eigenvalues ---    0.11939   0.14744   0.15558   0.18070   0.21117
     Eigenvalues ---    0.26118   0.30687   0.32066   0.49506   0.51280
     Eigenvalues ---    0.67713   0.77906   0.80407   0.88531   0.93095
     Eigenvalues ---    0.94936   0.95117   1.84968   2.52267
 Eigenvalue     1 is  -8.08D-02 should be greater than     0.000000 Eigenvector:
                          X4        X1        Y4        X3        Y3
   1                    0.93388  -0.27539  -0.10579  -0.07497   0.07135
                          X5        Z1        Z4        Y2        Z3
   1                   -0.06812  -0.06793   0.05562  -0.05445   0.05199
 Eigenvalue     2 is  -1.02D-02 should be greater than     0.000000 Eigenvector:
                          Z2        Z4        Y2        Z1        Y1
   1                    0.83656  -0.30322   0.21908  -0.19055  -0.18664
                          Z7        X2        Z8        Y4        Y3
   1                   -0.15051  -0.12276   0.11042   0.09195   0.07306
 Eigenvalue     3 is  -4.64D-03 should be greater than     0.000000 Eigenvector:
                          X2        Z1        Z3        Y2        Z4
   1                    0.50717   0.38690  -0.32089  -0.30934  -0.29977
                          Y3        Z5        Y1        Y4        Y5
   1                    0.21626  -0.20532  -0.15568   0.14957   0.13986
 Eigenvalue     4 is  -3.94D-03 should be greater than     0.000000 Eigenvector:
                          X2        Y1        Z7        Z1        Z3
   1                    0.34796  -0.30483  -0.28566  -0.27844   0.26275
                          Y2        Y3        Y5        Z5        Z4
   1                   -0.24414   0.22608   0.20351   0.19895   0.19883
 Eigenvalue     5 is  -2.01D-03 should be greater than     0.000000 Eigenvector:
                          Z7        Z15       Y15       Y14       Z1
   1                    0.39283  -0.28977   0.28883   0.28653  -0.28621
                          Z12       Y12       Y11       Z3        Z8
   1                   -0.26205  -0.22939  -0.22778   0.19226  -0.18389
 Quadratic step=8.133D-01 exceeds max=3.000D-01 adjusted using Lamda=-5.496D-02.
 Angle between NR and scaled steps=  46.88 degrees.
 Angle between quadratic step and forces=  54.03 degrees.
 Linear search not attempted -- first point.
 B after Tr=     0.012523    0.000827   -0.000543
         Rot=    1.000000    0.000120   -0.000007   -0.000248 Ang=   0.03 deg.
 Variable       Old X    -DE/DX   Delta X   Delta X   Delta X     New X
                                 (Linear)    (Quad)   (Total)
    X1        8.49956   0.01275   0.00000   0.10030   0.11307   8.61263
    Y1       -0.50549  -0.00589   0.00000   0.01907   0.02431  -0.48118
    Z1        0.62876   0.00514   0.00000   0.00688   0.00633   0.63509
    X2        8.58826   0.00671   0.00000   0.03269   0.04459   8.63285
    Y2        1.20344   0.01704   0.00000   0.05812   0.06321   1.26665
    Z2       -0.03342  -0.00248   0.00000   0.01493   0.01396  -0.01946
    X3        4.16306   0.02648   0.00000   0.05551   0.06834   4.23140
    Y3       -0.61364  -0.00340   0.00000  -0.01456  -0.01167  -0.62531
    Z3       -0.12265  -0.00060   0.00000  -0.00865  -0.00910  -0.13175
    X4        6.54014  -0.03126   0.00000  -0.23473  -0.22158   6.31856
    Y4       -1.19728  -0.00895   0.00000  -0.06620  -0.06227  -1.25954
    Z4       -0.06487  -0.00086   0.00000  -0.00109  -0.00142  -0.06629
    X5        1.97233  -0.02011   0.00000   0.02969   0.04221   2.01454
    Y5        0.02265   0.00050   0.00000  -0.02121  -0.01944   0.00321
    Z5       -0.17786  -0.00286   0.00000  -0.00894  -0.00951  -0.18738
    X6       -0.68935   0.04706   0.00000   0.04687   0.05902  -0.63033
    Y6        0.73695  -0.02956   0.00000  -0.00299  -0.00256   0.73439
    Z6       -0.33451   0.00183   0.00000   0.00951   0.00880  -0.32572
    X7       -1.42101  -0.02030   0.00000  -0.03004  -0.01896  -1.43997
    Y7        2.86954   0.04622   0.00000   0.02727   0.02735   2.89689
    Z7       -0.09589   0.00436   0.00000   0.00402   0.00281  -0.09309
    X8       -2.14379  -0.00240   0.00000  -0.01008   0.00306  -2.14073
    Y8       -1.26660  -0.01477   0.00000  -0.01405  -0.01448  -1.28108
    Z8       -0.77934  -0.00256   0.00000  -0.00345  -0.00365  -0.78300
    X9       -4.82510  -0.01680   0.00000  -0.05071  -0.03780  -4.86290
    Y9       -0.79308  -0.00268   0.00000  -0.00058  -0.00240  -0.79548
    Z9       -0.94047  -0.00341   0.00000  -0.00901  -0.00929  -0.94976
   X10       -5.98694  -0.00035   0.00000  -0.02657  -0.01375  -6.00068
   Y10       -0.56193   0.00005   0.00000   0.00248   0.00072  -0.56120
   Z10        1.66779   0.00019   0.00000   0.00274   0.00242   1.67020
   X11       -5.55627  -0.00033   0.00000  -0.02709  -0.01339  -5.56966
   Y11       -2.42338  -0.00062   0.00000  -0.00923  -0.01164  -2.43502
   Z11       -1.95924  -0.00048   0.00000  -0.01011  -0.00998  -1.96923
   X12       -5.12771  -0.00046   0.00000  -0.02460  -0.01256  -5.14027
   Y12        0.91158   0.00149   0.00000   0.00754   0.00532   0.91689
   Z12       -2.05839  -0.00066   0.00000  -0.00651  -0.00720  -2.06559
   X13       -8.03145  -0.00146   0.00000  -0.02805  -0.01533  -8.04678
   Y13       -0.34716   0.00028   0.00000   0.00552   0.00271  -0.34445
   Z13        1.49510   0.00041   0.00000   0.01718   0.01684   1.51194
   X14       -5.59915   0.00026   0.00000  -0.01212   0.00156  -5.59759
   Y14       -2.25382  -0.00092   0.00000   0.00033  -0.00096  -2.25477
   Z14        2.78006   0.00079   0.00000   0.00095   0.00103   2.78109
   X15       -5.24171   0.00020   0.00000  -0.01052   0.00150  -5.24020
   Y15        1.08581   0.00122   0.00000   0.00293   0.00179   1.08760
   Z15        2.65431   0.00120   0.00000  -0.00130  -0.00203   2.65228
         Item               Value     Threshold  Converged?
 Maximum Force            0.047064     0.000450     NO 
 RMS     Force            0.014104     0.000300     NO 
 Maximum Displacement     0.221580     0.001800     NO 
 RMS     Displacement     0.044105     0.001200     NO 
 Predicted change in Energy=-1.624580D-02
 GradGradGradGradGradGradGradGradGradGradGradGradGradGradGradGradGradGrad


 ----------------------------------------------------------------------

 Electric dipole moment (input orientation):
 (Debye = 10**-18 statcoulomb cm , SI units = C m)
                  (au)            (Debye)         (10**-30 SI)
   Tot        0.499471D+00      0.126953D+01      0.423469D+01
   x         -0.298794D+00     -0.759458D+00     -0.253328D+01
   y         -0.953220D-02     -0.242284D-01     -0.808174D-01
   z         -0.400128D+00     -0.101703D+01     -0.339243D+01

 Dipole polarizability, Alpha (input orientation).
 (esu units = cm**3 , SI units = C**2 m**2 J**-1)
 Alpha(0;0):
               (au)            (10**-24 esu)      (10**-40 SI)
   iso        0.781118D+02      0.115750D+02      0.128789D+02
   aniso      0.789588D+02      0.117005D+02      0.130185D+02
   xx         0.129554D+03      0.191979D+02      0.213605D+02
   yx        -0.649619D+01     -0.962636D+00     -0.107108D+01
   yy         0.587044D+02      0.869910D+01      0.967905D+01
   zx         0.335252D+01      0.496793D+00      0.552757D+00
   zy         0.412918D+00      0.611882D-01      0.680810D-01
   zz         0.460774D+02      0.682797D+01      0.759714D+01

 ----------------------------------------------------------------------

 Dipole orientation:
     8          6.43782008          0.57126832         -5.57866388
     1          6.89419396         -1.14939349         -5.13386710
     6          3.41315019          0.63755944         -2.38045744
     1          5.28705380          1.23725202         -3.83762968
     6          1.68670089         -0.01353799         -1.03783340
     6         -0.35694118         -0.74755436          0.66629851
     8         -1.09949080         -2.87979320          0.87213682
     8         -1.24358898          1.23787791          1.93096830
     6         -3.29874879          0.74438425          3.65502628
     6         -5.79151436          0.55569073          2.25616192
     1         -3.26485776          2.35027394          4.93968510
     1         -2.88327788         -0.98317811          4.69908966
     1         -7.32784854          0.32471330          3.61347276
     1         -6.13543424          2.27092660          1.16541821
     1         -5.79495613         -1.06816211          0.98859673

 Electric dipole moment (dipole orientation):
 (Debye = 10**-18 statcoulomb cm , SI units = C m)
                  (au)            (Debye)         (10**-30 SI)
   Tot        0.499471D+00      0.126953D+01      0.423469D+01
   x          0.000000D+00      0.000000D+00      0.000000D+00
   y          0.000000D+00      0.000000D+00      0.000000D+00
   z          0.499471D+00      0.126953D+01      0.423469D+01

 Dipole polarizability, Alpha (dipole orientation).
 (esu units = cm**3 , SI units = C**2 m**2 J**-1)
 Alpha(0;0):
               (au)            (10**-24 esu)      (10**-40 SI)
   iso        0.781118D+02      0.115750D+02      0.128789D+02
   aniso      0.789588D+02      0.117005D+02      0.130185D+02
   xx         0.965323D+02      0.143046D+02      0.159160D+02
   yx         0.599414D+01      0.888240D+00      0.988300D+00
   yy         0.587700D+02      0.870882D+01      0.968987D+01
   zx        -0.408843D+02     -0.605842D+01     -0.674090D+01
   zy        -0.368491D+01     -0.546048D+00     -0.607560D+00
   zz         0.790330D+02      0.117115D+02      0.130308D+02

 ----------------------------------------------------------------------
 1\1\GINC-AJ\Freq\UM062X\6-31+G\C5H7O3(2)\AAYUSH\20-Jun-2025\0\\# freq 
 6-31+g m062x\\Title Card Required\\0,2\O,4.497773,-0.267496,0.332724\H
 ,4.544712,0.636832,-0.017686\C,2.202996,-0.324722,-0.064906\H,3.460894
 ,-0.633571,-0.034328\C,1.043713,0.011986,-0.094122\C,-0.364789,0.38997
 7,-0.177016\O,-0.751968,1.518493,-0.050745\O,-1.134447,-0.670254,-0.41
 241\C,-2.553334,-0.419679,-0.497676\C,-3.168151,-0.297358,0.882555\H,-
 2.940254,-1.282395,-1.036787\H,-2.713469,0.482385,-1.089252\H,-4.25005
 9,-0.183709,0.791172\H,-2.96294,-1.192669,1.471145\H,-2.773791,0.57458
 7,1.404599\\Version=ES64L-G16RevA.03\State=2-A\HF=-419.924266\S2=0.761
 506\S2-1=0.\S2A=0.750094\RMSD=1.958e-09\RMSF=1.410e-02\ZeroPoint=0.107
 6339\Thermal=0.1148891\Dipole=-0.2987939,-0.0095322,-0.4001285\DipoleD
 eriv=0.0604104,-0.0153205,0.1153249,0.085955,-0.2239653,-0.0919973,0.3
 469853,-0.1180083,-0.3889709,0.5179154,0.0366353,-0.0172514,0.2239158,
 0.1826938,0.1179359,-0.0770609,0.1147508,0.3680765,0.1643243,0.0685338
 ,0.1038917,-0.0245774,-0.2513345,-0.0072151,0.1085219,0.0219242,-0.238
 7282,-0.6822427,-0.014179,-0.1833534,-0.2523642,0.2936265,-0.0156607,-
 0.3353511,-0.0041277,0.2546962,-0.8372859,0.0383344,-0.0476381,0.05683
 86,-0.0943484,-0.00729,-0.1288482,-0.0183169,-0.0319921,2.6109887,-0.0
 008358,0.1159147,0.4458193,1.7182605,0.1441787,0.2805135,0.1854045,0.4
 412743,-0.9752307,0.2425424,-0.0020126,0.0992918,-1.0940495,-0.0565008
 ,-0.0332681,-0.0652847,-0.3675176,-1.7419971,-0.3857067,-0.0381956,-0.
 6301044,-0.8541471,-0.0844966,-0.1726336,-0.125794,-0.4175249,0.972858
 8,0.1241642,-0.023169,-0.0013781,0.258094,-0.0111047,0.0094553,0.04171
 66,0.353437,-0.1153049,-0.0338066,0.0202025,0.0065613,0.0312461,-0.016
 6748,0.0515409,-0.0516121,-0.1047736,-0.0197052,-0.0260043,-0.0020467,
 -0.0698704,-0.0190218,-0.0995646,-0.0252179,-0.0717151,0.0200769,-0.01
 65769,-0.0392585,0.0292509,0.0642729,-0.0028331,0.1019915,0.0064168,0.
 0511857,0.0002971,-0.1467756,0.014261,-0.000792,0.0232801,0.1114214,0.
 0023923,-0.0195567,0.0164111,0.0770235,0.10353,0.0589236,-0.0246282,0.
 0206925,-0.0450094,0.0998788,0.0145825,0.0568628,0.0055147,0.1050914,-
 0.0682833,-0.0454977,-0.0483328,-0.0106333,-0.0758727,-0.0260799,-0.03
 3397,0.0291112\Polar=129.5535878,-6.4961868,58.7044044,3.352525,0.4129
 184,46.0773955\Quadrupole=7.8041861,-5.7671267,-2.0370594,6.8202008,-2
 .6313462,-0.3135843\PG=C01 [X(C5H7O3)]\NImag=5\\0.09806923,0.04685076,
 0.46944358,0.02277850,-0.16881263,0.07305675,-0.02096986,-0.01196220,-
 0.00339542,0.02363585,-0.04462233,-0.44969096,0.16312595,0.03772072,0.
 45776733,0.00775694,0.17980954,-0.06575133,-0.00247575,-0.17176104,0.0
 6182909,-0.11130671,-0.02934543,-0.03726622,-0.00375542,-0.00365517,0.
 00126134,1.16175443,0.02142255,0.01330233,0.00663019,0.00074388,0.0032
 6597,0.00071313,-0.29534378,0.12682159,-0.00950335,0.00524409,0.001278
 53,0.00321293,-0.00303220,-0.00019105,0.03914193,-0.01153531,0.0578752
 9,0.04574813,-0.00842932,0.01864239,-0.00261685,0.00993668,-0.00661173
 ,0.00044148,-0.01056716,-0.00467636,-0.05934169,-0.02799550,-0.0306839
 4,-0.00178135,-0.02412456,-0.01075900,-0.00844353,0.04172970,-0.042932
 69,-0.00033908,0.01173785,0.07547837,-0.02205615,-0.01443111,-0.008597
 79,0.00325872,0.01050351,0.00419999,0.02785259,-0.00617075,-0.02763393
 ,-0.00764994,0.01024752,0.02272170,-0.01082756,0.00367532,-0.00002695,
 0.00446521,0.00139385,0.00010893,-1.05121101,0.28311643,-0.02612258,0.
 01361642,-0.00388855,-0.00256583,1.38440726,0.00604707,-0.00317328,0.0
 0119457,-0.00327025,-0.00055187,-0.00029969,0.27844373,-0.11081995,0.0
 0996656,-0.00533520,0.00756071,-0.00066466,-0.34020842,0.21489098,0.00
 185868,-0.00178207,-0.00007128,-0.00048176,0.00149774,-0.00013537,-0.0
 3338967,0.01249723,-0.04805812,-0.00143959,-0.00025444,0.00874854,0.05
 043522,-0.01067351,0.09744102,-0.00215097,-0.00113955,-0.00254928,-0.0
 0266309,-0.00262644,0.00044192,0.00979643,-0.00026796,-0.00303262,0.00
 695673,0.00436957,0.00321520,-0.25797642,0.04731821,-0.00597801,0.6805
 1900,-0.00153027,0.00086250,-0.00029385,0.00097619,0.00052224,0.000157
 79,0.00847425,0.00861553,-0.00080805,0.00123210,0.00113142,0.00003944,
 0.02851258,-0.07768442,0.00678754,-0.14550149,1.02342586,-0.00103961,-
 0.00025825,-0.00001306,-0.00040683,-0.00043714,0.00026542,0.00340668,-
 0.00335830,0.02027758,0.00248035,0.00071824,0.00113932,-0.01401072,0.0
 1084034,-0.10293178,0.02537944,0.10459949,0.22065485,0.00127976,-0.000
 03700,0.00100884,0.00071722,0.00102254,-0.00020114,-0.00510188,-0.0005
 0458,0.00037197,-0.00345734,-0.00154562,-0.00124375,-0.02527422,0.0550
 5566,0.00185543,-0.17478149,0.24245884,0.02453426,0.17888322,-0.000517
 34,-0.00030948,-0.00053323,-0.00056622,-0.00086146,-0.00002506,-0.0021
 8037,0.00155851,0.00028582,0.00233383,0.00107222,0.00099618,0.04036662
 ,-0.03007773,-0.00486648,0.23013947,-0.72671023,-0.07341221,-0.2612759
 1,0.85915182,0.00008902,0.00011364,-0.00004699,0.00005920,-0.00002418,
 -0.00017275,-0.00117965,0.00070645,-0.00203393,-0.00036469,0.00001241,
 -0.00020810,0.00135563,-0.00336034,0.02630378,0.02232606,-0.07103651,-
 0.07070655,-0.02139728,0.09742827,0.02528888,0.00033598,0.00039559,0.0
 0104245,0.00147336,0.00108404,-0.00032915,-0.00144063,0.00244613,0.000
 85219,-0.00205588,-0.00065882,-0.00107938,-0.05960765,-0.03657072,-0.0
 1320823,-0.20140854,-0.13137311,-0.03153595,0.02606680,-0.01762525,-0.
 00461885,0.53496034,0.00038088,0.00022428,0.00046191,0.00043997,0.0002
 8908,-0.00014596,0.00210447,0.00014716,0.00021074,-0.00093271,-0.00100
 735,-0.00054586,-0.01035279,0.00236444,-0.00187769,-0.08959064,-0.2344
 1495,-0.03341959,-0.02975439,-0.10316660,-0.02359636,0.11483894,0.4178
 6163,0.00009022,0.00010302,0.00019174,0.00022338,0.00012423,-0.0001014
 3,0.00020928,0.00041615,-0.00083577,-0.00037677,-0.00023857,-0.0002482
 5,-0.00823729,-0.00503742,0.01214469,-0.02705252,-0.03838538,-0.068628
 54,-0.00540680,-0.02187605,0.02637955,0.05913816,0.06099902,0.08776993
 ,-0.00023865,-0.00010672,-0.00039363,-0.00052749,-0.00044098,0.0000893
 4,0.00126059,-0.00132972,-0.00043485,0.00102065,0.00059005,0.00047801,
 0.00472328,0.00038517,0.00147226,-0.05738622,-0.02605528,-0.01178905,-
 0.00041751,0.01761181,0.00265411,-0.19891859,0.01144907,-0.01606771,0.
 47569248,-0.00003393,0.00002012,0.00003584,0.00003724,0.00001330,-0.00
 002174,-0.00025901,0.00021213,0.00012268,0.00002840,0.00013313,0.00001
 401,-0.00320720,-0.00306798,-0.00185494,-0.04230998,0.00824448,-0.0045
 4761,-0.00074763,-0.00250538,0.00021503,0.04590906,-0.09056656,0.00331
 672,0.04745397,0.65565629,0.00003743,0.00000333,-0.00005881,-0.0000209
 9,-0.00001365,0.00005849,-0.00004369,0.00015024,-0.00092935,-0.0000092
 9,0.00010729,-0.00008874,-0.00118333,-0.00213994,0.00744289,-0.0138870
 1,-0.00629791,-0.00201135,-0.00218837,0.00270262,-0.00492425,-0.009673
 10,0.00137728,-0.06317929,0.03819655,0.00139405,0.55517159,0.00002294,
 0.00004077,0.00009300,0.00013563,0.00010602,-0.00002726,-0.00014920,0.
 00003538,0.00013446,-0.00018660,-0.00012210,-0.00005475,-0.00076119,-0
 .00018085,-0.00184614,0.00218953,0.00749589,0.00362489,0.00039702,-0.0
 0297201,0.00069764,-0.04040974,0.00284751,0.03731923,-0.08926532,0.000
 10540,0.03227299,0.58194170,-0.00001361,-0.00000381,-0.00002921,-0.000
 01558,-0.00000946,0.00001757,0.00008260,-0.00016339,-0.00017287,0.0000
 5453,0.00003487,0.00002563,0.00022155,0.00010268,0.00072883,-0.0015273
 2,0.00049550,0.00066527,0.00085928,0.00065989,-0.00096775,0.00676631,0
 .00260238,-0.00467288,-0.00035631,-0.08994670,-0.00835613,0.00406614,0
 .60236193,0.00000190,0.00001193,0.00001208,0.00002798,0.00002123,-0.00
 000675,-0.00014554,-0.00001840,0.00016170,-0.00001018,-0.00003309,-0.0
 0001892,0.00023708,0.00006476,-0.00071853,-0.00018749,0.00453993,0.001
 90011,0.00172560,-0.00128349,-0.00128462,-0.00045880,-0.00300617,0.005
 92926,0.04509854,-0.00898470,-0.20380155,0.04019683,-0.00581750,0.5222
 0258,0.00002550,0.00003856,0.00006491,0.00008380,0.00006016,-0.0000199
 9,-0.00031072,0.00028359,0.00006841,-0.00012221,-0.00007635,-0.0000935
 8,-0.00125793,-0.00125186,0.00004313,-0.00443296,0.00570024,-0.0016735
 5,0.00159305,-0.00098515,0.00020295,-0.03394624,-0.03190097,-0.0177273
 5,-0.07487727,-0.07008018,-0.04441154,0.00698448,0.01223307,0.00833171
 ,0.10241822,0.00001103,-0.00001124,0.00002478,0.00002082,0.00001667,-0
 .00001280,-0.00001692,-0.00003221,0.00010148,-0.00005145,-0.00000343,-
 0.00002453,0.00005677,0.00040545,-0.00042263,0.00309501,-0.00150593,0.
 00018913,-0.00196358,0.00092845,-0.00030817,0.00726662,0.00697227,0.00
 504874,-0.08321247,-0.23683121,-0.10988334,0.00009544,0.00036113,0.001
 11239,0.08358899,0.24726497,-0.00000331,0.00000563,-0.00000024,0.00000
 933,0.00000424,-0.00000123,0.00000167,0.00004773,0.00001066,-0.0000198
 8,-0.00000634,0.00000081,-0.00027457,-0.00014232,0.00004001,0.00087282
 ,0.00255892,0.00042890,0.00099645,-0.00026609,0.00042926,-0.00238853,-
 0.00263563,0.00042748,-0.04968863,-0.10754443,-0.11935253,-0.00926353,
 -0.02672960,-0.01730127,0.05038176,0.11902248,0.12771198,0.00001401,0.
 00003195,0.00003596,0.00005552,0.00004291,-0.00000673,0.00002690,-0.00
 003858,0.00002033,-0.00005029,-0.00005147,-0.00008679,-0.00029954,-0.0
 0036876,0.00065160,0.00192540,0.00893225,0.00049776,0.00083452,-0.0035
 3126,-0.00050955,-0.02812847,0.03136273,-0.02265739,-0.05325083,0.0208
 8993,-0.01615585,0.00414965,-0.01253921,0.00914411,0.00381281,-0.00955
 308,0.00709136,0.07133886,-0.00001105,0.00001050,-0.00004724,-0.000021
 49,-0.00002114,0.00001780,0.00007981,-0.00001079,-0.00015078,0.0000516
 4,0.00001054,0.00003536,0.00034571,-0.00015074,0.00078313,-0.00283487,
 -0.00094678,-0.00086198,-0.00185324,0.00005524,-0.00113744,0.00704687,
 -0.00246648,0.00103705,0.03201295,-0.24318331,0.12461960,-0.00105038,0
 .00454371,-0.00426295,0.00304241,-0.01948131,0.01491303,-0.03649601,0.
 26024951,-0.00002383,0.00000136,-0.00001493,-0.00001465,-0.00001710,0.
 00000666,0.00015223,-0.00006960,0.00005038,0.00007747,0.00002783,0.000
 01096,0.00010382,-0.00027014,-0.00020455,-0.00080599,0.00356867,0.0013
 9720,0.00191730,-0.00138473,-0.00021185,-0.00275501,0.00075051,0.00038
 229,-0.02122489,0.12028963,-0.13156608,-0.00241016,0.02676696,-0.01846
 374,0.00284447,-0.01464932,0.01018997,0.02017212,-0.13404130,0.1410186
 4,0.00001893,0.00001287,0.00004433,0.00006175,0.00004774,-0.00001211,-
 0.00004215,0.00000981,0.00006160,-0.00010391,-0.00004856,-0.00005523,-
 0.00027639,0.00003841,-0.00030284,0.00173610,0.00162348,0.00015839,-0.
 00011799,-0.00064125,0.00024680,-0.00105880,-0.00090508,0.00336548,-0.
 01363884,0.00126460,-0.00522652,-0.31860084,0.02832774,-0.02279669,0.0
 0036505,0.00038493,0.00012017,0.00018717,-0.00044662,0.00025742,0.3484
 8105,0.00000019,-0.00000052,0.00000205,-0.00000127,0.00000156,-0.00000
 003,-0.00002174,-0.00000211,0.00006398,-0.00000287,0.00000100,-0.00000
 548,0.00004059,0.00007633,-0.00026209,0.00010544,-0.00117231,-0.000389
 28,-0.00045584,0.00026417,0.00062703,0.00112639,0.00115832,-0.00075940
 ,0.00244994,-0.00127495,0.00087925,0.02794282,-0.05044724,0.00220603,-
 0.00009083,-0.00018571,0.00004729,-0.00002377,-0.00004532,0.00008154,-
 0.03170306,0.05048300,-0.00000933,-0.00000535,-0.00001003,-0.00002158,
 -0.00001996,0.00000297,0.00008403,-0.00000972,-0.00004973,0.00002985,0
 .00001552,0.00000217,0.00021569,0.00013081,0.00051106,-0.00044924,-0.0
 0298612,-0.00141424,-0.00056451,0.00114069,0.00029725,0.00686229,0.000
 44229,-0.00611588,0.03129922,-0.00321211,0.00474697,-0.02565685,0.0028
 4039,-0.05159357,-0.00076408,-0.00058514,0.00117787,-0.00068231,0.0008
 6266,0.00092974,0.02462672,-0.00231517,0.05406129,-0.00000629,-0.00000
 944,-0.00003135,-0.00003829,-0.00002665,0.00001089,-0.00001314,0.00001
 944,-0.00003984,0.00005298,0.00002210,0.00003932,0.00009678,0.00001540
 ,0.00006409,-0.00073331,-0.00169083,-0.00011101,-0.00036941,0.00065305
 ,0.00022066,0.00251345,0.00004134,-0.00120336,0.00099796,-0.01244187,0
 .01151281,-0.05933934,0.04379115,-0.03049887,0.00019053,0.00012260,-0.
 00099125,-0.00070244,0.00028767,0.00277725,-0.00548388,0.02873012,-0.0
 1863293,0.06030186,0.00001431,-0.00000174,-0.00000462,0.00000608,0.000
 00971,0.00000781,-0.00007747,0.00002042,0.00000630,-0.00003209,-0.0000
 1123,0.00000410,-0.00010278,0.00010556,-0.00016452,0.00037058,-0.00075
 005,0.00034949,-0.00061034,0.00028101,0.00035675,-0.00139809,0.0001419
 9,-0.00034755,0.00072654,0.00380631,-0.00392977,0.04319013,-0.23952986
 ,0.12154740,-0.00047824,0.00076062,0.00033501,0.00083714,0.00096171,-0
 .00118233,-0.00084868,-0.00252575,0.00076407,-0.04844601,0.25722568,-0
 .00000185,-0.00000686,-0.00000099,-0.00000513,-0.00000074,0.00000039,0
 .00002136,-0.00006308,0.00004035,0.00001029,0.00001829,-0.00000247,0.0
 0005090,0.00011788,-0.00017850,0.00010773,0.00046216,0.00013718,-0.000
 04161,-0.00036713,0.00013257,-0.00196922,-0.00104578,0.00316301,-0.006
 05107,0.02963826,-0.02205017,-0.02780282,0.11872985,-0.12632710,-0.000
 51143,-0.00015483,0.00114106,0.00291747,-0.00180348,-0.00473578,0.0000
 1656,0.00163628,-0.00134717,0.02945592,-0.13316361,0.14081365,-0.00001
 444,-0.00001617,-0.00004754,-0.00005735,-0.00004310,0.00001452,0.00005
 102,-0.00002541,-0.00005422,0.00009839,0.00006226,0.00004158,0.0001829
 7,-0.00011758,0.00026584,-0.00159019,0.00074516,0.00048496,-0.00025174
 ,-0.00081003,0.00021793,0.00162462,-0.00002834,-0.00161654,0.00482576,
 0.01339120,0.01077990,-0.08710872,-0.08195033,-0.05066617,-0.00052609,
 0.00015530,0.00315613,0.00008672,-0.00015341,-0.00106754,-0.01152726,-
 0.02809610,-0.01633696,0.00253253,0.00684893,0.00380289,0.09167378,-0.
 00000276,0.00001167,0.00002684,0.00001667,0.00000802,-0.00001380,-0.00
 001467,0.00001752,0.00003667,-0.00002424,-0.00002461,-0.00002335,0.000
 03031,0.00001984,-0.00013610,0.00039998,-0.00011285,-0.00067760,-0.000
 64819,-0.00034043,0.00097118,0.00074605,-0.00013961,0.00027231,-0.0011
 7803,-0.00070966,-0.00061292,-0.08160016,-0.23106164,-0.10609738,-0.00
 008343,0.00134150,0.00039008,0.00050523,0.00047467,0.00012802,0.002883
 69,0.00366952,0.00293714,-0.01106806,-0.02049437,-0.01399721,0.0900376
 2,0.24734042,0.00002477,0.00000372,0.00002637,0.00003058,0.00002910,-0
 .00000308,-0.00010633,0.00006405,0.00003741,-0.00008192,-0.00005070,-0
 .00002529,-0.00008600,0.00027309,-0.00033384,0.00159898,-0.00290610,-0
 .00049502,-0.00136639,0.00146090,0.00075775,0.00012114,0.00203129,0.00
 272120,-0.01363819,-0.02886066,-0.01945781,-0.04727753,-0.10302856,-0.
 11068969,0.00326418,0.00054176,-0.00490273,-0.00043209,0.00003654,0.00
 121109,-0.00050409,-0.00181200,-0.00119869,0.00742768,0.01542145,0.009
 21396,0.05102520,0.11679610,0.12313837\\-0.01275457,0.00589458,-0.0051
 4359,-0.00670726,-0.01704237,0.00247944,-0.02648207,0.00340245,0.00060
 467,0.03125718,0.00895242,0.00086032,0.02011401,-0.00049686,0.00286283
 ,-0.04706448,0.02955701,-0.00183111,0.02030213,-0.04622158,-0.00435799
 ,0.00240070,0.01477145,0.00255649,0.01679508,0.00267876,0.00340962,0.0
 0034504,-0.00005116,-0.00018710,0.00033422,0.00062258,0.00047693,0.000
 46261,-0.00148663,0.00066390,0.00145648,-0.00028429,-0.00040840,-0.000
 26307,0.00092094,-0.00078504,-0.00019601,-0.00121730,-0.00120097\\\@


 This summer one third of the nation will be ill-housed
 ill-nourished and ill-clad. Only they call it a vacation.
 -- Jonas Salk
 Job cpu time:       0 days  0 hours 17 minutes 38.5 seconds.
 Elapsed time:       0 days  0 hours  0 minutes 44.2 seconds.
 File lengths (MBytes):  RWF=     59 Int=      0 D2E=      0 Chk=      8 Scr=      1
 Normal termination of Gaussian 16 at Fri Jun 20 12:16:01 2025.
