 Entering Gaussian System, Link 0=g16
 Initial command:
 /opt/g16/l1.exe "/home/aayush/scratches/g16/Gau-3451.inp" -scrdir="/home/aayush/scratches/g16/"
 Entering Link 1 = /opt/g16/l1.exe PID=      3454.
  
 Copyright (c) 1988,1990,1992,1993,1995,1998,2003,2009,2016,
            Gaussian, Inc.  All Rights Reserved.
  
 This is part of the Gaussian(R) 16 program.  It is based on
 the Gaussian(R) 09 system (copyright 2009, Gaussian, Inc.),
 the Gaussian(R) 03 system (copyright 2003, Gaussian, Inc.),
 the Gaussian(R) 98 system (copyright 1998, Gaussian, Inc.),
 the Gaussian(R) 94 system (copyright 1995, Gaussian, Inc.),
 the Gaussian 92(TM) system (copyright 1992, Gaussian, Inc.),
 the Gaussian 90(TM) system (copyright 1990, Gaussian, Inc.),
 the Gaussian 88(TM) system (copyright 1988, Gaussian, Inc.),
 the Gaussian 86(TM) system (copyright 1986, Carnegie Mellon
 University), and the Gaussian 82(TM) system (copyright 1983,
 Carnegie Mellon University). Gaussian is a federally registered
 trademark of Gaussian, Inc.
  
 This software contains proprietary and confidential information,
 including trade secrets, belonging to Gaussian, Inc.
  
 This software is provided under written license and may be
 used, copied, transmitted, or stored only in accord with that
 written license.
  
 The following legend is applicable only to US Government
 contracts under FAR:
  
                    RESTRICTED RIGHTS LEGEND
  
 Use, reproduction and disclosure by the US Government is
 subject to restrictions as set forth in subparagraphs (a)
 and (c) of the Commercial Computer Software - Restricted
 Rights clause in FAR 52.227-19.
  
 Gaussian, Inc.
 340 Quinnipiac St., Bldg. 40, Wallingford CT 06492
  
  
 ---------------------------------------------------------------
 Warning -- This program may not be used in any manner that
 competes with the business of Gaussian, Inc. or will provide
 assistance to any competitor of Gaussian, Inc.  The licensee
 of this program is prohibited from giving any competitor of
 Gaussian, Inc. access to this program.  By using this program,
 the user acknowledges that Gaussian, Inc. is engaged in the
 business of creating and licensing software in the field of
 computational chemistry and represents and warrants to the
 licensee that it is not a competitor of Gaussian, Inc. and that
 it will not use this program in any manner prohibited above.
 ---------------------------------------------------------------
  

 Cite this work as:
 Gaussian 16, Revision A.03,
 M. J. Frisch, G. W. Trucks, H. B. Schlegel, G. E. Scuseria, 
 M. A. Robb, J. R. Cheeseman, G. Scalmani, V. Barone, 
 G. A. Petersson, H. Nakatsuji, X. Li, M. Caricato, A. V. Marenich, 
 J. Bloino, B. G. Janesko, R. Gomperts, B. Mennucci, H. P. Hratchian, 
 J. V. Ortiz, A. F. Izmaylov, J. L. Sonnenberg, D. Williams-Young, 
 F. Ding, F. Lipparini, F. Egidi, J. Goings, B. Peng, A. Petrone, 
 T. Henderson, D. Ranasinghe, V. G. Zakrzewski, J. Gao, N. Rega, 
 G. Zheng, W. Liang, M. Hada, M. Ehara, K. Toyota, R. Fukuda, 
 J. Hasegawa, M. Ishida, T. Nakajima, Y. Honda, O. Kitao, H. Nakai, 
 T. Vreven, K. Throssell, J. A. Montgomery, Jr., J. E. Peralta, 
 F. Ogliaro, M. J. Bearpark, J. J. Heyd, E. N. Brothers, K. N. Kudin, 
 V. N. Staroverov, T. A. Keith, R. Kobayashi, J. Normand, 
 K. Raghavachari, A. P. Rendell, J. C. Burant, S. S. Iyengar, 
 J. Tomasi, M. Cossi, J. M. Millam, M. Klene, C. Adamo, R. Cammi, 
 J. W. Ochterski, R. L. Martin, K. Morokuma, O. Farkas, 
 J. B. Foresman, and D. J. Fox, Gaussian, Inc., Wallingford CT, 2016.
 
 ******************************************
 Gaussian 16:  ES64L-G16RevA.03 25-Dec-2016
                23-Jun-2025 
 ******************************************
 %nprocshared=24
 Will use up to   24 processors via shared memory.
 %mem=12GB
 %chk=ethyl_propiolate_ts1.chk
 --------------------------
 # freq 6-311++g(d,p) m062x
 --------------------------
 1/10=4,30=1,38=1/1,3;
 2/12=2,17=6,18=5,40=1/2;
 3/5=4,6=6,7=1111,11=2,25=1,30=1,71=2,74=-55,140=1/1,2,3;
 4//1;
 5/5=2,38=5,98=1/2;
 8/6=4,10=90,11=11/1;
 11/6=1,8=1,9=11,15=111,16=1/1,2,10;
 10/6=1/2;
 6/7=2,8=2,9=2,10=2,28=1/1;
 7/8=1,10=1,25=1/1,2,3,16;
 1/10=4,30=1/3;
 99//99;
 -------------------
 Title Card Required
 -------------------
 Symbolic Z-matrix:
 Charge =  0 Multiplicity = 2
 O                     4.5589   -0.25649   0.32007 
 H                     4.60586   0.64699  -0.03098 
 C                     2.26404  -0.31242  -0.07719 
 H                     3.54903  -0.62367  -0.04655 
 C                     1.10502   0.02488  -0.10625 
 C                    -0.30311   0.40311  -0.18908 
 O                    -0.68958   1.53177  -0.06244 
 O                    -1.07298  -0.65675  -0.42455 
 C                    -2.4918   -0.40561  -0.50962 
 C                    -3.10639  -0.28334   0.8707 
 H                    -2.87908  -1.26806  -1.04888 
 H                    -2.65161   0.49664  -1.101 
 H                    -4.18826  -0.16925   0.77944 
 H                    -2.90148  -1.17886   1.45908 
 H                    -2.71166   0.58834   1.3929 
 

 GradGradGradGradGradGradGradGradGradGradGradGradGradGradGradGradGradGrad
 Berny optimization.
 Initialization pass.
 Trust Radius=3.00D-01 FncErr=1.00D-07 GrdErr=1.00D-07 EigMax=2.50D+02 EigMin=1.00D-04
 Number of steps in this run=      2 maximum allowed number of steps=      2.
 GradGradGradGradGradGradGradGradGradGradGradGradGradGradGradGradGradGrad

                          Input orientation:                          
 ---------------------------------------------------------------------
 Center     Atomic      Atomic             Coordinates (Angstroms)
 Number     Number       Type             X           Y           Z
 ---------------------------------------------------------------------
      1          8           0        4.558901   -0.256494    0.320068
      2          1           0        4.605858    0.646989   -0.030983
      3          6           0        2.264035   -0.312422   -0.077190
      4          1           0        3.549029   -0.623674   -0.046550
      5          6           0        1.105021    0.024877   -0.106246
      6          6           0       -0.303106    0.403106   -0.189078
      7          8           0       -0.689584    1.531772   -0.062439
      8          8           0       -1.072983   -0.656750   -0.424552
      9          6           0       -2.491801   -0.405611   -0.509623
     10          6           0       -3.106394   -0.283343    0.870700
     11          1           0       -2.879081   -1.268060   -1.048882
     12          1           0       -2.651608    0.496638   -1.101002
     13          1           0       -4.188261   -0.169251    0.779444
     14          1           0       -2.901482   -1.178860    1.459075
     15          1           0       -2.711659    0.588339    1.392902
 ---------------------------------------------------------------------
                    Distance matrix (angstroms):
                    1          2          3          4          5
     1  O    0.000000
     2  H    0.970424   0.000000
     3  C    2.329668   2.531154   0.000000
     4  H    1.135373   1.652790   1.322508   0.000000
     5  C    3.491447   3.556480   1.207447   2.529300   0.000000
     6  C    4.932891   4.917560   2.667342   3.989177   1.460390
     7  O    5.557949   5.368942   3.482116   4.755212   2.343770
     8  O    5.694979   5.839852   3.372671   4.637561   2.304265
     9  C    7.100917   7.191233   4.776365   6.062476   3.644882
    10  C    7.685094   7.820318   5.453517   6.726948   4.334217
    11  H    7.630260   7.792807   5.320627   6.537622   4.293404
    12  H    7.387698   7.337463   5.085894   6.388651   3.914634
    13  H    8.759651   8.869023   6.510487   7.794512   5.370379
    14  H    7.602987   7.868555   5.458332   6.647122   4.466685
    15  H    7.397686   7.454995   5.265935   6.537370   4.139080
                    6          7          8          9         10
     6  C    0.000000
     7  O    1.199704   0.000000
     8  O    1.330960   2.251166   0.000000
     9  C    2.355241   2.683545   1.443382   0.000000
    10  C    3.074535   3.163283   2.439646   1.515904   0.000000
    11  H    3.188684   3.688635   2.006359   1.088395   2.169363
    12  H    2.521074   2.449419   2.068803   1.090560   2.168596
    13  H    4.044757   3.980325   3.375236   2.143720   1.091687
    14  H    3.459853   3.815105   2.676576   2.154420   1.090928
    15  H    2.887577   2.663995   2.745659   2.157748   1.090110
                   11         12         13         14         15
    11  H    0.000000
    12  H    1.780062   0.000000
    13  H    2.502820   2.518092   0.000000
    14  H    2.509643   3.069809   1.771160   0.000000
    15  H    3.071898   2.496312   1.769358   1.778596   0.000000
 Stoichiometry    C5H7O3(2)
 Framework group  C1[X(C5H7O3)]
 Deg. of freedom    39
 Full point group                 C1      NOp   1
 Largest Abelian subgroup         C1      NOp   1
 Largest concise Abelian subgroup C1      NOp   1
                         Standard orientation:                         
 ---------------------------------------------------------------------
 Center     Atomic      Atomic             Coordinates (Angstroms)
 Number     Number       Type             X           Y           Z
 ---------------------------------------------------------------------
      1          8           0        4.558901   -0.256494    0.320068
      2          1           0        4.605858    0.646989   -0.030983
      3          6           0        2.264035   -0.312422   -0.077190
      4          1           0        3.549029   -0.623674   -0.046550
      5          6           0        1.105021    0.024877   -0.106246
      6          6           0       -0.303106    0.403106   -0.189078
      7          8           0       -0.689584    1.531772   -0.062439
      8          8           0       -1.072983   -0.656750   -0.424552
      9          6           0       -2.491801   -0.405611   -0.509623
     10          6           0       -3.106394   -0.283343    0.870700
     11          1           0       -2.879081   -1.268060   -1.048882
     12          1           0       -2.651608    0.496638   -1.101002
     13          1           0       -4.188261   -0.169251    0.779444
     14          1           0       -2.901482   -1.178860    1.459075
     15          1           0       -2.711659    0.588339    1.392902
 ---------------------------------------------------------------------
 Rotational constants (GHZ):           6.2892316           0.6892952           0.6608760
 Standard basis: 6-311++G(d,p) (5D, 7F)
 There are   233 symmetry adapted cartesian basis functions of A   symmetry.
 There are   225 symmetry adapted basis functions of A   symmetry.
   225 basis functions,   351 primitive gaussians,   233 cartesian basis functions
    31 alpha electrons       30 beta electrons
       nuclear repulsion energy       334.9865606646 Hartrees.
 NAtoms=   15 NActive=   15 NUniq=   15 SFac= 1.00D+00 NAtFMM=   60 NAOKFM=F Big=F
 Integral buffers will be    131072 words long.
 Raffenetti 2 integral format.
 Two-electron integral symmetry is turned on.
 One-electron integrals computed using PRISM.
 NBasis=   225 RedAO= T EigKep=  5.39D-06  NBF=   225
 NBsUse=   224 1.00D-06 EigRej=  4.61D-07 NBFU=   224
 ExpMin= 3.60D-02 ExpMax= 8.59D+03 ExpMxC= 1.30D+03 IAcc=3 IRadAn=         5 AccDes= 0.00D+00
 Harris functional with IExCor= 1009 and IRadAn=       5 diagonalized for initial guess.
 HarFok:  IExCor= 1009 AccDes= 0.00D+00 IRadAn=         5 IDoV= 1 UseB2=F ITyADJ=14
 ICtDFT=  3500011 ScaDFX=  1.000000  1.000000  1.000000  1.000000
 FoFCou: FMM=F IPFlag=           0 FMFlag=      100000 FMFlg1=           0
         NFxFlg=           0 DoJE=T BraDBF=F KetDBF=T FulRan=T
         wScrn=  0.000000 ICntrl=       500 IOpCl=  0 I1Cent=   200000004 NGrid=           0
         NMat0=    1 NMatS0=      1 NMatT0=    0 NMatD0=    1 NMtDS0=    0 NMtDT0=    0
 Petite list used in FoFCou.
 Initial guess <Sx>= 0.0000 <Sy>= 0.0000 <Sz>= 0.5000 <S**2>= 0.7500 S= 0.5000
 Requested convergence on RMS density matrix=1.00D-08 within 128 cycles.
 Requested convergence on MAX density matrix=1.00D-06.
 Requested convergence on             energy=1.00D-06.
 No special actions if energy rises.
 Restarting incremental Fock formation.
 SCF Done:  E(UM062X) =  -420.175433178     A.U. after   22 cycles
            NFock= 22  Conv=0.52D-08     -V/T= 2.0033
 <Sx>= 0.0000 <Sy>= 0.0000 <Sz>= 0.5000 <S**2>= 0.7629 S= 0.5064
 <L.S>=  0.00000000000    
 Annihilation of the first spin contaminant:
 S**2 before annihilation     0.7629,   after     0.7501
 DoSCS=F DFT=T ScalE2(SS,OS)=  1.000000  1.000000
 Range of M.O.s used for correlation:     1   224
 NBasis=   225 NAE=    31 NBE=    30 NFC=     0 NFV=     0
 NROrb=    224 NOA=    31 NOB=    30 NVA=   193 NVB=   194

 **** Warning!!: The largest alpha MO coefficient is  0.81267629D+02


 **** Warning!!: The largest beta MO coefficient is  0.93081651D+02

 Symmetrizing basis deriv contribution to polar:
 IMax=3 JMax=2 DiffMx= 0.00D+00
 G2DrvN: will do    16 centers at a time, making    1 passes.
 Calling FoFCou, ICntrl=  3107 FMM=F I1Cent=   0 AccDes= 0.00D+00.
 End of G2Drv F.D. properties file   721 does not exist.
 End of G2Drv F.D. properties file   722 does not exist.
 End of G2Drv F.D. properties file   788 does not exist.
          IDoAtm=111111111111111
          Differentiating once with respect to electric field.
                with respect to dipole field.
          Differentiating once with respect to nuclear coordinates.
 Keep R1 and R2 ints in memory in canonical form, NReq=671901989.
          There are    48 degrees of freedom in the 1st order CPHF.  IDoFFX=6 NUNeed=     3.
     45 vectors produced by pass  0 Test12= 2.46D-14 2.08D-09 XBig12= 1.43D+02 4.86D+00.
 AX will form    45 AO Fock derivatives at one time.
     45 vectors produced by pass  1 Test12= 2.46D-14 2.08D-09 XBig12= 3.03D+01 1.12D+00.
     45 vectors produced by pass  2 Test12= 2.46D-14 2.08D-09 XBig12= 1.91D+00 1.90D-01.
     45 vectors produced by pass  3 Test12= 2.46D-14 2.08D-09 XBig12= 3.41D-02 1.95D-02.
     45 vectors produced by pass  4 Test12= 2.46D-14 2.08D-09 XBig12= 4.48D-04 3.45D-03.
     45 vectors produced by pass  5 Test12= 2.46D-14 2.08D-09 XBig12= 6.03D-06 2.46D-04.
     38 vectors produced by pass  6 Test12= 2.46D-14 2.08D-09 XBig12= 4.91D-08 2.30D-05.
     24 vectors produced by pass  7 Test12= 2.46D-14 2.08D-09 XBig12= 3.79D-10 1.77D-06.
      5 vectors produced by pass  8 Test12= 2.46D-14 2.08D-09 XBig12= 2.83D-12 1.45D-07.
      2 vectors produced by pass  9 Test12= 2.46D-14 2.08D-09 XBig12= 1.93D-14 1.49D-08.
 InvSVY:  IOpt=1 It=  1 EMax= 1.95D-14
 Solved reduced A of dimension   339 with    48 vectors.
 Isotropic polarizability for W=    0.000000       82.98 Bohr**3.
 End of Minotr F.D. properties file   721 does not exist.
 End of Minotr F.D. properties file   722 does not exist.
 End of Minotr F.D. properties file   788 does not exist.

 **********************************************************************

            Population analysis using the SCF density.

 **********************************************************************

 Orbital symmetries:
 Alpha Orbitals:
       Occupied  (A) (A) (A) (A) (A) (A) (A) (A) (A) (A) (A) (A)
                 (A) (A) (A) (A) (A) (A) (A) (A) (A) (A) (A) (A)
                 (A) (A) (A) (A) (A) (A) (A)
       Virtual   (A) (A) (A) (A) (A) (A) (A) (A) (A) (A) (A) (A)
                 (A) (A) (A) (A) (A) (A) (A) (A) (A) (A) (A) (A)
                 (A) (A) (A) (A) (A) (A) (A) (A) (A) (A) (A) (A)
                 (A) (A) (A) (A) (A) (A) (A) (A) (A) (A) (A) (A)
                 (A) (A) (A) (A) (A) (A) (A) (A) (A) (A) (A) (A)
                 (A) (A) (A) (A) (A) (A) (A) (A) (A) (A) (A) (A)
                 (A) (A) (A) (A) (A) (A) (A) (A) (A) (A) (A) (A)
                 (A) (A) (A) (A) (A) (A) (A) (A) (A) (A) (A) (A)
                 (A) (A) (A) (A) (A) (A) (A) (A) (A) (A) (A) (A)
                 (A) (A) (A) (A) (A) (A) (A) (A) (A) (A) (A) (A)
                 (A) (A) (A) (A) (A) (A) (A) (A) (A) (A) (A) (A)
                 (A) (A) (A) (A) (A) (A) (A) (A) (A) (A) (A) (A)
                 (A) (A) (A) (A) (A) (A) (A) (A) (A) (A) (A) (A)
                 (A) (A) (A) (A) (A) (A) (A) (A) (A) (A) (A) (A)
                 (A) (A) (A) (A) (A) (A) (A) (A) (A) (A) (A) (A)
                 (A) (A) (A) (A) (A) (A) (A) (A) (A) (A) (A) (A)
                 (A)
 Beta  Orbitals:
       Occupied  (A) (A) (A) (A) (A) (A) (A) (A) (A) (A) (A) (A)
                 (A) (A) (A) (A) (A) (A) (A) (A) (A) (A) (A) (A)
                 (A) (A) (A) (A) (A) (A)
       Virtual   (A) (A) (A) (A) (A) (A) (A) (A) (A) (A) (A) (A)
                 (A) (A) (A) (A) (A) (A) (A) (A) (A) (A) (A) (A)
                 (A) (A) (A) (A) (A) (A) (A) (A) (A) (A) (A) (A)
                 (A) (A) (A) (A) (A) (A) (A) (A) (A) (A) (A) (A)
                 (A) (A) (A) (A) (A) (A) (A) (A) (A) (A) (A) (A)
                 (A) (A) (A) (A) (A) (A) (A) (A) (A) (A) (A) (A)
                 (A) (A) (A) (A) (A) (A) (A) (A) (A) (A) (A) (A)
                 (A) (A) (A) (A) (A) (A) (A) (A) (A) (A) (A) (A)
                 (A) (A) (A) (A) (A) (A) (A) (A) (A) (A) (A) (A)
                 (A) (A) (A) (A) (A) (A) (A) (A) (A) (A) (A) (A)
                 (A) (A) (A) (A) (A) (A) (A) (A) (A) (A) (A) (A)
                 (A) (A) (A) (A) (A) (A) (A) (A) (A) (A) (A) (A)
                 (A) (A) (A) (A) (A) (A) (A) (A) (A) (A) (A) (A)
                 (A) (A) (A) (A) (A) (A) (A) (A) (A) (A) (A) (A)
                 (A) (A) (A) (A) (A) (A) (A) (A) (A) (A) (A) (A)
                 (A) (A) (A) (A) (A) (A) (A) (A) (A) (A) (A) (A)
                 (A) (A)
 The electronic state is 2-A.
 Alpha  occ. eigenvalues --  -19.70345 -19.68688 -19.63610 -10.71095 -10.60909
 Alpha  occ. eigenvalues --  -10.59236 -10.57451 -10.54050  -1.26073  -1.18872
 Alpha  occ. eigenvalues --   -1.16794  -0.90772  -0.87317  -0.78312  -0.71061
 Alpha  occ. eigenvalues --   -0.67448  -0.64402  -0.58824  -0.57487  -0.56755
 Alpha  occ. eigenvalues --   -0.54044  -0.49694  -0.47085  -0.46716  -0.45720
 Alpha  occ. eigenvalues --   -0.43332  -0.42277  -0.39806  -0.38899  -0.37706
 Alpha  occ. eigenvalues --   -0.36648
 Alpha virt. eigenvalues --   -0.01927  -0.00537   0.00064   0.01728   0.02322
 Alpha virt. eigenvalues --    0.02705   0.03742   0.05092   0.05386   0.06315
 Alpha virt. eigenvalues --    0.06967   0.07842   0.08233   0.08752   0.10220
 Alpha virt. eigenvalues --    0.11599   0.12384   0.12444   0.13213   0.13245
 Alpha virt. eigenvalues --    0.14476   0.14870   0.15543   0.16297   0.16670
 Alpha virt. eigenvalues --    0.17336   0.18382   0.19444   0.19535   0.20288
 Alpha virt. eigenvalues --    0.20971   0.22524   0.23031   0.23390   0.25561
 Alpha virt. eigenvalues --    0.26158   0.26228   0.27385   0.28807   0.30130
 Alpha virt. eigenvalues --    0.30728   0.31068   0.31991   0.32967   0.33560
 Alpha virt. eigenvalues --    0.34377   0.36596   0.36729   0.37242   0.40224
 Alpha virt. eigenvalues --    0.41228   0.44942   0.45373   0.46614   0.49573
 Alpha virt. eigenvalues --    0.50776   0.54368   0.56745   0.57652   0.58953
 Alpha virt. eigenvalues --    0.60933   0.63521   0.63855   0.66875   0.67758
 Alpha virt. eigenvalues --    0.69022   0.70382   0.72771   0.72951   0.73295
 Alpha virt. eigenvalues --    0.74997   0.76840   0.78180   0.80499   0.81559
 Alpha virt. eigenvalues --    0.89205   0.92036   0.94747   0.99543   1.01585
 Alpha virt. eigenvalues --    1.03571   1.05418   1.07362   1.10890   1.13994
 Alpha virt. eigenvalues --    1.15440   1.16949   1.18184   1.19156   1.22052
 Alpha virt. eigenvalues --    1.22678   1.25263   1.28171   1.30018   1.32600
 Alpha virt. eigenvalues --    1.34448   1.36020   1.37676   1.38937   1.43853
 Alpha virt. eigenvalues --    1.46555   1.49052   1.51180   1.56852   1.57437
 Alpha virt. eigenvalues --    1.59147   1.59968   1.61218   1.62240   1.64039
 Alpha virt. eigenvalues --    1.66519   1.68282   1.69583   1.72773   1.74441
 Alpha virt. eigenvalues --    1.75686   1.79745   1.82941   1.86079   1.89148
 Alpha virt. eigenvalues --    1.93267   1.96932   2.01628   2.03415   2.07137
 Alpha virt. eigenvalues --    2.11437   2.12997   2.20595   2.30653   2.31190
 Alpha virt. eigenvalues --    2.35103   2.42357   2.47143   2.50826   2.51190
 Alpha virt. eigenvalues --    2.53544   2.55304   2.61481   2.62533   2.64319
 Alpha virt. eigenvalues --    2.67631   2.69716   2.71674   2.74035   2.79621
 Alpha virt. eigenvalues --    2.81443   2.82733   2.91392   2.94068   2.94339
 Alpha virt. eigenvalues --    2.98351   2.99577   3.01064   3.02324   3.07486
 Alpha virt. eigenvalues --    3.12328   3.13787   3.15241   3.22496   3.25239
 Alpha virt. eigenvalues --    3.29770   3.33267   3.38264   3.43783   3.57745
 Alpha virt. eigenvalues --    3.63073   3.67565   3.73127   3.84550   3.85834
 Alpha virt. eigenvalues --    3.86686   3.90293   4.02565   4.08838   4.15776
 Alpha virt. eigenvalues --    4.27463   5.05517   5.13216   5.16920   5.31007
 Alpha virt. eigenvalues --    5.32536   5.45186   5.58037   5.72220   5.94358
 Alpha virt. eigenvalues --   23.47217  23.93014  23.93258  24.05510  24.99406
 Alpha virt. eigenvalues --   49.92210  49.99504  50.10496
  Beta  occ. eigenvalues --  -19.69225 -19.68695 -19.63604 -10.71081 -10.60910
  Beta  occ. eigenvalues --  -10.58421 -10.57356 -10.54050  -1.26073  -1.16787
  Beta  occ. eigenvalues --   -1.14527  -0.90368  -0.86495  -0.77878  -0.70194
  Beta  occ. eigenvalues --   -0.64651  -0.62893  -0.58821  -0.56816  -0.54195
  Beta  occ. eigenvalues --   -0.51985  -0.49671  -0.47033  -0.45668  -0.43571
  Beta  occ. eigenvalues --   -0.42335  -0.39469  -0.38895  -0.36679  -0.36059
  Beta virt. eigenvalues --   -0.16561  -0.01313  -0.00235   0.00243   0.01741
  Beta virt. eigenvalues --    0.02349   0.02866   0.03893   0.05384   0.05663
  Beta virt. eigenvalues --    0.06577   0.07052   0.07861   0.08321   0.08807
  Beta virt. eigenvalues --    0.10345   0.11886   0.12497   0.12649   0.13214
  Beta virt. eigenvalues --    0.13359   0.14555   0.14918   0.15737   0.16324
  Beta virt. eigenvalues --    0.16755   0.17483   0.18454   0.19521   0.19661
  Beta virt. eigenvalues --    0.20403   0.21038   0.22391   0.23120   0.23501
  Beta virt. eigenvalues --    0.25621   0.26196   0.26322   0.27659   0.28832
  Beta virt. eigenvalues --    0.30151   0.30796   0.31497   0.32281   0.33100
  Beta virt. eigenvalues --    0.33609   0.34403   0.36687   0.37237   0.37511
  Beta virt. eigenvalues --    0.40305   0.41340   0.45108   0.45797   0.46797
  Beta virt. eigenvalues --    0.49649   0.50800   0.54603   0.56945   0.57971
  Beta virt. eigenvalues --    0.59232   0.61222   0.63740   0.64233   0.66945
  Beta virt. eigenvalues --    0.67808   0.69061   0.70407   0.72859   0.72990
  Beta virt. eigenvalues --    0.73953   0.75466   0.77159   0.78206   0.80950
  Beta virt. eigenvalues --    0.82665   0.89186   0.92110   0.94890   1.00213
  Beta virt. eigenvalues --    1.02103   1.04146   1.05791   1.08589   1.11768
  Beta virt. eigenvalues --    1.14876   1.16096   1.17348   1.18651   1.19454
  Beta virt. eigenvalues --    1.22410   1.22696   1.25452   1.28332   1.30464
  Beta virt. eigenvalues --    1.32928   1.34546   1.36341   1.38049   1.39098
  Beta virt. eigenvalues --    1.44212   1.46911   1.49479   1.51190   1.57452
  Beta virt. eigenvalues --    1.57709   1.59294   1.60143   1.61489   1.62705
  Beta virt. eigenvalues --    1.64407   1.66625   1.68455   1.69604   1.72771
  Beta virt. eigenvalues --    1.74527   1.75792   1.79742   1.83215   1.86307
  Beta virt. eigenvalues --    1.89655   1.93391   1.97286   2.01744   2.03606
  Beta virt. eigenvalues --    2.07388   2.11901   2.13273   2.20595   2.30886
  Beta virt. eigenvalues --    2.31469   2.35135   2.42735   2.48113   2.50720
  Beta virt. eigenvalues --    2.51091   2.53496   2.55459   2.61347   2.62522
  Beta virt. eigenvalues --    2.64321   2.66635   2.69577   2.71217   2.74071
  Beta virt. eigenvalues --    2.79779   2.82450   2.82972   2.91389   2.93414
  Beta virt. eigenvalues --    2.94218   2.98242   3.00771   3.01227   3.04296
  Beta virt. eigenvalues --    3.07873   3.13420   3.14396   3.15812   3.24664
  Beta virt. eigenvalues --    3.25521   3.29948   3.33764   3.38527   3.43752
  Beta virt. eigenvalues --    3.59283   3.63627   3.68515   3.73962   3.84598
  Beta virt. eigenvalues --    3.85905   3.89000   3.90448   4.02640   4.09105
  Beta virt. eigenvalues --    4.15849   4.27458   5.07966   5.13191   5.16880
  Beta virt. eigenvalues --    5.31063   5.37364   5.45197   5.60466   5.72204
  Beta virt. eigenvalues --    5.94353  23.47662  23.93021  23.93272  24.05510
  Beta virt. eigenvalues --   25.00136  49.91457  49.99506  50.10501
          Condensed to atoms (all electrons):
               1          2          3          4          5          6
     1  O    7.796748   0.286762  -0.005449   0.214960  -0.044798   0.029201
     2  H    0.286762   0.454330   0.034614  -0.052701   0.004576   0.003404
     3  C   -0.005449   0.034614   5.870505   0.126509  -0.336494   1.078291
     4  H    0.214960  -0.052701   0.126509   0.313701  -0.076123   0.040699
     5  C   -0.044798   0.004576  -0.336494  -0.076123  11.635458  -5.816128
     6  C    0.029201   0.003404   1.078291   0.040699  -5.816128  11.183361
     7  O   -0.000062  -0.000148  -0.075136  -0.000028   0.258381   0.163781
     8  O    0.000365   0.000066  -0.053271  -0.001397  -0.343745   0.162116
     9  C    0.000105  -0.000156   0.020419   0.000956  -0.341367   0.119392
    10  C   -0.000045   0.000015  -0.010367   0.000035  -0.012794  -0.075336
    11  H    0.000023  -0.000002   0.001857   0.000018  -0.011984   0.017388
    12  H    0.000016   0.000003   0.000690   0.000008  -0.008415   0.000523
    13  H   -0.000004  -0.000001  -0.001612  -0.000010   0.008357  -0.008936
    14  H    0.000022   0.000004   0.001656  -0.000022   0.001855   0.006581
    15  H   -0.000003  -0.000011   0.001144  -0.000009  -0.034959   0.010255
               7          8          9         10         11         12
     1  O   -0.000062   0.000365   0.000105  -0.000045   0.000023   0.000016
     2  H   -0.000148   0.000066  -0.000156   0.000015  -0.000002   0.000003
     3  C   -0.075136  -0.053271   0.020419  -0.010367   0.001857   0.000690
     4  H   -0.000028  -0.001397   0.000956   0.000035   0.000018   0.000008
     5  C    0.258381  -0.343745  -0.341367  -0.012794  -0.011984  -0.008415
     6  C    0.163781   0.162116   0.119392  -0.075336   0.017388   0.000523
     7  O    8.030383  -0.140014   0.056974  -0.072359   0.002894  -0.020271
     8  O   -0.140014   8.315273   0.200004  -0.044883  -0.087731  -0.009033
     9  C    0.056974   0.200004   5.419154   0.041285   0.443140   0.398634
    10  C   -0.072359  -0.044883   0.041285   5.452178  -0.056437  -0.020356
    11  H    0.002894  -0.087731   0.443140  -0.056437   0.531197  -0.037161
    12  H   -0.020271  -0.009033   0.398634  -0.020356  -0.037161   0.513015
    13  H   -0.000901   0.018069  -0.042827   0.398786  -0.000819  -0.004367
    14  H    0.001280  -0.006322  -0.042026   0.419385  -0.010903   0.004827
    15  H    0.004977  -0.020075   0.007686   0.383988   0.011055  -0.011745
              13         14         15
     1  O   -0.000004   0.000022  -0.000003
     2  H   -0.000001   0.000004  -0.000011
     3  C   -0.001612   0.001656   0.001144
     4  H   -0.000010  -0.000022  -0.000009
     5  C    0.008357   0.001855  -0.034959
     6  C   -0.008936   0.006581   0.010255
     7  O   -0.000901   0.001280   0.004977
     8  O    0.018069  -0.006322  -0.020075
     9  C   -0.042827  -0.042026   0.007686
    10  C    0.398786   0.419385   0.383988
    11  H   -0.000819  -0.010903   0.011055
    12  H   -0.004367   0.004827  -0.011745
    13  H    0.533027  -0.032676  -0.031752
    14  H   -0.032676   0.537416  -0.048460
    15  H   -0.031752  -0.048460   0.543462
          Atomic-Atomic Spin Densities.
               1          2          3          4          5          6
     1  O    0.678095   0.007796  -0.104237  -0.004419  -0.039749   0.025863
     2  H    0.007796  -0.022786  -0.000059   0.001690   0.002153  -0.002410
     3  C   -0.104237  -0.000059   0.599822  -0.002146  -0.042781   0.038743
     4  H   -0.004419   0.001690  -0.002146  -0.032392   0.003281  -0.001669
     5  C   -0.039749   0.002153  -0.042781   0.003281   0.612154  -0.462433
     6  C    0.025863  -0.002410   0.038743  -0.001669  -0.462433   0.317144
     7  O    0.000171  -0.000020   0.001676  -0.000026  -0.015234   0.014820
     8  O    0.000078  -0.000014   0.001933  -0.000051   0.006174  -0.003503
     9  C    0.000113   0.000004   0.002622  -0.000221  -0.012805   0.011630
    10  C    0.000015   0.000007  -0.000224  -0.000018  -0.000460   0.001504
    11  H    0.000012  -0.000003   0.000690  -0.000008  -0.003655   0.002789
    12  H    0.000004  -0.000001  -0.000251  -0.000012   0.001474  -0.000997
    13  H   -0.000001   0.000001  -0.000153  -0.000004   0.001377  -0.000636
    14  H   -0.000001  -0.000002  -0.000067   0.000008   0.000323  -0.000575
    15  H    0.000012   0.000000   0.000104  -0.000028  -0.000576   0.000561
               7          8          9         10         11         12
     1  O    0.000171   0.000078   0.000113   0.000015   0.000012   0.000004
     2  H   -0.000020  -0.000014   0.000004   0.000007  -0.000003  -0.000001
     3  C    0.001676   0.001933   0.002622  -0.000224   0.000690  -0.000251
     4  H   -0.000026  -0.000051  -0.000221  -0.000018  -0.000008  -0.000012
     5  C   -0.015234   0.006174  -0.012805  -0.000460  -0.003655   0.001474
     6  C    0.014820  -0.003503   0.011630   0.001504   0.002789  -0.000997
     7  O   -0.001684   0.002096  -0.000466  -0.000263  -0.000004   0.000252
     8  O    0.002096  -0.006121  -0.000782   0.000998  -0.000070  -0.000397
     9  C   -0.000466  -0.000782  -0.002645   0.002022  -0.000124   0.000151
    10  C   -0.000263   0.000998   0.002022  -0.004502   0.000544  -0.000099
    11  H   -0.000004  -0.000070  -0.000124   0.000544  -0.000168   0.000014
    12  H    0.000252  -0.000397   0.000151  -0.000099   0.000014  -0.000132
    13  H    0.000026  -0.000011  -0.000379  -0.000130  -0.000082   0.000032
    14  H    0.000038  -0.000076  -0.000038   0.000431  -0.000006  -0.000013
    15  H   -0.000082  -0.000149  -0.000370   0.000419  -0.000053   0.000075
              13         14         15
     1  O   -0.000001  -0.000001   0.000012
     2  H    0.000001  -0.000002   0.000000
     3  C   -0.000153  -0.000067   0.000104
     4  H   -0.000004   0.000008  -0.000028
     5  C    0.001377   0.000323  -0.000576
     6  C   -0.000636  -0.000575   0.000561
     7  O    0.000026   0.000038  -0.000082
     8  O   -0.000011  -0.000076  -0.000149
     9  C   -0.000379  -0.000038  -0.000370
    10  C   -0.000130   0.000431   0.000419
    11  H   -0.000082  -0.000006  -0.000053
    12  H    0.000032  -0.000013   0.000075
    13  H   -0.000093   0.000074  -0.000037
    14  H    0.000074  -0.000116   0.000012
    15  H   -0.000037   0.000012  -0.000048
 Mulliken charges and spin densities:
               1          2
     1  O   -0.277839   0.563753
     2  H    0.269245  -0.013643
     3  C   -0.653356   0.495672
     4  H    0.433405  -0.036015
     5  C    1.118178   0.049244
     6  C   -0.914591  -0.059167
     7  O   -0.209749   0.001300
     8  O    0.010578   0.000106
     9  C   -0.281372  -0.001288
    10  C   -0.403095   0.000244
    11  H    0.197465  -0.000123
    12  H    0.193631   0.000100
    13  H    0.165666  -0.000015
    14  H    0.167386  -0.000007
    15  H    0.184448  -0.000160
 Sum of Mulliken charges =  -0.00000   1.00000
 Mulliken charges and spin densities with hydrogens summed into heavy atoms:
               1          2
     1  O    0.424811   0.514095
     3  C   -0.653356   0.495672
     5  C    1.118178   0.049244
     6  C   -0.914591  -0.059167
     7  O   -0.209749   0.001300
     8  O    0.010578   0.000106
     9  C    0.109725  -0.001311
    10  C    0.114405   0.000062
 APT charges:
               1
     1  O   -0.189941
     2  H    0.336130
     3  C   -0.072181
     4  H   -0.102254
     5  C   -0.268695
     6  C    1.636341
     7  O   -0.854332
     8  O   -1.024475
     9  C    0.566060
    10  C   -0.045213
    11  H   -0.017180
    12  H   -0.014059
    13  H    0.007256
    14  H    0.011169
    15  H    0.031372
 Sum of APT charges =   0.00000
 APT charges with hydrogens summed into heavy atoms:
               1
     1  O    0.043936
     3  C   -0.072181
     5  C   -0.268695
     6  C    1.636341
     7  O   -0.854332
     8  O   -1.024475
     9  C    0.534821
    10  C    0.004584
 Electronic spatial extent (au):  <R**2>=           1677.3940
 Charge=              0.0000 electrons
 Dipole moment (field-independent basis, Debye):
    X=             -0.8768    Y=             -0.2964    Z=             -0.8709  Tot=              1.2709
 Quadrupole moment (field-independent basis, Debye-Ang):
   XX=            -35.6278   YY=            -52.1553   ZZ=            -48.0980
   XY=              8.0357   XZ=             -2.8338   YZ=             -0.3860
 Traceless Quadrupole moment (field-independent basis, Debye-Ang):
   XX=              9.6659   YY=             -6.8616   ZZ=             -2.8043
   XY=              8.0357   XZ=             -2.8338   YZ=             -0.3860
 Octapole moment (field-independent basis, Debye-Ang**2):
  XXX=              0.2352  YYY=             -5.1227  ZZZ=             -1.7498  XYY=              7.5730
  XXY=             26.1696  XXZ=            -18.9805  XZZ=             -5.0385  YZZ=              1.4681
  YYZ=              0.1094  XYZ=             -0.5507
 Hexadecapole moment (field-independent basis, Debye-Ang**3):
 XXXX=          -1677.6717 YYYY=           -190.8339 ZZZZ=           -124.2516 XXXY=            158.3052
 XXXZ=            -58.0597 YYYX=             10.7043 YYYZ=              0.6524 ZZZX=              6.8669
 ZZZY=             -0.0721 XXYY=           -312.6835 XXZZ=           -340.1522 YYZZ=            -47.8375
 XXYZ=              1.9903 YYXZ=              3.4543 ZZXY=              1.4947
 N-N= 3.349865606646D+02 E-N=-1.654164388874D+03  KE= 4.187770168716D+02
  Exact polarizability: 137.506  -6.994  60.926   2.843   0.498  50.522
 Approx polarizability: 122.865 -12.697  79.597   3.899   1.473  57.675
                          Isotropic Fermi Contact Couplings
        Atom                 a.u.       MegaHertz       Gauss      10(-4) cm-1
     1  O(17)              0.06774     -41.06152     -14.65177     -13.69665
     2  H(1)              -0.00960     -42.90304     -15.30887     -14.31091
     3  C(13)              0.54892     617.09108     220.19344     205.83943
     4  H(1)              -0.03518    -157.23322     -56.10472     -52.44736
     5  C(13)              0.08690      97.68829      34.85761      32.58531
     6  C(13)              0.00819       9.21056       3.28656       3.07231
     7  O(17)             -0.00031       0.18889       0.06740       0.06301
     8  O(17)             -0.00519       3.14552       1.12240       1.04923
     9  C(13)             -0.00037      -0.41537      -0.14821      -0.13855
    10  C(13)             -0.00022      -0.24542      -0.08757      -0.08186
    11  H(1)              -0.00000      -0.01536      -0.00548      -0.00512
    12  H(1)              -0.00002      -0.10637      -0.03795      -0.03548
    13  H(1)              -0.00002      -0.10082      -0.03598      -0.03363
    14  H(1)              -0.00000      -0.00716      -0.00255      -0.00239
    15  H(1)               0.00000       0.02069       0.00738       0.00690
 --------------------------------------------------------
       Center         ----  Spin Dipole Couplings  ----
                      3XX-RR        3YY-RR        3ZZ-RR
 --------------------------------------------------------
     1   Atom        2.464914     -1.247674     -1.217239
     2   Atom       -0.026925      0.087971     -0.061046
     3   Atom        0.394388     -0.206003     -0.188385
     4   Atom        0.199863     -0.094048     -0.105815
     5   Atom        0.101837     -0.006527     -0.095310
     6   Atom        0.012070     -0.006988     -0.005082
     7   Atom        0.052758     -0.006487     -0.046271
     8   Atom        0.003909      0.004377     -0.008286
     9   Atom        0.000606     -0.000264     -0.000342
    10   Atom        0.000921     -0.000398     -0.000523
    11   Atom        0.000987     -0.000505     -0.000482
    12   Atom        0.001123     -0.000584     -0.000539
    13   Atom        0.000616     -0.000305     -0.000311
    14   Atom        0.000941     -0.000486     -0.000454
    15   Atom        0.001015     -0.000531     -0.000485
 --------------------------------------------------------
                        XY            XZ            YZ
 --------------------------------------------------------
     1   Atom       -0.192923      0.339682     -0.020214
     2   Atom        0.020355     -0.002311     -0.068109
     3   Atom       -0.056924      0.068967     -0.013972
     4   Atom        0.054228      0.084496      0.032811
     5   Atom       -0.120184     -0.026741      0.035199
     6   Atom       -0.006465      0.001765     -0.001593
     7   Atom       -0.009306      0.030895      0.006344
     8   Atom       -0.000031      0.002311      0.006464
     9   Atom        0.000067      0.000206     -0.000001
    10   Atom       -0.000032     -0.000011      0.000072
    11   Atom        0.000195      0.000249     -0.000000
    12   Atom       -0.000176      0.000341      0.000022
    13   Atom       -0.000017     -0.000090      0.000002
    14   Atom        0.000190     -0.000321     -0.000028
    15   Atom       -0.000250     -0.000369      0.000015
 --------------------------------------------------------


 ---------------------------------------------------------------------------------
              Anisotropic Spin Dipole Couplings in Principal Axis System
 ---------------------------------------------------------------------------------

       Atom             a.u.   MegaHertz   Gauss  10(-4) cm-1        Axes

              Baa    -1.2583    91.053    32.490    30.372  0.0273  0.9679  0.2500
     1 O(17)  Bbb    -1.2477    90.280    32.214    30.114 -0.1010 -0.2461  0.9640
              Bcc     2.5060  -181.333   -64.704   -60.486  0.9945 -0.0516  0.0910
 
              Baa    -0.0879   -46.923   -16.743   -15.652 -0.0879  0.3685  0.9255
     2 H(1)   Bbb    -0.0292   -15.575    -5.558    -5.195  0.9868 -0.0950  0.1315
              Bcc     0.1171    62.499    22.301    20.847  0.1364  0.9248 -0.3553
 
              Baa    -0.2144   -28.775   -10.267    -9.598  0.0432  0.9235  0.3811
     3 C(13)  Bbb    -0.1935   -25.968    -9.266    -8.662 -0.1436 -0.3718  0.9172
              Bcc     0.4079    54.743    19.534    18.260  0.9887 -0.0943  0.1166
 
              Baa    -0.1376   -73.413   -26.196   -24.488 -0.1401 -0.4786  0.8668
     4 H(1)   Bbb    -0.0954   -50.886   -18.158   -16.974 -0.2805  0.8587  0.4288
              Bcc     0.2330   124.299    44.353    41.462  0.9496  0.1830  0.2546
 
              Baa    -0.1100   -14.766    -5.269    -4.925 -0.1675 -0.4861  0.8577
     5 C(13)  Bbb    -0.0756   -10.147    -3.621    -3.385  0.5376  0.6842  0.4928
              Bcc     0.1857    24.913     8.890     8.310  0.8264 -0.5437 -0.1468
 
              Baa    -0.0092    -1.239    -0.442    -0.413  0.2628  0.9329  0.2464
     6 C(13)  Bbb    -0.0051    -0.680    -0.243    -0.227 -0.1764 -0.2046  0.9628
              Bcc     0.0143     1.918     0.685     0.640  0.9486 -0.2964  0.1108
 
              Baa    -0.0566     4.098     1.462     1.367 -0.2813 -0.1717  0.9441
     7 O(17)  Bbb    -0.0057     0.415     0.148     0.138  0.0534  0.9795  0.1940
              Bcc     0.0624    -4.513    -1.610    -1.505  0.9581 -0.1050  0.2664
 
              Baa    -0.0113     0.818     0.292     0.273 -0.1398 -0.3776  0.9154
     8 O(17)  Bbb     0.0040    -0.288    -0.103    -0.096  0.9544 -0.2975  0.0230
              Bcc     0.0073    -0.530    -0.189    -0.177  0.2636  0.8769  0.4020
 
              Baa    -0.0004    -0.052    -0.019    -0.017 -0.2097  0.1215  0.9702
     9 C(13)  Bbb    -0.0003    -0.036    -0.013    -0.012 -0.0449  0.9900 -0.1337
              Bcc     0.0007     0.088     0.031     0.029  0.9767  0.0716  0.2021
 
              Baa    -0.0006    -0.075    -0.027    -0.025 -0.0020 -0.4124  0.9110
    10 C(13)  Bbb    -0.0004    -0.049    -0.018    -0.016  0.0264  0.9107  0.4123
              Bcc     0.0009     0.124     0.044     0.041  0.9996 -0.0249 -0.0091
 
              Baa    -0.0006    -0.298    -0.106    -0.099 -0.1973  0.7369  0.6466
    11 H(1)   Bbb    -0.0005    -0.263    -0.094    -0.088 -0.0376 -0.6647  0.7461
              Bcc     0.0011     0.561     0.200     0.187  0.9796  0.1228  0.1589
 
              Baa    -0.0007    -0.352    -0.125    -0.117 -0.2017 -0.6844  0.7007
    12 H(1)   Bbb    -0.0005    -0.292    -0.104    -0.097 -0.0642  0.7231  0.6878
              Bcc     0.0012     0.644     0.230     0.215  0.9773 -0.0938  0.1898
 
              Baa    -0.0003    -0.171    -0.061    -0.057  0.0956 -0.0111  0.9954
    13 H(1)   Bbb    -0.0003    -0.163    -0.058    -0.054  0.0197  0.9998  0.0092
              Bcc     0.0006     0.334     0.119     0.111  0.9952 -0.0187 -0.0958
 
              Baa    -0.0005    -0.284    -0.101    -0.095  0.2457 -0.5077  0.8257
    14 H(1)   Bbb    -0.0005    -0.268    -0.096    -0.090  0.0040  0.8524  0.5229
              Bcc     0.0010     0.552     0.197     0.184  0.9693  0.1252 -0.2114
 
              Baa    -0.0006    -0.326    -0.116    -0.109  0.2599  0.6854  0.6803
    15 H(1)   Bbb    -0.0005    -0.281    -0.100    -0.094 -0.0519  0.7134 -0.6989
              Bcc     0.0011     0.607     0.217     0.203  0.9642 -0.1463 -0.2209
 

 ---------------------------------------------------------------------------------

 Calling FoFJK, ICntrl=    100127 FMM=F ISym2X=0 I1Cent= 0 IOpClX= 1 NMat=1 NMatS=1 NMatT=0.
 Full mass-weighted force constant matrix:
 Low frequencies ----1521.3422  -49.9893  -10.5399   -0.0011   -0.0007    0.0006
 Low frequencies ---   12.6959   20.7340   49.3000
 ******    2 imaginary frequencies (negative Signs) ****** 
 Diagonal vibrational polarizability:
       77.9260191      79.5876418     241.1501966
 Harmonic frequencies (cm**-1), IR intensities (KM/Mole), Raman scattering
 activities (A**4/AMU), depolarization ratios for plane and unpolarized
 incident light, reduced masses (AMU), force constants (mDyne/A),
 and normal coordinates:
                      1                      2                      3
                      A                      A                      A
 Frequencies --  -1521.3422               -44.1368                49.0706
 Red. masses --      1.0322                 3.1095                 6.8334
 Frc consts  --      1.4075                 0.0036                 0.0097
 IR Inten    --    613.5574                16.2996                 1.5904
  Atom  AN      X      Y      Z        X      Y      Z        X      Y      Z
     1   8    -0.03  -0.01  -0.01     0.06   0.09  -0.19    -0.14   0.35   0.11
     2   1    -0.03  -0.04  -0.02     0.01  -0.13  -0.79    -0.41   0.33   0.02
     3   6    -0.02   0.01   0.00    -0.02  -0.09   0.25     0.01  -0.30  -0.12
     4   1     1.00  -0.04   0.06    -0.03  -0.12   0.29     0.06  -0.07  -0.06
     5   6    -0.01   0.01   0.00    -0.01  -0.04   0.15     0.02  -0.25  -0.09
     6   6    -0.01  -0.00  -0.00     0.00  -0.02   0.06     0.05  -0.12  -0.02
     7   8     0.00  -0.00   0.00     0.02  -0.01   0.03     0.17  -0.09   0.10
     8   8     0.00   0.00  -0.00    -0.00  -0.00   0.01    -0.07  -0.02  -0.08
     9   6    -0.00  -0.00  -0.00     0.01   0.02  -0.07    -0.05   0.15   0.01
    10   6     0.00  -0.00   0.00    -0.07   0.03  -0.10     0.04   0.12   0.05
    11   1     0.00  -0.00  -0.00     0.02   0.03  -0.10    -0.17   0.23  -0.03
    12   1     0.00  -0.00  -0.00     0.06   0.03  -0.07     0.03   0.21   0.08
    13   1     0.00   0.00  -0.00    -0.06   0.05  -0.17     0.05   0.25   0.11
    14   1    -0.00  -0.00  -0.00    -0.12   0.02  -0.10    -0.04   0.05  -0.02
    15   1    -0.00   0.00   0.00    -0.08   0.02  -0.08     0.17   0.04   0.09
                      4                      5                      6
                      A                      A                      A
 Frequencies --     80.0695               116.4946               154.9176
 Red. masses --      3.1722                 3.3678                 3.5242
 Frc consts  --      0.0120                 0.0269                 0.0498
 IR Inten    --      3.8246                 1.4884                16.3608
  Atom  AN      X      Y      Z        X      Y      Z        X      Y      Z
     1   8     0.04   0.01  -0.06    -0.01   0.02  -0.02     0.21  -0.00  -0.03
     2   1     0.00   0.17   0.36    -0.08   0.09   0.17     0.20   0.19   0.47
     3   6     0.05   0.07  -0.15     0.03  -0.05  -0.09     0.06   0.22   0.11
     4   1     0.07   0.12  -0.27     0.04  -0.01  -0.13     0.11   0.28   0.03
     5   6     0.02  -0.01   0.01     0.03  -0.02   0.01    -0.04  -0.12   0.01
     6   6     0.01  -0.06   0.11     0.05   0.03   0.03    -0.04  -0.12  -0.04
     7   8    -0.02  -0.07   0.14     0.11   0.07  -0.14     0.04  -0.09  -0.05
     8   8     0.02  -0.07   0.12    -0.01   0.03   0.21    -0.12  -0.05  -0.06
     9   6     0.03  -0.06  -0.05     0.01   0.08   0.03    -0.11   0.11   0.01
    10   6    -0.14   0.19  -0.14    -0.20  -0.18  -0.04    -0.04   0.02   0.05
    11   1     0.07  -0.15   0.06     0.07   0.20  -0.20    -0.22   0.22  -0.08
    12   1     0.11  -0.16  -0.22     0.13   0.20   0.19    -0.03   0.20   0.12
    13   1    -0.13   0.16  -0.31    -0.17  -0.04  -0.19    -0.02   0.28   0.10
    14   1    -0.22   0.29   0.05    -0.38  -0.34  -0.22    -0.22  -0.12  -0.10
    15   1    -0.21   0.28  -0.25    -0.19  -0.34   0.22     0.17  -0.15   0.18
                      7                      8                      9
                      A                      A                      A
 Frequencies --    181.4791               224.9806               272.0630
 Red. masses --      1.5893                 1.2834                 4.3451
 Frc consts  --      0.0308                 0.0383                 0.1895
 IR Inten    --     76.3860                 2.7015                13.6047
  Atom  AN      X      Y      Z        X      Y      Z        X      Y      Z
     1   8    -0.02  -0.00  -0.10    -0.05  -0.01  -0.01    -0.11  -0.00   0.02
     2   1    -0.36   0.36   0.79    -0.05  -0.02  -0.03     0.20  -0.18  -0.41
     3   6    -0.04  -0.09   0.07    -0.01   0.00  -0.02     0.04   0.16  -0.21
     4   1     0.00   0.04  -0.16    -0.03  -0.03  -0.05    -0.04   0.04  -0.30
     5   6    -0.02  -0.01   0.12    -0.00   0.04   0.05    -0.05  -0.10   0.38
     6   6    -0.00   0.02   0.01    -0.01  -0.00   0.02    -0.01  -0.07   0.11
     7   8    -0.00   0.03  -0.05    -0.06  -0.02  -0.01     0.04  -0.03  -0.10
     8   8     0.02   0.02  -0.03     0.04  -0.03   0.01    -0.02  -0.02  -0.02
     9   6     0.02  -0.01  -0.02     0.05  -0.00  -0.01     0.00   0.08  -0.06
    10   6     0.05  -0.00  -0.00     0.06   0.02  -0.01     0.10  -0.01  -0.01
    11   1     0.03  -0.04   0.01     0.01   0.02  -0.02    -0.06   0.15  -0.12
    12   1    -0.02  -0.03  -0.04     0.08   0.01  -0.00     0.06   0.14   0.02
    13   1     0.04  -0.08   0.04     0.12   0.61  -0.02     0.06  -0.30   0.13
    14   1     0.14   0.03   0.02    -0.42  -0.19  -0.17     0.42   0.06  -0.02
    15   1     0.02   0.05  -0.05     0.49  -0.27   0.16    -0.05   0.10  -0.08
                     10                     11                     12
                      A                      A                      A
 Frequencies --    335.8758               368.9821               426.7797
 Red. masses --      2.8922                 7.8434                 3.7423
 Frc consts  --      0.1922                 0.6292                 0.4016
 IR Inten    --      9.5705                 2.6511                 2.0687
  Atom  AN      X      Y      Z        X      Y      Z        X      Y      Z
     1   8    -0.03  -0.01  -0.01     0.39   0.06   0.10     0.06   0.01   0.01
     2   1    -0.12   0.03   0.06     0.56   0.01  -0.02     0.13   0.01   0.02
     3   6    -0.01  -0.02   0.06    -0.06  -0.38  -0.28    -0.09   0.01  -0.00
     4   1    -0.02  -0.05   0.03     0.24   0.16   0.23    -0.00   0.12   0.14
     5   6     0.03   0.10  -0.09     0.01   0.06   0.18    -0.12  -0.11  -0.13
     6   6     0.00  -0.06  -0.01    -0.08   0.07   0.05    -0.08   0.03   0.07
     7   8    -0.16  -0.12  -0.02    -0.27   0.02  -0.06     0.04   0.08   0.03
     8   8     0.04  -0.10   0.09    -0.02   0.05  -0.04    -0.09   0.01   0.23
     9   6     0.10   0.21  -0.01    -0.05   0.04  -0.00    -0.03  -0.03  -0.16
    10   6     0.06   0.02  -0.02    -0.01   0.01   0.02     0.21  -0.03  -0.11
    11   1    -0.06   0.43  -0.24    -0.04   0.04  -0.00     0.04  -0.06  -0.16
    12   1     0.36   0.39   0.20    -0.07   0.05   0.02     0.04  -0.04  -0.21
    13   1     0.02  -0.31   0.01    -0.02   0.01   0.05     0.18   0.02   0.32
    14   1     0.34   0.05  -0.07    -0.00  -0.01  -0.01     0.44  -0.04  -0.21
    15   1    -0.18   0.11   0.02    -0.01  -0.00   0.04     0.46  -0.07  -0.23
                     13                     14                     15
                      A                      A                      A
 Frequencies --    565.9312               614.4888               651.4484
 Red. masses --      5.5918                 5.3665                 1.1537
 Frc consts  --      1.0552                 1.1939                 0.2885
 IR Inten    --     10.8710                15.9927               175.7352
  Atom  AN      X      Y      Z        X      Y      Z        X      Y      Z
     1   8    -0.02  -0.01  -0.00    -0.04  -0.01  -0.00     0.04  -0.01  -0.00
     2   1    -0.18   0.00  -0.00    -0.38  -0.02  -0.10    -0.64   0.02  -0.01
     3   6     0.11  -0.08   0.00     0.32   0.03   0.06     0.00   0.06  -0.08
     4   1     0.00  -0.18  -0.05     0.12  -0.36  -0.29    -0.06  -0.33   0.69
     5   6     0.23   0.42   0.06     0.21  -0.25  -0.03    -0.01  -0.01   0.02
     6   6     0.02  -0.11   0.02     0.06   0.08   0.04    -0.01  -0.00   0.00
     7   8     0.12  -0.07   0.00    -0.27  -0.02  -0.03     0.01   0.00   0.00
     8   8    -0.16  -0.04   0.05    -0.04   0.18   0.05     0.00  -0.01  -0.00
     9   6    -0.27  -0.02  -0.12    -0.10   0.01  -0.05     0.00  -0.00   0.00
    10   6    -0.01  -0.01  -0.01    -0.00  -0.01  -0.01     0.00  -0.00   0.00
    11   1    -0.20  -0.09  -0.07     0.09  -0.17   0.09    -0.00   0.01  -0.01
    12   1    -0.25  -0.06  -0.18    -0.26  -0.11  -0.20     0.01   0.01   0.01
    13   1    -0.04   0.04   0.46    -0.02   0.02   0.21     0.00  -0.00  -0.01
    14   1     0.24  -0.02  -0.11     0.10  -0.05  -0.11    -0.00   0.00   0.01
    15   1     0.27  -0.05  -0.16     0.13  -0.06  -0.02    -0.01   0.00   0.00
                     16                     17                     18
                      A                      A                      A
 Frequencies --    778.4554               798.0962               893.2628
 Red. masses --      9.1537                 1.2314                 3.1384
 Frc consts  --      3.2682                 0.4621                 1.4754
 IR Inten    --     21.4197                 2.9783                 9.5578
  Atom  AN      X      Y      Z        X      Y      Z        X      Y      Z
     1   8     0.00  -0.00   0.00    -0.00  -0.00  -0.00    -0.01  -0.00  -0.01
     2   1    -0.03   0.00   0.01     0.04   0.00   0.02     0.08   0.01   0.04
     3   6    -0.02   0.00   0.03    -0.03   0.00  -0.01    -0.04   0.00  -0.01
     4   1     0.01  -0.00   0.07    -0.02   0.04   0.06    -0.03   0.06   0.13
     5   6     0.01   0.05  -0.26    -0.02   0.02   0.02    -0.01   0.05   0.01
     6   6    -0.07  -0.13   0.73     0.02  -0.03  -0.05     0.04  -0.10  -0.02
     7   8     0.03   0.01  -0.21     0.01  -0.05   0.01     0.00  -0.16  -0.02
     8   8     0.01   0.04  -0.19    -0.01   0.03   0.02    -0.13   0.23   0.04
     9   6     0.04   0.04   0.01     0.03   0.08   0.01     0.08  -0.02   0.09
    10   6     0.01   0.01   0.02     0.01   0.03  -0.01     0.12  -0.07  -0.08
    11   1     0.02  -0.11   0.26     0.06  -0.23   0.47     0.24  -0.01  -0.03
    12   1    -0.12  -0.11  -0.18    -0.09  -0.24  -0.44    -0.26   0.06   0.30
    13   1     0.02  -0.07  -0.15    -0.00  -0.18  -0.05     0.17   0.11  -0.54
    14   1    -0.06  -0.09  -0.11     0.08  -0.21  -0.39    -0.21   0.11   0.29
    15   1    -0.16  -0.05   0.24    -0.15  -0.15   0.40    -0.01   0.13  -0.32
                     19                     20                     21
                      A                      A                      A
 Frequencies --    922.6409              1054.2648              1086.9627
 Red. masses --      2.4817                 1.6524                 2.5707
 Frc consts  --      1.2447                 1.0821                 1.7895
 IR Inten    --      4.6320                50.0588                33.0282
  Atom  AN      X      Y      Z        X      Y      Z        X      Y      Z
     1   8    -0.02   0.00  -0.02    -0.09   0.01  -0.05    -0.08   0.01  -0.04
     2   1     0.20   0.02   0.09     0.55   0.07   0.25     0.50   0.07   0.23
     3   6    -0.10   0.02  -0.02     0.03  -0.01  -0.02     0.09  -0.02  -0.01
     4   1    -0.04   0.15   0.29    -0.03   0.10   0.64    -0.02   0.01   0.54
     5   6    -0.06  -0.01  -0.01     0.04  -0.03   0.00     0.08  -0.00   0.01
     6   6     0.13  -0.04   0.02     0.06   0.03   0.02    -0.08  -0.00  -0.01
     7   8    -0.01  -0.12  -0.02    -0.02   0.02   0.00    -0.00   0.03   0.01
     8   8     0.14   0.11   0.01     0.06  -0.04   0.01    -0.15   0.01  -0.01
     9   6    -0.03   0.01  -0.10    -0.13   0.01   0.06     0.20  -0.05  -0.12
    10   6    -0.14  -0.00   0.09     0.05  -0.00  -0.07    -0.03   0.02   0.12
    11   1     0.31  -0.06  -0.22    -0.22   0.02   0.11     0.14   0.01  -0.19
    12   1    -0.02   0.00  -0.11    -0.15   0.04   0.11     0.28  -0.06  -0.17
    13   1    -0.17   0.12   0.65     0.06  -0.03  -0.19    -0.03  -0.01   0.11
    14   1     0.14   0.07   0.11    -0.01  -0.03  -0.10    -0.08   0.02   0.16
    15   1     0.22  -0.03  -0.14    -0.01   0.02  -0.06    -0.11  -0.01   0.23
                     22                     23                     24
                      A                      A                      A
 Frequencies --   1127.7945              1202.7360              1285.5865
 Red. masses --      2.0920                 1.7783                 4.2154
 Frc consts  --      1.5678                 1.5156                 4.1048
 IR Inten    --     32.3830                 5.2500               764.7972
  Atom  AN      X      Y      Z        X      Y      Z        X      Y      Z
     1   8    -0.01   0.00  -0.01    -0.01   0.00  -0.00     0.02  -0.00   0.01
     2   1     0.07   0.01   0.03     0.04   0.01   0.02    -0.10  -0.01  -0.04
     3   6     0.02  -0.01  -0.00     0.02  -0.00   0.00    -0.10   0.02  -0.00
     4   1     0.00  -0.02   0.06    -0.00  -0.03   0.03     0.02   0.08  -0.04
     5   6     0.02   0.00   0.00     0.01  -0.00   0.00    -0.03  -0.00  -0.01
     6   6    -0.03  -0.00   0.00    -0.06  -0.01  -0.01     0.41   0.16   0.06
     7   8     0.00   0.01  -0.00     0.00   0.04   0.01    -0.05  -0.00  -0.00
     8   8    -0.06   0.01  -0.05     0.00  -0.08  -0.01    -0.19  -0.10  -0.02
     9   6     0.10  -0.03   0.20     0.04   0.18   0.01     0.11  -0.01  -0.04
    10   6    -0.10   0.02  -0.16    -0.03  -0.14  -0.01    -0.02  -0.06  -0.01
    11   1     0.07   0.04   0.12     0.30  -0.14   0.36    -0.69   0.13   0.29
    12   1     0.21  -0.03   0.19    -0.27  -0.10  -0.34     0.00  -0.09  -0.16
    13   1    -0.14   0.01   0.48     0.02   0.29   0.05    -0.01   0.11   0.08
    14   1     0.43  -0.00  -0.37    -0.02   0.14   0.40    -0.01   0.10   0.24
    15   1     0.38  -0.15  -0.24     0.12   0.08  -0.45     0.02  -0.02  -0.09
                     25                     26                     27
                      A                      A                      A
 Frequencies --   1346.7882              1401.0013              1430.4675
 Red. masses --      1.2090                 1.2727                 1.3752
 Frc consts  --      1.2921                 1.4719                 1.6580
 IR Inten    --    102.5366                31.0264                 8.8338
  Atom  AN      X      Y      Z        X      Y      Z        X      Y      Z
     1   8    -0.00  -0.00  -0.00    -0.00   0.00  -0.00     0.00  -0.00   0.00
     2   1     0.00  -0.00   0.00     0.01   0.00   0.01    -0.02  -0.00  -0.01
     3   6     0.01  -0.00   0.00     0.01  -0.00   0.00    -0.01   0.00  -0.00
     4   1    -0.00   0.00   0.00    -0.00  -0.02  -0.00     0.00   0.05   0.00
     5   6     0.00   0.00   0.00     0.00   0.00   0.00     0.00  -0.00   0.00
     6   6    -0.05  -0.03  -0.01    -0.05  -0.01  -0.01     0.05   0.01   0.01
     7   8     0.01  -0.02  -0.00     0.01  -0.01  -0.00    -0.01   0.01   0.00
     8   8     0.04   0.08   0.00     0.04   0.02   0.02    -0.04  -0.02  -0.02
     9   6    -0.03  -0.00   0.01     0.04  -0.01  -0.04    -0.09   0.01   0.09
    10   6    -0.00  -0.06   0.01     0.03  -0.01  -0.12     0.08  -0.01  -0.07
    11   1    -0.54   0.08   0.24    -0.33   0.00   0.23     0.48  -0.01  -0.28
    12   1     0.70  -0.07  -0.28    -0.26   0.10   0.21     0.45  -0.13  -0.28
    13   1     0.01   0.06  -0.04    -0.03   0.01   0.53     0.04  -0.03   0.32
    14   1    -0.03   0.01   0.13    -0.22   0.22   0.34    -0.32   0.06   0.17
    15   1     0.03   0.04  -0.18    -0.25  -0.15   0.34    -0.29   0.02   0.17
                     28                     29                     30
                      A                      A                      A
 Frequencies --   1486.8866              1492.6930              1501.5410
 Red. masses --      1.0739                 1.0423                 1.0679
 Frc consts  --      1.3989                 1.3683                 1.4186
 IR Inten    --    275.4305                 8.0571                 7.8081
  Atom  AN      X      Y      Z        X      Y      Z        X      Y      Z
     1   8    -0.02  -0.03   0.00     0.00   0.00  -0.00     0.00   0.00  -0.00
     2   1    -0.33  -0.07  -0.15     0.04   0.01   0.02     0.01   0.00   0.01
     3   6     0.01  -0.02  -0.01    -0.00   0.00   0.00    -0.00   0.00   0.00
     4   1     0.01   0.90   0.15    -0.00  -0.10  -0.02     0.00  -0.04  -0.01
     5   6     0.05  -0.01   0.00    -0.01   0.00  -0.00    -0.00   0.00   0.00
     6   6    -0.02  -0.00  -0.00    -0.00   0.00   0.00     0.02  -0.00   0.00
     7   8    -0.00   0.01   0.00     0.00  -0.01  -0.00    -0.00   0.01   0.00
     8   8    -0.00  -0.00  -0.00     0.00   0.00   0.00    -0.02  -0.01  -0.01
     9   6     0.00  -0.00  -0.01    -0.01  -0.02   0.01    -0.01  -0.01  -0.06
    10   6    -0.01  -0.00  -0.00    -0.01  -0.04  -0.01     0.02  -0.02   0.02
    11   1     0.00  -0.02   0.03     0.00   0.06  -0.14     0.18  -0.35   0.38
    12   1    -0.00   0.02   0.04    -0.00  -0.06  -0.05     0.25   0.32   0.39
    13   1     0.01   0.08  -0.02     0.07   0.64  -0.13     0.02   0.22   0.17
    14   1     0.08   0.02   0.00     0.56   0.11   0.01    -0.06  -0.20  -0.25
    15   1    -0.03  -0.01   0.03    -0.36  -0.04   0.27    -0.31   0.25  -0.18
                     31                     32                     33
                      A                      A                      A
 Frequencies --   1513.9571              1837.4342              2285.3828
 Red. masses --      1.0781                12.1108                10.7293
 Frc consts  --      1.4559                24.0906                33.0170
 IR Inten    --     25.0765               357.0790                41.1322
  Atom  AN      X      Y      Z        X      Y      Z        X      Y      Z
     1   8    -0.00  -0.00  -0.00    -0.01  -0.00  -0.00     0.02   0.01   0.01
     2   1    -0.01  -0.00  -0.01     0.00  -0.01   0.00     0.07   0.01   0.02
     3   6     0.00  -0.00   0.00     0.06  -0.02   0.00    -0.60   0.16  -0.02
     4   1    -0.00   0.04   0.01    -0.00   0.06   0.02    -0.02  -0.30  -0.14
     5   6     0.00  -0.00   0.00    -0.02  -0.01  -0.00     0.67  -0.18   0.03
     6   6    -0.02   0.00  -0.00    -0.26   0.74   0.08    -0.11   0.03  -0.01
     7   8     0.00  -0.01  -0.00     0.18  -0.49  -0.05     0.00  -0.00   0.00
     8   8     0.01   0.01   0.01    -0.01  -0.07  -0.01    -0.01  -0.00  -0.00
     9   6     0.05  -0.01   0.04    -0.03   0.02   0.00     0.00   0.00  -0.00
    10   6     0.03  -0.01   0.02     0.01  -0.00   0.01    -0.00   0.00   0.00
    11   1    -0.23   0.27  -0.23     0.18  -0.11   0.06     0.00   0.00   0.00
    12   1    -0.29  -0.21  -0.19     0.14   0.09   0.03    -0.00  -0.00   0.00
    13   1     0.01   0.14   0.28     0.01  -0.04  -0.06     0.00  -0.00   0.00
    14   1    -0.20  -0.29  -0.33    -0.04  -0.01   0.00     0.00  -0.00  -0.00
    15   1    -0.33   0.34  -0.30     0.05   0.02  -0.05     0.00   0.00  -0.00
                     34                     35                     36
                      A                      A                      A
 Frequencies --   3075.9430              3108.2919              3151.4083
 Red. masses --      1.0354                 1.0608                 1.1014
 Frc consts  --      5.7716                 6.0382                 6.4449
 IR Inten    --     10.4600                18.5972                15.4498
  Atom  AN      X      Y      Z        X      Y      Z        X      Y      Z
     1   8     0.00   0.00  -0.00    -0.00  -0.00  -0.00     0.00   0.00  -0.00
     2   1     0.00  -0.00   0.00    -0.00   0.00  -0.00     0.00  -0.00   0.00
     3   6     0.00  -0.00   0.00    -0.00   0.00  -0.00     0.00  -0.00   0.00
     4   1    -0.00  -0.00  -0.00     0.00   0.00   0.00    -0.00  -0.00  -0.00
     5   6    -0.00   0.00  -0.00     0.00  -0.00   0.00    -0.00   0.00  -0.00
     6   6     0.00   0.00   0.00    -0.00  -0.00  -0.00     0.00   0.00  -0.00
     7   8     0.00  -0.00  -0.00    -0.00   0.00  -0.00    -0.00  -0.00  -0.00
     8   8    -0.00  -0.00  -0.00     0.00   0.00  -0.00     0.00  -0.00   0.00
     9   6     0.00   0.00  -0.00     0.03  -0.02   0.06    -0.01  -0.02  -0.01
    10   6    -0.03  -0.00   0.04    -0.01   0.00  -0.01    -0.06   0.05  -0.03
    11   1     0.00   0.01   0.01    -0.20  -0.44  -0.26     0.11   0.24   0.15
    12   1     0.00  -0.02   0.02    -0.11   0.68  -0.43    -0.01   0.03  -0.02
    13   1     0.61  -0.07   0.06     0.13  -0.01   0.02     0.65  -0.06   0.05
    14   1    -0.12   0.49  -0.31     0.01  -0.06   0.03     0.12  -0.57   0.37
    15   1    -0.19  -0.42  -0.24     0.01   0.02   0.01    -0.02   0.00  -0.01
                     37                     38                     39
                      A                      A                      A
 Frequencies --   3155.2602              3175.9826              3815.5119
 Red. masses --      1.1049                 1.1074                 1.0666
 Frc consts  --      6.4808                 6.5812                 9.1490
 IR Inten    --      2.0668                14.8829               136.7442
  Atom  AN      X      Y      Z        X      Y      Z        X      Y      Z
     1   8     0.00   0.00   0.00     0.00   0.00  -0.00    -0.00  -0.06   0.02
     2   1     0.00  -0.00   0.00     0.00  -0.00   0.00     0.06   0.93  -0.36
     3   6     0.00  -0.00   0.00    -0.00   0.00   0.00    -0.00   0.00  -0.00
     4   1    -0.00  -0.00  -0.00    -0.00  -0.00  -0.00     0.02  -0.00   0.01
     5   6    -0.00   0.00  -0.00    -0.00   0.00   0.00     0.00   0.00   0.00
     6   6    -0.00   0.00   0.00     0.00  -0.00  -0.00    -0.00   0.00  -0.00
     7   8     0.00  -0.00   0.00    -0.00   0.00   0.00     0.00  -0.00  -0.00
     8   8     0.00  -0.00  -0.00    -0.00   0.00   0.00     0.00   0.00   0.00
     9   6     0.01   0.05   0.00    -0.01  -0.07  -0.01    -0.00   0.00  -0.00
    10   6    -0.05  -0.05  -0.02    -0.02  -0.06  -0.00     0.00  -0.00   0.00
    11   1    -0.16  -0.35  -0.21     0.22   0.51   0.32     0.00   0.00   0.00
    12   1     0.05  -0.30   0.20    -0.06   0.35  -0.24     0.00  -0.00   0.00
    13   1     0.40  -0.05   0.03     0.08  -0.02   0.01     0.00  -0.00  -0.00
    14   1    -0.04   0.13  -0.09    -0.07   0.30  -0.20    -0.00   0.00  -0.00
    15   1     0.25   0.55   0.33     0.18   0.40   0.24    -0.00   0.00   0.00

 -------------------
 - Thermochemistry -
 -------------------
 Temperature   298.150 Kelvin.  Pressure   1.00000 Atm.
 Atom     1 has atomic number  8 and mass  15.99491
 Atom     2 has atomic number  1 and mass   1.00783
 Atom     3 has atomic number  6 and mass  12.00000
 Atom     4 has atomic number  1 and mass   1.00783
 Atom     5 has atomic number  6 and mass  12.00000
 Atom     6 has atomic number  6 and mass  12.00000
 Atom     7 has atomic number  8 and mass  15.99491
 Atom     8 has atomic number  8 and mass  15.99491
 Atom     9 has atomic number  6 and mass  12.00000
 Atom    10 has atomic number  6 and mass  12.00000
 Atom    11 has atomic number  1 and mass   1.00783
 Atom    12 has atomic number  1 and mass   1.00783
 Atom    13 has atomic number  1 and mass   1.00783
 Atom    14 has atomic number  1 and mass   1.00783
 Atom    15 has atomic number  1 and mass   1.00783
 Molecular mass:   115.03952 amu.
 Principal axes and moments of inertia in atomic units:
                           1         2         3
     Eigenvalues --   286.957352618.241372730.83167
           X            0.99993   0.00861  -0.00837
           Y           -0.00869   0.99992  -0.00961
           Z            0.00829   0.00968   0.99992
 This molecule is an asymmetric top.
 Rotational symmetry number  1.
 Rotational temperatures (Kelvin)      0.30184     0.03308     0.03172
 Rotational constants (GHZ):           6.28923     0.68930     0.66088
    2 imaginary frequencies ignored.
 Zero-point vibrational energy     280948.6 (Joules/Mol)
                                   67.14832 (Kcal/Mol)
 Warning -- explicit consideration of  12 degrees of freedom as
           vibrations may cause significant error
 Vibrational temperatures:     70.60   115.20   167.61   222.89   261.11
          (Kelvin)            323.70   391.44   483.25   530.88   614.04
                              814.25   884.11   937.29  1120.02  1148.28
                             1285.21  1327.47  1516.85  1563.90  1622.64
                             1730.47  1849.67  1937.73  2015.73  2058.12
                             2139.30  2147.65  2160.38  2178.25  2643.66
                             3288.16  4425.60  4472.14  4534.17  4539.72
                             4569.53  5489.67
 
 Zero-point correction=                           0.107008 (Hartree/Particle)
 Thermal correction to Energy=                    0.116246
 Thermal correction to Enthalpy=                  0.117190
 Thermal correction to Gibbs Free Energy=         0.071331
 Sum of electronic and zero-point Energies=           -420.068426
 Sum of electronic and thermal Energies=              -420.059187
 Sum of electronic and thermal Enthalpies=            -420.058243
 Sum of electronic and thermal Free Energies=         -420.104102
 
                     E (Thermal)             CV                S
                      KCal/Mol        Cal/Mol-Kelvin    Cal/Mol-Kelvin
 Total                   72.945             30.914             96.518
 Electronic               0.000              0.000              1.377
 Translational            0.889              2.981             40.136
 Rotational               0.889              2.981             29.108
 Vibrational             71.168             24.952             25.897
 Vibration     1          0.595              1.978              4.854
 Vibration     2          0.600              1.963              3.889
 Vibration     3          0.608              1.936              3.158
 Vibration     4          0.620              1.897              2.611
 Vibration     5          0.630              1.865              2.313
 Vibration     6          0.650              1.803              1.919
 Vibration     7          0.675              1.725              1.583
 Vibration     8          0.717              1.604              1.232
 Vibration     9          0.741              1.536              1.084
 Vibration    10          0.788              1.412              0.869
 Vibration    11          0.922              1.105              0.512
 Vibration    12          0.974              1.001              0.425
                       Q            Log10(Q)             Ln(Q)
 Total Bot       0.154864D-32        -32.810048        -75.547928
 Total V=0       0.257046D+17         16.410012         37.785448
 Vib (Bot)       0.311380D-46        -46.506709       -107.085656
 Vib (Bot)    1  0.421314D+01          0.624606          1.438208
 Vib (Bot)    2  0.257203D+01          0.410276          0.944696
 Vib (Bot)    3  0.175563D+01          0.244432          0.562825
 Vib (Bot)    4  0.130699D+01          0.116274          0.267731
 Vib (Bot)    5  0.110617D+01          0.043824          0.100908
 Vib (Bot)    6  0.877349D+00         -0.056828         -0.130850
 Vib (Bot)    7  0.709606D+00         -0.148983         -0.343046
 Vib (Bot)    8  0.554272D+00         -0.256277         -0.590099
 Vib (Bot)    9  0.493751D+00         -0.306492         -0.705725
 Vib (Bot)   10  0.409287D+00         -0.387972         -0.893339
 Vib (Bot)   11  0.273042D+00         -0.563770         -1.298129
 Vib (Bot)   12  0.239370D+00         -0.620930         -1.429744
 Vib (V=0)       0.516833D+03          2.713351          6.247721
 Vib (V=0)    1  0.474270D+01          0.676026          1.556607
 Vib (V=0)    2  0.312018D+01          0.494180          1.137891
 Vib (V=0)    3  0.232544D+01          0.366505          0.843908
 Vib (V=0)    4  0.189937D+01          0.278610          0.641522
 Vib (V=0)    5  0.171393D+01          0.233993          0.538788
 Vib (V=0)    6  0.150982D+01          0.178926          0.411992
 Vib (V=0)    7  0.136807D+01          0.136107          0.313399
 Vib (V=0)    8  0.124647D+01          0.095682          0.220316
 Vib (V=0)    9  0.120270D+01          0.080158          0.184570
 Vib (V=0)   10  0.114615D+01          0.059243          0.136413
 Vib (V=0)   11  0.106969D+01          0.029260          0.067373
 Vib (V=0)   12  0.105434D+01          0.022983          0.052919
 Electronic      0.200000D+01          0.301030          0.693147
 Translational   0.484981D+08          7.685724         17.697035
 Rotational      0.512751D+06          5.709907         13.147546
 ***** Axes restored to original set *****
 -------------------------------------------------------------------
 Center     Atomic                   Forces (Hartrees/Bohr)
 Number     Number              X              Y              Z
 -------------------------------------------------------------------
      1        8           0.003631147    0.001009455    0.000098858
      2        1           0.000415967    0.000435095    0.000453280
      3        6           0.003341758   -0.000849111   -0.000572467
      4        1          -0.011700990    0.000909446    0.000043128
      5        6           0.002685337   -0.001677360   -0.000451607
      6        6           0.001285522    0.000125910    0.000423831
      7        8          -0.000062884   -0.000031583   -0.000066790
      8        8           0.000172595    0.000014514    0.000050163
      9        6           0.000214155    0.000042796    0.000022986
     10        6           0.000000488    0.000012500   -0.000008435
     11        1           0.000006522    0.000002865    0.000002085
     12        1           0.000002996    0.000005297    0.000007525
     13        1          -0.000002245   -0.000000298    0.000000902
     14        1           0.000003506    0.000000652    0.000000740
     15        1           0.000006127   -0.000000179   -0.000004201
 -------------------------------------------------------------------
 Cartesian Forces:  Max     0.011700990 RMS     0.001982743

 GradGradGradGradGradGradGradGradGradGradGradGradGradGradGradGradGradGrad
 Berny optimization.
 Search for a local minimum.
 Step number   1 out of a maximum of    2
 All quantities printed in internal units (Hartrees-Bohrs-Radians)
 Second derivative matrix not updated -- analytic derivatives used.
 ITU=  0
     Eigenvalues ---   -0.10550  -0.00027   0.00062   0.00111   0.00184
     Eigenvalues ---    0.00318   0.00506   0.00580   0.01522   0.02127
     Eigenvalues ---    0.03159   0.03319   0.04043   0.05255   0.06265
     Eigenvalues ---    0.07007   0.07609   0.08598   0.09963   0.10302
     Eigenvalues ---    0.11416   0.13858   0.14833   0.17066   0.19657
     Eigenvalues ---    0.25734   0.29064   0.31486   0.49123   0.51264
     Eigenvalues ---    0.64718   0.76647   0.79070   0.86044   0.87689
     Eigenvalues ---    0.92834   0.94381   1.71931   2.35739
 Eigenvalue     1 is  -1.05D-01 should be greater than     0.000000 Eigenvector:
                          X4        X1        X3        X5        Y2
   1                    0.94564  -0.22248  -0.11300  -0.08516  -0.07982
                          Y5        Y1        Y3        X2        Y4
   1                    0.07581  -0.06098   0.05961  -0.04702  -0.04396
 Eigenvalue     2 is  -2.68D-04 should be greater than     0.000000 Eigenvector:
                          Z2        Z4        Z3        Z1        Z5
   1                    0.73754  -0.29906  -0.29444   0.21192  -0.19921
                          Z13       Y1        X14       Z6        Z11
   1                    0.17200  -0.14261   0.13679  -0.11335   0.10176
 Angle between quadratic step and forces=  45.43 degrees.
 Linear search not attempted -- first point.
 B after Tr=     0.008111   -0.001356    0.002093
         Rot=    1.000000   -0.000455   -0.000289   -0.000035 Ang=  -0.06 deg.
 Variable       Old X    -DE/DX   Delta X   Delta X   Delta X     New X
                                 (Linear)    (Quad)   (Total)
    X1        8.61507   0.00363   0.00000   0.05369   0.06215   8.67723
    Y1       -0.48470   0.00101   0.00000   0.02104   0.01979  -0.46492
    Z1        0.60484   0.00010   0.00000  -0.04339  -0.04673   0.55811
    X2        8.70381   0.00042   0.00000  -0.02487  -0.01691   8.68690
    Y2        1.22263   0.00044   0.00000   0.02322   0.02258   1.24521
    Z2       -0.05855   0.00045   0.00000  -0.05039  -0.05218  -0.11073
    X3        4.27841   0.00334   0.00000   0.01886   0.02695   4.30535
    Y3       -0.59039  -0.00085   0.00000  -0.01912  -0.02007  -0.61046
    Z3       -0.14587  -0.00057   0.00000   0.03898   0.03804  -0.10783
    X4        6.70669  -0.01170   0.00000  -0.11097  -0.10280   6.60389
    Y4       -1.17857   0.00091   0.00000  -0.00329  -0.00414  -1.18271
    Z4       -0.08797   0.00004   0.00000   0.04510   0.04231  -0.04566
    X5        2.08819   0.00269   0.00000   0.01522   0.02323   2.11141
    Y5        0.04701  -0.00168   0.00000  -0.02259  -0.02363   0.02338
    Z5       -0.20078  -0.00045   0.00000   0.02019   0.02109  -0.17969
    X6       -0.57279   0.00129   0.00000   0.00703   0.01489  -0.55790
    Y6        0.76176   0.00013   0.00000  -0.00529  -0.00637   0.75539
    Z6       -0.35731   0.00042   0.00000   0.01579   0.01889  -0.33841
    X7       -1.30312  -0.00006   0.00000   0.00327   0.01111  -1.29201
    Y7        2.89463  -0.00003   0.00000  -0.00522  -0.00658   2.88805
    Z7       -0.11799  -0.00007   0.00000   0.01081   0.01628  -0.10171
    X8       -2.02764   0.00017   0.00000  -0.00387   0.00387  -2.02377
    Y8       -1.24108   0.00001   0.00000   0.00064  -0.00014  -1.24122
    Z8       -0.80229   0.00005   0.00000   0.00841   0.01055  -0.79174
    X9       -4.70882   0.00021   0.00000  -0.00379   0.00382  -4.70500
    Y9       -0.76649   0.00004   0.00000   0.00583   0.00502  -0.76147
    Z9       -0.96305   0.00002   0.00000  -0.00639  -0.00226  -0.96531
   X10       -5.87023   0.00000   0.00000  -0.01930  -0.01021  -5.88044
   Y10       -0.53544   0.00001   0.00000   0.00430   0.00104  -0.53440
   Z10        1.64538  -0.00001   0.00000  -0.01288  -0.00787   1.63752
   X11       -5.44067   0.00001   0.00000   0.00034   0.00747  -5.43320
   Y11       -2.39629   0.00000   0.00000   0.00676   0.00683  -2.38945
   Z11       -1.98210   0.00000   0.00000  -0.01179  -0.00873  -1.99083
   X12       -5.01081   0.00000   0.00000   0.00476   0.01159  -4.99922
   Y12        0.93851   0.00001   0.00000   0.00631   0.00649   0.94500
   Z12       -2.08059   0.00001   0.00000  -0.00741  -0.00156  -2.08215
   X13       -7.91467  -0.00000   0.00000  -0.01757  -0.00860  -7.92327
   Y13       -0.31984  -0.00000   0.00000   0.00609   0.00286  -0.31698
   Z13        1.47294   0.00000   0.00000  -0.02320  -0.01681   1.45612
   X14       -5.48301   0.00000   0.00000  -0.02509  -0.01523  -5.49824
   Y14       -2.22772   0.00000   0.00000   0.00272  -0.00153  -2.22925
   Z14        2.75725   0.00000   0.00000  -0.01269  -0.00944   2.74781
   X15       -5.12429   0.00001   0.00000  -0.02089  -0.01134  -5.13563
   Y15        1.11180  -0.00000   0.00000   0.00196  -0.00215   1.10965
   Z15        2.63220  -0.00000   0.00000  -0.00766  -0.00158   2.63062
         Item               Value     Threshold  Converged?
 Maximum Force            0.011701     0.000450     NO 
 RMS     Force            0.001983     0.000300     NO 
 Maximum Displacement     0.102801     0.001800     NO 
 RMS     Displacement     0.025395     0.001200     NO 
 Predicted change in Energy=-2.392255D-03
 GradGradGradGradGradGradGradGradGradGradGradGradGradGradGradGradGradGrad


 ----------------------------------------------------------------------

 Electric dipole moment (input orientation):
 (Debye = 10**-18 statcoulomb cm , SI units = C m)
                  (au)            (Debye)         (10**-30 SI)
   Tot        0.499996D+00      0.127086D+01      0.423914D+01
   x         -0.344967D+00     -0.876820D+00     -0.292476D+01
   y         -0.116613D+00     -0.296400D+00     -0.988683D+00
   z         -0.342629D+00     -0.870877D+00     -0.290493D+01

 Dipole polarizability, Alpha (input orientation).
 (esu units = cm**3 , SI units = C**2 m**2 J**-1)
 Alpha(0;0):
               (au)            (10**-24 esu)      (10**-40 SI)
   iso        0.829846D+02      0.122970D+02      0.136823D+02
   aniso      0.833147D+02      0.123460D+02      0.137367D+02
   xx         0.137506D+03      0.203763D+02      0.226717D+02
   yx        -0.699450D+01     -0.103648D+01     -0.115324D+01
   yy         0.609258D+02      0.902827D+01      0.100453D+02
   zx         0.284331D+01      0.421335D+00      0.468798D+00
   zy         0.497585D+00      0.737345D-01      0.820407D-01
   zz         0.505217D+02      0.748654D+01      0.832990D+01

 ----------------------------------------------------------------------

 Dipole orientation:
     8          5.81064637          1.43271116         -6.24531848
     1          6.16899749         -0.36576491         -6.25014038
     6          3.22694444          0.94582770         -2.71419202
     1          4.98555248          1.76038667         -4.29206318
     6          1.63239475          0.10706514         -1.31410447
     6         -0.23721341         -0.87519722          0.46237482
     8         -1.13002368         -2.95314464          0.30482836
     8         -0.78288669          0.82030035          2.23818545
     6         -2.64114064          0.06753568          4.08751616
     6         -5.29622646          0.34140342          3.04746813
     1         -2.30757391          1.33717397          5.67088306
     1         -2.24959048         -1.87191237          4.66403232
     1         -6.66479749         -0.10266711          4.52589342
     1         -5.62391430          2.27535501          2.41306716
     1         -5.59911160         -0.95129203          1.47240025

 Electric dipole moment (dipole orientation):
 (Debye = 10**-18 statcoulomb cm , SI units = C m)
                  (au)            (Debye)         (10**-30 SI)
   Tot        0.499996D+00      0.127086D+01      0.423914D+01
   x          0.000000D+00      0.000000D+00      0.000000D+00
   y          0.000000D+00      0.000000D+00      0.000000D+00
   z          0.499996D+00      0.127086D+01      0.423914D+01

 Dipole polarizability, Alpha (dipole orientation).
 (esu units = cm**3 , SI units = C**2 m**2 J**-1)
 Alpha(0;0):
               (au)            (10**-24 esu)      (10**-40 SI)
   iso        0.829846D+02      0.122970D+02      0.136823D+02
   aniso      0.833147D+02      0.123460D+02      0.137367D+02
   xx         0.936107D+02      0.138717D+02      0.154343D+02
   yx         0.124512D+02      0.184507D+01      0.205292D+01
   yy         0.622526D+02      0.922489D+01      0.102641D+02
   zx        -0.420532D+02     -0.623164D+01     -0.693364D+01
   zy        -0.823703D+01     -0.122060D+01     -0.135810D+01
   zz         0.930905D+02      0.137946D+02      0.153485D+02

 ----------------------------------------------------------------------
 1\1\GINC-AJ\Freq\UM062X\6-311++G(d,p)\C5H7O3(2)\AAYUSH\23-Jun-2025\0\\
 # freq 6-311++g(d,p) m062x\\Title Card Required\\0,2\O,4.558901,-0.256
 494,0.320068\H,4.605858,0.646989,-0.030983\C,2.264035,-0.312422,-0.077
 19\H,3.549029,-0.623674,-0.04655\C,1.105021,0.024877,-0.106246\C,-0.30
 3106,0.403106,-0.189078\O,-0.689584,1.531772,-0.062439\O,-1.072983,-0.
 65675,-0.424552\C,-2.491801,-0.405611,-0.509623\C,-3.106394,-0.283343,
 0.8707\H,-2.879081,-1.26806,-1.048882\H,-2.651608,0.496638,-1.101002\H
 ,-4.188261,-0.169251,0.779444\H,-2.901482,-1.17886,1.459075\H,-2.71165
 9,0.588339,1.392902\\Version=ES64L-G16RevA.03\State=2-A\HF=-420.175433
 2\S2=0.762924\S2-1=0.\S2A=0.750121\RMSD=5.155e-09\RMSF=1.983e-03\ZeroP
 oint=0.1070077\Thermal=0.1162458\Dipole=-0.3449675,-0.1166127,-0.34262
 94\DipoleDeriv=0.041784,-0.0475954,0.082176,0.0157895,-0.2734255,-0.05
 1633,0.3598679,-0.0835444,-0.3381803,0.4484081,0.0477433,-0.0192419,0.
 2898911,0.2384412,0.0696856,-0.1022853,0.0667102,0.3215412,0.1781068,0
 .0947979,0.1006462,0.0677959,-0.228488,-0.0068153,0.1309394,0.0083125,
 -0.1661605,-0.7413951,0.0137391,-0.1447821,-0.2654353,0.2440064,-0.009
 2754,-0.3424272,0.0176907,0.1906273,-0.6976886,0.0090291,-0.0420368,-0
 .0835431,-0.0527613,-0.0070528,-0.13825,-0.0060746,-0.055634,2.7218216
 ,-0.0221525,0.1203096,0.4978616,1.7735544,0.1586229,0.3113939,0.193307
 5,0.4136466,-1.0617293,0.2846341,-0.0010106,0.1474676,-1.1467063,-0.05
 94011,-0.040972,-0.07099,-0.3545615,-1.8525322,-0.392695,-0.0397903,-0
 .6388584,-0.8651697,-0.0973252,-0.1940361,-0.1369076,-0.3557217,1.0873
 784,0.1007857,-0.0436291,-0.0371061,0.2557923,0.0018177,-0.0163017,0.0
 465219,0.3550108,-0.0888726,-0.0346862,0.0152559,0.0081829,0.0359111,-
 0.0183649,0.0454666,-0.0505144,-0.0826781,-0.0362554,-0.0239308,-0.000
 5408,-0.0617534,-0.0218843,-0.091018,-0.0190743,-0.0648932,0.0065995,-
 0.0287255,-0.0372201,0.0292118,0.062045,-0.0044639,0.0884957,0.0100759
 ,0.0428305,-0.0089891,-0.1327578,0.011951,-0.0011431,0.0174469,0.09548
 01,0.002903,-0.0032833,0.016081,0.0590459,0.0769401,0.0512931,-0.01841
 73,0.0208805,-0.0418027,0.0835807,0.0189506,0.0489737,-0.0016298,0.085
 5175,-0.0556933,-0.0370074,-0.0406647,-0.0084839,-0.06422,-0.0200644,-
 0.0275037,0.0170838\Polar=137.5063269,-6.9944976,60.9257623,2.8433093,
 0.4975848,50.5216852\Quadrupole=7.1863468,-5.1014334,-2.0849134,5.9743
 141,-2.106898,-0.2869968\PG=C01 [X(C5H7O3)]\NImag=2\\0.11251028,0.0409
 6773,0.47617015,0.03334629,-0.17185279,0.09042139,-0.03103005,-0.00906
 442,-0.00731949,0.03056333,-0.04027549,-0.45051184,0.16510642,0.031208
 11,0.45474306,0.00264123,0.18091914,-0.07455640,-0.00066059,-0.1718277
 6,0.07175757,-0.11124620,-0.03399213,-0.03909059,-0.00549164,-0.004697
 81,0.00101321,1.07298164,0.02077679,0.01295257,0.00637635,-0.00131614,
 0.00173492,0.00112845,-0.27367829,0.10666628,-0.00725231,0.00236533,0.
 00128401,0.00251395,-0.00077660,0.00021942,0.03748871,-0.00816173,0.03
 141187,0.04151443,-0.00097471,0.01338583,0.00236940,0.01319741,-0.0027
 9228,0.02479952,-0.01046969,-0.00382725,-0.08489009,-0.02713121,-0.036
 50812,-0.00086108,-0.01946398,-0.00607376,-0.00993142,0.04403956,-0.03
 191518,-0.00080856,0.00424240,0.07011924,-0.02952068,-0.01117620,-0.01
 685648,0.00562020,0.00728593,0.00279295,0.03095924,-0.00691828,-0.0160
 2037,-0.00660426,0.01126307,0.02610353,-0.01118227,0.00355241,0.000459
 94,0.00431078,0.00153495,-0.00024739,-0.98202805,0.26340009,-0.0281931
 3,0.01308692,-0.00363584,-0.00140970,1.30463474,0.00793463,-0.00293438
 ,0.00199545,-0.00226650,0.00047189,-0.00029338,0.26060308,-0.09252806,
 0.00670901,-0.00993928,0.00168638,-0.00137553,-0.31770119,0.18195226,0
 .00175321,0.00017591,-0.00044906,0.00009767,0.00046816,-0.00025222,-0.
 03311297,0.00800691,-0.02128996,-0.00247338,-0.00022333,0.00187759,0.0
 5330574,-0.00564713,0.05516176,-0.00192393,-0.00036424,-0.00304975,-0.
 00235259,-0.00343093,0.00077773,0.00702241,-0.00178584,-0.00171633,0.0
 0873389,0.00427458,0.00341538,-0.25053360,0.04925577,-0.00927877,0.661
 52692,-0.00208876,0.00080701,-0.00055838,0.00102083,0.00037572,0.00006
 061,0.00821065,0.00032763,0.00059173,0.00259335,0.00241991,0.00037765,
 0.02417767,-0.06020938,0.00363413,-0.14595302,0.94446581,-0.00126562,-
 0.00068464,0.00013782,-0.00054348,-0.00045061,0.00024667,0.00420317,-0
 .00137383,0.00423359,0.00336599,0.00083561,0.00283254,-0.01793651,0.00
 763492,-0.07058271,0.02300434,0.09246149,0.22470925,0.00138072,-0.0003
 1709,0.00137815,0.00058557,0.00144792,-0.00035195,-0.00483187,0.001097
 98,0.00025081,-0.00412708,-0.00190433,-0.00162088,-0.02207627,0.047228
 64,0.00222803,-0.18501276,0.21823075,0.02139506,0.18462485,-0.00047210
 ,-0.00004808,-0.00071425,-0.00048928,-0.00113691,0.00012292,-0.0013444
 4,0.00207445,-0.00010116,0.00266662,0.00102145,0.00107094,0.04370734,-
 0.03053051,-0.00324624,0.20393930,-0.67398684,-0.06641455,-0.23409846,
 0.80829241,0.00018041,0.00016017,-0.00011418,0.00008684,0.00002252,-0.
 00015483,-0.00130380,0.00061848,-0.00004681,-0.00055621,-0.00012177,-0
 .00023757,0.00301181,-0.00330988,0.02092620,0.01948858,-0.06334893,-0.
 08771506,-0.01915253,0.08990127,0.04581485,0.00016232,0.00014059,0.001
 21766,0.00132545,0.00138848,-0.00046831,-0.00184873,0.00237315,0.00078
 962,-0.00229985,-0.00076357,-0.00119517,-0.05724465,-0.03329106,-0.012
 29288,-0.18640295,-0.09607719,-0.02356190,0.02870605,-0.02444831,-0.00
 570638,0.48956322,0.00033526,0.00005045,0.00048798,0.00032006,0.000357
 54,-0.00016370,0.00124780,0.00014766,0.00007081,-0.00130333,-0.0008151
 5,-0.00053906,-0.01182204,0.00521561,-0.00164140,-0.06980077,-0.224092
 16,-0.02887445,-0.02645084,-0.10375100,-0.02344485,0.08730762,0.413388
 41,0.00010783,0.00005194,0.00017508,0.00019127,0.00018176,-0.00010153,
 -0.00008792,0.00028345,0.00038877,-0.00050426,-0.00021232,-0.00034229,
 -0.00792888,-0.00401663,0.00951960,-0.02166253,-0.03255977,-0.07359631
 ,-0.00467980,-0.02260703,0.02689234,0.04932179,0.05669282,0.09654347,-
 0.00020900,0.00001287,-0.00051450,-0.00050015,-0.00060983,0.00015335,0
 .00106760,-0.00063792,-0.00018046,0.00121721,0.00051857,0.00055051,0.0
 0362328,-0.00022318,0.00076115,-0.05126286,-0.03415761,-0.01221265,-0.
 00095055,0.01976463,0.00299993,-0.17590045,0.02099184,-0.01160513,0.44
 275046,-0.00004314,0.00001579,0.00004896,0.00005320,0.00004425,-0.0000
 2969,-0.00041598,0.00056608,0.00014441,-0.00001991,0.00007600,-0.00000
 095,-0.00394958,-0.00336073,-0.00194807,-0.03485023,0.01447370,-0.0022
 4183,-0.00022245,-0.00386000,-0.00002587,0.04270551,-0.10001273,0.0014
 8819,0.04276262,0.65128760,0.00002483,0.00003797,-0.00004023,0.0000027
 0,-0.00001413,0.00004854,-0.00011005,0.00010235,-0.00029584,-0.0000207
 7,0.00007183,-0.00014095,-0.00140320,-0.00190595,0.00552675,-0.0116488
 1,-0.00495829,-0.00180473,-0.00206915,0.00243575,-0.00553229,-0.008383
 67,0.00036954,-0.06654678,0.03501723,0.00079264,0.54948730,0.00000873,
 0.00000071,0.00010044,0.00009992,0.00011372,-0.00003738,-0.00011985,0.
 00010159,0.00009871,-0.00018601,-0.00009946,-0.00005247,-0.00077322,-0
 .00021509,-0.00170012,0.00175466,0.00760620,0.00387683,0.00053955,-0.0
 0299860,0.00074032,-0.03970365,0.00220171,0.03558259,-0.08599751,0.000
 34113,0.03375315,0.56914938,-0.00001534,-0.00000406,-0.00003186,-0.000
 01395,-0.00001737,0.00001761,0.00006871,-0.00006457,-0.00009454,0.0000
 6181,0.00003384,0.00002189,0.00016378,-0.00000479,0.00051444,-0.001573
 84,0.00063581,0.00095576,0.00090208,0.00061702,-0.00112681,0.00629285,
 0.00157809,-0.00455320,0.00010937,-0.08604096,-0.00854054,0.00398597,0
 .58878939,0.00000101,0.00000401,0.00001250,0.00002404,0.00002767,-0.00
 000914,-0.00011362,0.00002274,0.00005630,-0.00003023,-0.00003102,-0.00
 000642,0.00018098,-0.00004803,-0.00048550,0.00003070,0.00436604,0.0018
 0472,0.00166789,-0.00154817,-0.00132114,0.00057674,-0.00247704,0.00687
 838,0.04583972,-0.00947669,-0.20351682,0.03941063,-0.00576874,0.510725
 10,0.00001422,0.00001978,0.00007325,0.00007954,0.00008080,-0.00002762,
 -0.00029323,0.00023716,0.00003651,-0.00015440,-0.00005801,-0.00009023,
 -0.00135959,-0.00119682,0.00012215,-0.00382556,0.00628432,-0.00142977,
 0.00154895,-0.00142242,0.00009077,-0.03262673,-0.03160261,-0.01757457,
 -0.07418386,-0.06832850,-0.04314044,0.00694826,0.01223447,0.00690361,0
 .10035619,0.00001523,-0.00001220,0.00002920,0.00000911,0.00001727,-0.0
 0001271,0.00001091,-0.00001621,0.00005365,-0.00004074,-0.00002159,-0.0
 0002173,0.00024510,0.00028837,-0.00030272,0.00236540,-0.00194050,0.000
 11590,-0.00199877,0.00118005,-0.00034074,0.00560730,0.00800437,0.00515
 822,-0.08074862,-0.23371531,-0.10847209,0.00059450,0.00034697,0.000517
 48,0.08175607,0.24182918,-0.00000363,0.00000889,-0.00000196,0.00000694
 ,0.00000150,-0.00000057,0.00001603,0.00000389,0.00001654,-0.00000723,-
 0.00001070,-0.00000431,-0.00016918,-0.00004267,0.00004827,0.00059531,0
 .00241115,0.00036020,0.00108691,-0.00024453,0.00047393,-0.00302879,-0.
 00186646,0.00033314,-0.04817340,-0.10633653,-0.11765700,-0.00960190,-0
 .02536620,-0.01539532,0.04959938,0.11720918,0.12416236,-0.00000020,0.0
 0001938,0.00003492,0.00005697,0.00005638,-0.00001132,0.00001476,-0.000
 07249,-0.00001862,-0.00008126,-0.00004014,-0.00006691,-0.00045014,-0.0
 0023649,0.00076077,0.00237312,0.00906001,0.00030479,0.00065540,-0.0037
 4945,-0.00055364,-0.02627940,0.02975788,-0.02192860,-0.05259702,0.0201
 6449,-0.01494573,0.00388713,-0.01248740,0.00785962,0.00344001,-0.00862
 616,0.00711853,0.06931602,-0.00001445,0.00001745,-0.00005293,-0.000012
 86,-0.00002692,0.00001709,0.00004200,0.00001011,-0.00007040,0.00004725
 ,0.00001331,0.00003792,0.00032331,-0.00017217,0.00061361,-0.00269743,-
 0.00100750,-0.00107731,-0.00197516,-0.00007970,-0.00107751,0.00812812,
 -0.00180794,0.00079374,0.03067609,-0.24019434,0.12312302,-0.00157473,0
 .00490376,-0.00311687,0.00271802,-0.01797520,0.01335825,-0.03524724,0.
 25480306,-0.00002394,0.00000133,-0.00002296,-0.00001142,-0.00002279,0.
 00000803,0.00011477,-0.00007368,0.00004490,0.00008189,0.00003699,0.000
 01676,0.00000843,-0.00016686,-0.00014049,-0.00050655,0.00358351,0.0012
 6514,0.00157227,-0.00139537,-0.00020369,-0.00369342,-0.00039110,0.0002
 0590,-0.01961412,0.11918791,-0.12973662,-0.00299214,0.02564066,-0.0166
 8783,0.00333684,-0.01350818,0.01051888,0.01953052,-0.13172445,0.137570
 47,0.00001376,0.00000141,0.00004664,0.00004821,0.00005487,-0.00001566,
 -0.00002125,0.00001392,0.00005813,-0.00010730,-0.00005179,-0.00005290,
 -0.00019988,0.00004306,-0.00027073,0.00153245,0.00166215,0.00026101,-0
 .00007623,-0.00062848,0.00021182,-0.00136738,-0.00084458,0.00319914,-0
 .01244125,0.00095487,-0.00446155,-0.31408624,0.02817713,-0.02276015,0.
 00035276,0.00031428,0.00020148,0.00023563,-0.00036711,0.00026179,0.340
 44350,0.00000190,0.00000099,0.00000398,0.00000035,0.00000302,-0.000001
 01,-0.00002388,0.00000897,0.00004642,-0.00000880,-0.00000563,-0.000006
 60,0.00003926,0.00006304,-0.00017267,0.00011932,-0.00136860,-0.0005510
 2,-0.00053549,0.00036335,0.00066027,0.00129501,0.00147644,-0.00068457,
 0.00199708,-0.00240001,0.00086374,0.02779565,-0.04850484,0.00227651,-0
 .00012473,-0.00006081,0.00015101,0.00003750,0.00001227,-0.00006328,-0.
 03113388,0.04821956,-0.00000757,-0.00000019,-0.00001782,-0.00002426,-0
 .00003086,0.00000745,0.00008184,-0.00005075,-0.00002615,0.00005139,0.0
 0002589,0.00000940,0.00025201,0.00017950,0.00043953,-0.00069514,-0.003
 33870,-0.00138460,-0.00051489,0.00129633,0.00033621,0.00762171,0.00061
 955,-0.00599651,0.02798489,-0.00276251,0.00711111,-0.02493761,0.002733
 56,-0.05012952,-0.00078575,-0.00060951,0.00104722,-0.00069278,0.000849
 24,0.00082880,0.02422362,-0.00229607,0.05122602,-0.00000098,0.00000110
 ,-0.00002448,-0.00002234,-0.00002227,0.00001093,-0.00002759,0.00001631
 ,-0.00004122,0.00003496,0.00001526,0.00002894,0.00006214,0.00001075,0.
 00004815,-0.00047311,-0.00153662,-0.00024564,-0.00044056,0.00060845,0.
 00021844,0.00246184,-0.00005393,-0.00086003,0.00067903,-0.01232467,0.0
 0917155,-0.05686827,0.04323393,-0.02966860,0.00021017,0.00028149,-0.00
 085899,-0.00066283,0.00023481,0.00286323,-0.00423111,0.02685514,-0.017
 44976,0.05729250,0.00001093,-0.00000137,-0.00000126,0.00000189,0.00000
 612,0.00000500,-0.00006063,0.00003078,0.00000265,-0.00002656,-0.000010
 71,0.00000047,-0.00006634,0.00005611,-0.00011962,0.00024940,-0.0008761
 9,0.00023714,-0.00057313,0.00039785,0.00035582,-0.00103798,0.00033006,
 -0.00019789,-0.00072465,0.00392127,-0.00281589,0.04287257,-0.23554470,
 0.11987896,-0.00047094,0.00073729,0.00041010,0.00088327,0.00099718,-0.
 00111506,0.00000044,-0.00197237,-0.00001976,-0.04735307,0.25077029,-0.
 00000171,-0.00000659,-0.00000121,-0.00000591,-0.00000304,0.00000008,0.
 00002848,-0.00002871,0.00000620,0.00001283,0.00001250,0.00000403,0.000
 03438,0.00006131,-0.00007145,0.00016747,0.00037697,0.00005701,-0.00009
 192,-0.00023827,0.00020430,-0.00152328,-0.00100730,0.00288242,-0.00696
 295,0.02807084,-0.01962922,-0.02741951,0.11759442,-0.12374141,-0.00051
 378,-0.00019854,0.00107800,0.00307989,-0.00176170,-0.00484167,-0.00034
 269,0.00062139,-0.00171778,0.02891033,-0.13064619,0.13645318,-0.000011
 84,-0.00000339,-0.00004431,-0.00004242,-0.00004631,0.00001605,0.000022
 47,-0.00005660,-0.00000713,0.00008966,0.00005798,0.00003893,0.00012981
 ,-0.00000634,0.00005198,-0.00115608,0.00096728,0.00078438,-0.00052577,
 -0.00103481,0.00024364,0.00145492,-0.00028408,-0.00157089,0.00470506,0
 .01317263,0.00821391,-0.08465287,-0.08113958,-0.04992235,-0.00050672,0
 .00021491,0.00321854,0.00009182,-0.00028060,-0.00092817,-0.01009568,-0
 .02631442,-0.01510771,0.00198614,0.00629481,0.00462838,0.08851150,-0.0
 0000198,0.00000565,0.00002422,0.00001358,0.00001302,-0.00001117,-0.000
 00954,0.00000457,0.00002896,-0.00002583,-0.00001999,-0.00001952,0.0000
 3109,0.00000636,-0.00011198,0.00025253,-0.00002442,-0.00057259,-0.0008
 3166,-0.00055354,0.00107784,0.00037948,-0.00006966,0.00018128,0.000268
 74,-0.00080061,-0.00108994,-0.08072586,-0.22672357,-0.10462686,-0.0001
 2658,0.00133831,0.00031313,0.00048047,0.00050663,0.00001034,0.00180371
 ,0.00416461,0.00340427,-0.00996666,-0.01884161,-0.01284711,0.08845852,
 0.24099424,0.00002064,-0.00000430,0.00002948,0.00002154,0.00003182,-0.
 00000602,-0.00008648,0.00006436,0.00001753,-0.00008206,-0.00004570,-0.
 00002843,0.00003470,0.00022585,-0.00022830,0.00107835,-0.00309922,-0.0
 0056355,-0.00109801,0.00168236,0.00067773,0.00032627,0.00216467,0.0027
 6432,-0.01404359,-0.02691081,-0.01727321,-0.04682154,-0.10199647,-0.10
 818390,0.00339966,0.00038259,-0.00497938,-0.00047145,0.00008829,0.0011
 7438,-0.00055994,-0.00084810,-0.00173336,0.00789716,0.01402552,0.00931
 752,0.05038476,0.11423913,0.11901518\\-0.00363115,-0.00100946,-0.00009
 886,-0.00041597,-0.00043510,-0.00045328,-0.00334176,0.00084911,0.00057
 247,0.01170099,-0.00090945,-0.00004313,-0.00268534,0.00167736,0.000451
 61,-0.00128552,-0.00012591,-0.00042383,0.00006288,0.00003158,0.0000667
 9,-0.00017259,-0.00001451,-0.00005016,-0.00021415,-0.00004280,-0.00002
 299,-0.00000049,-0.00001250,0.00000843,-0.00000652,-0.00000286,-0.0000
 0209,-0.00000300,-0.00000530,-0.00000753,0.00000224,0.00000030,-0.0000
 0090,-0.00000351,-0.00000065,-0.00000074,-0.00000613,0.00000018,0.0000
 0420\\\@


 OLD HORSE! OLD HORSE! WHAT BROUGHT YOU HERE?
 FROM SACARAP' TO PORTLAND PIER
 I'VE CARTED STONE THIS MANY A YEAR;
 TILL, KILLED BY BLOWS AND SORE ABUSE,
 THEY SALTED ME DOWN FOR SAILORS' USE.
 THE SAILORS THEY DO ME DESPISE;
 THEY TURN ME OVER AND DAMN MY EYES;
 CUT OFF MY MEAT, AND SCRAPE MY BONES,
 AND PITCH ME OVER TO DAVY JONES.

    SAILORS' COMPLAINT ABOUT THE BEEF
    SERVED ON SHIPBOARD, CIRCA 1835.
 Job cpu time:       0 days  0 hours 52 minutes 13.1 seconds.
 Elapsed time:       0 days  0 hours  2 minutes 10.6 seconds.
 File lengths (MBytes):  RWF=    153 Int=      0 D2E=      0 Chk=      8 Scr=      1
 Normal termination of Gaussian 16 at Mon Jun 23 00:18:33 2025.
