 Entering Gaussian System, Link 0=g16
 Initial command:
 /opt/g16/l1.exe "/home/aayush/scratches/g16/Gau-12965.inp" -scrdir="/home/aayush/scratches/g16/"
 Entering Link 1 = /opt/g16/l1.exe PID=     12968.
  
 Copyright (c) 1988,1990,1992,1993,1995,1998,2003,2009,2016,
            Gaussian, Inc.  All Rights Reserved.
  
 This is part of the Gaussian(R) 16 program.  It is based on
 the Gaussian(R) 09 system (copyright 2009, Gaussian, Inc.),
 the Gaussian(R) 03 system (copyright 2003, Gaussian, Inc.),
 the Gaussian(R) 98 system (copyright 1998, Gaussian, Inc.),
 the Gaussian(R) 94 system (copyright 1995, Gaussian, Inc.),
 the Gaussian 92(TM) system (copyright 1992, Gaussian, Inc.),
 the Gaussian 90(TM) system (copyright 1990, Gaussian, Inc.),
 the Gaussian 88(TM) system (copyright 1988, Gaussian, Inc.),
 the Gaussian 86(TM) system (copyright 1986, Carnegie Mellon
 University), and the Gaussian 82(TM) system (copyright 1983,
 Carnegie Mellon University). Gaussian is a federally registered
 trademark of Gaussian, Inc.
  
 This software contains proprietary and confidential information,
 including trade secrets, belonging to Gaussian, Inc.
  
 This software is provided under written license and may be
 used, copied, transmitted, or stored only in accord with that
 written license.
  
 The following legend is applicable only to US Government
 contracts under FAR:
  
                    RESTRICTED RIGHTS LEGEND
  
 Use, reproduction and disclosure by the US Government is
 subject to restrictions as set forth in subparagraphs (a)
 and (c) of the Commercial Computer Software - Restricted
 Rights clause in FAR 52.227-19.
  
 Gaussian, Inc.
 340 Quinnipiac St., Bldg. 40, Wallingford CT 06492
  
  
 ---------------------------------------------------------------
 Warning -- This program may not be used in any manner that
 competes with the business of Gaussian, Inc. or will provide
 assistance to any competitor of Gaussian, Inc.  The licensee
 of this program is prohibited from giving any competitor of
 Gaussian, Inc. access to this program.  By using this program,
 the user acknowledges that Gaussian, Inc. is engaged in the
 business of creating and licensing software in the field of
 computational chemistry and represents and warrants to the
 licensee that it is not a competitor of Gaussian, Inc. and that
 it will not use this program in any manner prohibited above.
 ---------------------------------------------------------------
  

 Cite this work as:
 Gaussian 16, Revision A.03,
 M. J. Frisch, G. W. Trucks, H. B. Schlegel, G. E. Scuseria, 
 M. A. Robb, J. R. Cheeseman, G. Scalmani, V. Barone, 
 G. A. Petersson, H. Nakatsuji, X. Li, M. Caricato, A. V. Marenich, 
 J. Bloino, B. G. Janesko, R. Gomperts, B. Mennucci, H. P. Hratchian, 
 J. V. Ortiz, A. F. Izmaylov, J. L. Sonnenberg, D. Williams-Young, 
 F. Ding, F. Lipparini, F. Egidi, J. Goings, B. Peng, A. Petrone, 
 T. Henderson, D. Ranasinghe, V. G. Zakrzewski, J. Gao, N. Rega, 
 G. Zheng, W. Liang, M. Hada, M. Ehara, K. Toyota, R. Fukuda, 
 J. Hasegawa, M. Ishida, T. Nakajima, Y. Honda, O. Kitao, H. Nakai, 
 T. Vreven, K. Throssell, J. A. Montgomery, Jr., J. E. Peralta, 
 F. Ogliaro, M. J. Bearpark, J. J. Heyd, E. N. Brothers, K. N. Kudin, 
 V. N. Staroverov, T. A. Keith, R. Kobayashi, J. Normand, 
 K. Raghavachari, A. P. Rendell, J. C. Burant, S. S. Iyengar, 
 J. Tomasi, M. Cossi, J. M. Millam, M. Klene, C. Adamo, R. Cammi, 
 J. W. Ochterski, R. L. Martin, K. Morokuma, O. Farkas, 
 J. B. Foresman, and D. J. Fox, Gaussian, Inc., Wallingford CT, 2016.
 
 ******************************************
 Gaussian 16:  ES64L-G16RevA.03 25-Dec-2016
                20-Jun-2025 
 ******************************************
 %nprocshared=24
 Will use up to   24 processors via shared memory.
 %mem=12GB
 %chk=ethyl_propiolate_ts1.chk
 -------------------
 # freq 6-31+g m062x
 -------------------
 1/10=4,30=1,38=1/1,3;
 2/12=2,17=6,18=5,40=1/2;
 3/5=1,6=6,7=10,11=2,25=1,30=1,71=2,74=-55,140=1/1,2,3;
 4//1;
 5/5=2,38=5,98=1/2;
 8/6=4,10=90,11=11/1;
 11/6=1,8=1,9=11,15=111,16=1/1,2,10;
 10/6=1/2;
 6/7=2,8=2,9=2,10=2,28=1/1;
 7/8=1,10=1,25=1/1,2,3,16;
 1/10=4,30=1/3;
 99//99;
 -------------------
 Title Card Required
 -------------------
 Symbolic Z-matrix:
 Charge =  0 Multiplicity = 2
 O                     4.50098  -0.26606   0.33794 
 H                     4.52967   0.61963  -0.04418 
 C                     2.19195  -0.32251  -0.06255 
 H                     3.74262  -0.72547  -0.11842 
 C                     1.03535   0.01663  -0.0926 
 C                    -0.36859   0.39009  -0.17836 
 O                    -0.75267   1.51902  -0.05061 
 O                    -1.13546  -0.67042  -0.41268 
 C                    -2.55413  -0.41991  -0.4978 
 C                    -3.16825  -0.29737   0.8826 
 H                    -2.94114  -1.28256  -1.03682 
 H                    -2.71399   0.48216  -1.08945 
 H                    -4.25013  -0.18367   0.79138 
 H                    -2.96302  -1.19266   1.47118 
 H                    -2.77386   0.57461   1.40456 
 

 GradGradGradGradGradGradGradGradGradGradGradGradGradGradGradGradGradGrad
 Berny optimization.
 Initialization pass.
 Trust Radius=3.00D-01 FncErr=1.00D-07 GrdErr=1.00D-07 EigMax=2.50D+02 EigMin=1.00D-04
 Number of steps in this run=      2 maximum allowed number of steps=      2.
 GradGradGradGradGradGradGradGradGradGradGradGradGradGradGradGradGradGrad

                          Input orientation:                          
 ---------------------------------------------------------------------
 Center     Atomic      Atomic             Coordinates (Angstroms)
 Number     Number       Type             X           Y           Z
 ---------------------------------------------------------------------
      1          8           0        4.500982   -0.266055    0.337940
      2          1           0        4.529668    0.619627   -0.044177
      3          6           0        2.191948   -0.322509   -0.062548
      4          1           0        3.742617   -0.725470   -0.118421
      5          6           0        1.035350    0.016632   -0.092601
      6          6           0       -0.368590    0.390085   -0.178359
      7          8           0       -0.752666    1.519019   -0.050611
      8          8           0       -1.135456   -0.670421   -0.412680
      9          6           0       -2.554130   -0.419910   -0.497796
     10          6           0       -3.168245   -0.297367    0.882597
     11          1           0       -2.941138   -1.282560   -1.036821
     12          1           0       -2.713994    0.482155   -1.089451
     13          1           0       -4.250127   -0.183672    0.791380
     14          1           0       -2.963020   -1.192660    1.471183
     15          1           0       -2.773857    0.574613    1.404560
 ---------------------------------------------------------------------
                    Distance matrix (angstroms):
                    1          2          3          4          5
     1  O    0.000000
     2  H    0.965023   0.000000
     3  C    2.344188   2.520495   0.000000
     4  H    0.997219   1.560207   1.603145   0.000000
     5  C    3.503696   3.546295   1.205669   2.807254   0.000000
     6  C    4.940629   4.905469   2.660368   4.260291   1.455290
     7  O    5.562219   5.358358   3.473056   5.024928   2.335793
     8  O    5.700559   5.821825   3.363815   4.887250   2.299324
     9  C    7.106105   7.174023   4.766989   6.315561   3.638560
    10  C    7.688607   7.807538   5.442940   6.996093   4.326640
    11  H    7.635994   7.772812   5.312201   6.769519   4.288579
    12  H    7.392776   7.319982   5.076444   6.639961   3.907429
    13  H    8.763236   8.855972   6.499908   8.062583   5.362631
    14  H    7.606192   7.856276   5.448228   6.907291   4.460355
    15  H    7.400519   7.445961   5.255136   6.817193   4.130725
                    6          7          8          9         10
     6  C    0.000000
     7  O    1.199302   0.000000
     8  O    1.329535   2.251948   0.000000
     9  C    2.352598   2.684156   1.443134   0.000000
    10  C    3.071854   3.163093   2.439086   1.515796   0.000000
    11  H    3.186330   3.689291   2.006179   1.088342   2.169412
    12  H    2.517833   2.449711   2.068389   1.090566   2.168634
    13  H    4.041772   3.979992   3.374590   2.143406   1.091657
    14  H    3.457909   3.815066   2.676128   2.154347   1.090917
    15  H    2.885306   2.663576   2.745329   2.157849   1.090108
                   11         12         13         14         15
    11  H    0.000000
    12  H    1.780052   0.000000
    13  H    2.502664   2.518046   0.000000
    14  H    2.509710   3.069832   1.771111   0.000000
    15  H    3.072038   2.496442   1.769282   1.778616   0.000000
 Stoichiometry    C5H7O3(2)
 Framework group  C1[X(C5H7O3)]
 Deg. of freedom    39
 Full point group                 C1      NOp   1
 Largest Abelian subgroup         C1      NOp   1
 Largest concise Abelian subgroup C1      NOp   1
                         Standard orientation:                         
 ---------------------------------------------------------------------
 Center     Atomic      Atomic             Coordinates (Angstroms)
 Number     Number       Type             X           Y           Z
 ---------------------------------------------------------------------
      1          8           0        4.560898   -0.247420    0.329030
      2          1           0        4.588946    0.637436   -0.055041
      3          6           0        2.252067   -0.306808   -0.072208
      4          1           0        3.803114   -0.708519   -0.126597
      5          6           0        1.095181    0.031241   -0.103453
      6          6           0       -0.309056    0.403259   -0.190573
      7          8           0       -0.694179    1.532133   -0.065478
      8          8           0       -1.074894   -0.658443   -0.422829
      9          6           0       -2.493756   -0.409379   -0.509040
     10          6           0       -3.108506   -0.284315    0.870844
     11          1           0       -2.879795   -1.273566   -1.046295
     12          1           0       -2.654192    0.491229   -1.102757
     13          1           0       -4.190453   -0.171781    0.778964
     14          1           0       -2.902713   -1.178117    1.461495
     15          1           0       -2.715089    0.589171    1.391019
 ---------------------------------------------------------------------
 Rotational constants (GHZ):           6.2754072           0.6876469           0.6593364
 Standard basis: 6-31+G (6D, 7F)
 There are   118 symmetry adapted cartesian basis functions of A   symmetry.
 There are   118 symmetry adapted basis functions of A   symmetry.
   118 basis functions,   236 primitive gaussians,   118 cartesian basis functions
    31 alpha electrons       30 beta electrons
       nuclear repulsion energy       334.9787884885 Hartrees.
 NAtoms=   15 NActive=   15 NUniq=   15 SFac= 1.00D+00 NAtFMM=   60 NAOKFM=F Big=F
 Integral buffers will be    131072 words long.
 Raffenetti 2 integral format.
 Two-electron integral symmetry is turned on.
 One-electron integrals computed using PRISM.
 NBasis=   118 RedAO= T EigKep=  1.02D-06  NBF=   118
 NBsUse=   118 1.00D-06 EigRej= -1.00D+00 NBFU=   118
 ExpMin= 4.38D-02 ExpMax= 5.48D+03 ExpMxC= 8.25D+02 IAcc=3 IRadAn=         5 AccDes= 0.00D+00
 Harris functional with IExCor= 1009 and IRadAn=       5 diagonalized for initial guess.
 HarFok:  IExCor= 1009 AccDes= 0.00D+00 IRadAn=         5 IDoV= 1 UseB2=F ITyADJ=14
 ICtDFT=  3500011 ScaDFX=  1.000000  1.000000  1.000000  1.000000
 FoFCou: FMM=F IPFlag=           0 FMFlag=      100000 FMFlg1=           0
         NFxFlg=           0 DoJE=T BraDBF=F KetDBF=T FulRan=T
         wScrn=  0.000000 ICntrl=       500 IOpCl=  0 I1Cent=   200000004 NGrid=           0
         NMat0=    1 NMatS0=      1 NMatT0=    0 NMatD0=    1 NMtDS0=    0 NMtDT0=    0
 Petite list used in FoFCou.
 Initial guess <Sx>= 0.0000 <Sy>= 0.0000 <Sz>= 0.5000 <S**2>= 0.7500 S= 0.5000
 Requested convergence on RMS density matrix=1.00D-08 within 128 cycles.
 Requested convergence on MAX density matrix=1.00D-06.
 Requested convergence on             energy=1.00D-06.
 No special actions if energy rises.
 Restarting incremental Fock formation.
 SCF Done:  E(UM062X) =  -419.916524730     A.U. after   23 cycles
            NFock= 23  Conv=0.90D-08     -V/T= 2.0048
 <Sx>= 0.0000 <Sy>= 0.0000 <Sz>= 0.5000 <S**2>= 0.7707 S= 0.5103
 <L.S>=  0.00000000000    
 Annihilation of the first spin contaminant:
 S**2 before annihilation     0.7707,   after     0.7503
 DoSCS=F DFT=T ScalE2(SS,OS)=  1.000000  1.000000
 Range of M.O.s used for correlation:     1   118
 NBasis=   118 NAE=    31 NBE=    30 NFC=     0 NFV=     0
 NROrb=    118 NOA=    31 NOB=    30 NVA=    87 NVB=    88

 **** Warning!!: The largest alpha MO coefficient is  0.21865056D+03


 **** Warning!!: The largest beta MO coefficient is  0.21944456D+03

 Symmetrizing basis deriv contribution to polar:
 IMax=3 JMax=2 DiffMx= 0.00D+00
 G2DrvN: will do    16 centers at a time, making    1 passes.
 Calling FoFCou, ICntrl=  3107 FMM=F I1Cent=   0 AccDes= 0.00D+00.
 End of G2Drv F.D. properties file   721 does not exist.
 End of G2Drv F.D. properties file   722 does not exist.
 End of G2Drv F.D. properties file   788 does not exist.
          IDoAtm=111111111111111
          Differentiating once with respect to electric field.
                with respect to dipole field.
          Differentiating once with respect to nuclear coordinates.
 Keep R1 and R2 ints in memory in canonical form, NReq=71861356.
          There are    48 degrees of freedom in the 1st order CPHF.  IDoFFX=6 NUNeed=     3.
     45 vectors produced by pass  0 Test12= 1.11D-14 2.08D-09 XBig12= 1.39D+02 3.93D+00.
 AX will form    45 AO Fock derivatives at one time.
     45 vectors produced by pass  1 Test12= 1.11D-14 2.08D-09 XBig12= 3.17D+01 1.04D+00.
     45 vectors produced by pass  2 Test12= 1.11D-14 2.08D-09 XBig12= 1.13D+00 1.41D-01.
     45 vectors produced by pass  3 Test12= 1.11D-14 2.08D-09 XBig12= 1.24D-02 2.62D-02.
     45 vectors produced by pass  4 Test12= 1.11D-14 2.08D-09 XBig12= 1.66D-04 2.22D-03.
     45 vectors produced by pass  5 Test12= 1.11D-14 2.08D-09 XBig12= 1.32D-06 1.13D-04.
     33 vectors produced by pass  6 Test12= 1.11D-14 2.08D-09 XBig12= 1.11D-08 9.57D-06.
     13 vectors produced by pass  7 Test12= 1.11D-14 2.08D-09 XBig12= 5.79D-11 6.45D-07.
      3 vectors produced by pass  8 Test12= 1.11D-14 2.08D-09 XBig12= 3.38D-13 4.62D-08.
      2 vectors produced by pass  9 Test12= 1.11D-14 2.08D-09 XBig12= 4.24D-15 9.13D-09.
      1 vectors produced by pass 10 Test12= 1.11D-14 2.08D-09 XBig12= 6.90D-15 1.12D-08.
 InvSVY:  IOpt=1 It=  1 EMax= 1.24D-14
 Solved reduced A of dimension   322 with    48 vectors.
 Isotropic polarizability for W=    0.000000       82.42 Bohr**3.
 End of Minotr F.D. properties file   721 does not exist.
 End of Minotr F.D. properties file   722 does not exist.
 End of Minotr F.D. properties file   788 does not exist.

 **********************************************************************

            Population analysis using the SCF density.

 **********************************************************************

 Orbital symmetries:
 Alpha Orbitals:
       Occupied  (A) (A) (A) (A) (A) (A) (A) (A) (A) (A) (A) (A)
                 (A) (A) (A) (A) (A) (A) (A) (A) (A) (A) (A) (A)
                 (A) (A) (A) (A) (A) (A) (A)
       Virtual   (A) (A) (A) (A) (A) (A) (A) (A) (A) (A) (A) (A)
                 (A) (A) (A) (A) (A) (A) (A) (A) (A) (A) (A) (A)
                 (A) (A) (A) (A) (A) (A) (A) (A) (A) (A) (A) (A)
                 (A) (A) (A) (A) (A) (A) (A) (A) (A) (A) (A) (A)
                 (A) (A) (A) (A) (A) (A) (A) (A) (A) (A) (A) (A)
                 (A) (A) (A) (A) (A) (A) (A) (A) (A) (A) (A) (A)
                 (A) (A) (A) (A) (A) (A) (A) (A) (A) (A) (A) (A)
                 (A) (A) (A)
 Beta  Orbitals:
       Occupied  (A) (A) (A) (A) (A) (A) (A) (A) (A) (A) (A) (A)
                 (A) (A) (A) (A) (A) (A) (A) (A) (A) (A) (A) (A)
                 (A) (A) (A) (A) (A) (A)
       Virtual   (A) (A) (A) (A) (A) (A) (A) (A) (A) (A) (A) (A)
                 (A) (A) (A) (A) (A) (A) (A) (A) (A) (A) (A) (A)
                 (A) (A) (A) (A) (A) (A) (A) (A) (A) (A) (A) (A)
                 (A) (A) (A) (A) (A) (A) (A) (A) (A) (A) (A) (A)
                 (A) (A) (A) (A) (A) (A) (A) (A) (A) (A) (A) (A)
                 (A) (A) (A) (A) (A) (A) (A) (A) (A) (A) (A) (A)
                 (A) (A) (A) (A) (A) (A) (A) (A) (A) (A) (A) (A)
                 (A) (A) (A) (A)
 The electronic state is 2-A.
 Alpha  occ. eigenvalues --  -19.71267 -19.70759 -19.66940 -10.73615 -10.62516
 Alpha  occ. eigenvalues --  -10.62054 -10.59489 -10.54993  -1.28690  -1.20718
 Alpha  occ. eigenvalues --   -1.19318  -0.92048  -0.88533  -0.79100  -0.71564
 Alpha  occ. eigenvalues --   -0.68056  -0.64977  -0.59042  -0.57381  -0.55178
 Alpha  occ. eigenvalues --   -0.54241  -0.50076  -0.47440  -0.46581  -0.45890
 Alpha  occ. eigenvalues --   -0.42888  -0.42191  -0.40201  -0.38948  -0.38601
 Alpha  occ. eigenvalues --   -0.37384
 Alpha virt. eigenvalues --   -0.02440   0.01382   0.02089   0.03304   0.03729
 Alpha virt. eigenvalues --    0.04575   0.04817   0.06404   0.07277   0.08284
 Alpha virt. eigenvalues --    0.08772   0.09012   0.09154   0.10545   0.12335
 Alpha virt. eigenvalues --    0.13146   0.14187   0.15379   0.16584   0.16721
 Alpha virt. eigenvalues --    0.18280   0.19556   0.20014   0.21525   0.21964
 Alpha virt. eigenvalues --    0.23441   0.24487   0.25026   0.25841   0.26576
 Alpha virt. eigenvalues --    0.27460   0.27990   0.28801   0.29616   0.30342
 Alpha virt. eigenvalues --    0.31039   0.32378   0.32848   0.34706   0.35030
 Alpha virt. eigenvalues --    0.35705   0.37346   0.39000   0.41391   0.43229
 Alpha virt. eigenvalues --    0.46967   0.58055   0.63093   0.68329   0.69391
 Alpha virt. eigenvalues --    0.70312   0.72574   0.74132   0.75371   0.76353
 Alpha virt. eigenvalues --    0.78395   0.81207   0.85789   0.88688   0.91478
 Alpha virt. eigenvalues --    0.92256   0.96511   1.01383   1.06563   1.09530
 Alpha virt. eigenvalues --    1.09860   1.11032   1.14703   1.16828   1.19755
 Alpha virt. eigenvalues --    1.21298   1.22803   1.24388   1.25499   1.27310
 Alpha virt. eigenvalues --    1.35155   1.36073   1.37212   1.42377   1.43637
 Alpha virt. eigenvalues --    1.47267   1.58687   1.65523   1.74748   1.76294
 Alpha virt. eigenvalues --    2.00440   2.02346
  Beta  occ. eigenvalues --  -19.71278 -19.69975 -19.66945 -10.73590 -10.62055
  Beta  occ. eigenvalues --  -10.61374 -10.59400 -10.54993  -1.28697  -1.19334
  Beta  occ. eigenvalues --   -1.18181  -0.91366  -0.87496  -0.78619  -0.70967
  Beta  occ. eigenvalues --   -0.65705  -0.64883  -0.59064  -0.57430  -0.54672
  Beta  occ. eigenvalues --   -0.50069  -0.49882  -0.47441  -0.45858  -0.43169
  Beta  occ. eigenvalues --   -0.42460  -0.39616  -0.38926  -0.37108  -0.36547
  Beta virt. eigenvalues --   -0.16280  -0.01342   0.01742   0.02204   0.03348
  Beta virt. eigenvalues --    0.04371   0.04676   0.04918   0.06530   0.07581
  Beta virt. eigenvalues --    0.08318   0.08773   0.09054   0.09420   0.10800
  Beta virt. eigenvalues --    0.12641   0.13337   0.14317   0.15518   0.16735
  Beta virt. eigenvalues --    0.17303   0.18408   0.19755   0.20168   0.21389
  Beta virt. eigenvalues --    0.22068   0.23640   0.24567   0.25336   0.26104
  Beta virt. eigenvalues --    0.26623   0.27585   0.28055   0.28878   0.29786
  Beta virt. eigenvalues --    0.30446   0.31137   0.32432   0.32919   0.34941
  Beta virt. eigenvalues --    0.35238   0.35818   0.37571   0.39194   0.41484
  Beta virt. eigenvalues --    0.43388   0.47159   0.58221   0.64155   0.68597
  Beta virt. eigenvalues --    0.69718   0.71383   0.72881   0.74938   0.75510
  Beta virt. eigenvalues --    0.76536   0.78779   0.81546   0.85661   0.89170
  Beta virt. eigenvalues --    0.91983   0.95097   0.98200   1.01515   1.07709
  Beta virt. eigenvalues --    1.09587   1.10196   1.11123   1.14743   1.17000
  Beta virt. eigenvalues --    1.19744   1.21477   1.23437   1.24674   1.26074
  Beta virt. eigenvalues --    1.27323   1.35240   1.36878   1.37982   1.42415
  Beta virt. eigenvalues --    1.43699   1.47334   1.58979   1.65572   1.74823
  Beta virt. eigenvalues --    1.76566   2.00454   2.02348
          Condensed to atoms (all electrons):
               1          2          3          4          5          6
     1  O    8.226684   0.206785   0.384382   0.182167  -0.379942  -0.037144
     2  H    0.206785   0.365444   0.205756  -0.030842  -0.166931  -0.014620
     3  C    0.384382   0.205756  76.558342   0.385244 -36.194569 -34.293397
     4  H    0.182167  -0.030842   0.385244   0.315077  -0.272749  -0.059481
     5  C   -0.379942  -0.166931 -36.194569  -0.272749  41.946640   3.815006
     6  C   -0.037144  -0.014620 -34.293397  -0.059481   3.815006  33.963709
     7  O    0.000283   0.000021  -0.731113  -0.000076  -0.015370   0.881836
     8  O    0.000294  -0.000004  -1.337756  -0.000237  -1.486426   2.104253
     9  C    0.000083   0.000009  -0.461039  -0.000197  -0.500878   0.610831
    10  C   -0.000004   0.000009  -0.108227   0.000011  -0.251059   0.184084
    11  H   -0.000000   0.000000   0.011454   0.000000   0.015422  -0.010954
    12  H    0.000000  -0.000000  -0.004032  -0.000000   0.005379  -0.001887
    13  H   -0.000000   0.000000   0.001817   0.000000   0.009426  -0.002215
    14  H    0.000000  -0.000000   0.004503  -0.000000   0.013765  -0.009362
    15  H   -0.000000   0.000000   0.001441   0.000000  -0.010828   0.003845
               7          8          9         10         11         12
     1  O    0.000283   0.000294   0.000083  -0.000004  -0.000000   0.000000
     2  H    0.000021  -0.000004   0.000009   0.000009   0.000000  -0.000000
     3  C   -0.731113  -1.337756  -0.461039  -0.108227   0.011454  -0.004032
     4  H   -0.000076  -0.000237  -0.000197   0.000011   0.000000  -0.000000
     5  C   -0.015370  -1.486426  -0.500878  -0.251059   0.015422   0.005379
     6  C    0.881836   2.104253   0.610831   0.184084  -0.010954  -0.001887
     7  O    8.493762  -0.248712   0.010383  -0.042940  -0.000551   0.001723
     8  O   -0.248712   9.140094   0.121790   0.020906  -0.068971  -0.035007
     9  C    0.010383   0.121790   5.863731  -0.057866   0.422606   0.421824
    10  C   -0.042940   0.020906  -0.057866   5.749574  -0.056159  -0.076049
    11  H   -0.000551  -0.068971   0.422606  -0.056159   0.498614  -0.032114
    12  H    0.001723  -0.035007   0.421824  -0.076049  -0.032114   0.488409
    13  H   -0.000210   0.007206  -0.075319   0.400824  -0.000771  -0.000752
    14  H   -0.000396  -0.002269  -0.054759   0.391188  -0.004472   0.003761
    15  H    0.001441  -0.008238  -0.045929   0.405119   0.003579  -0.004719
              13         14         15
     1  O   -0.000000   0.000000  -0.000000
     2  H    0.000000  -0.000000   0.000000
     3  C    0.001817   0.004503   0.001441
     4  H    0.000000  -0.000000   0.000000
     5  C    0.009426   0.013765  -0.010828
     6  C   -0.002215  -0.009362   0.003845
     7  O   -0.000210  -0.000396   0.001441
     8  O    0.007206  -0.002269  -0.008238
     9  C   -0.075319  -0.054759  -0.045929
    10  C    0.400824   0.391188   0.405119
    11  H   -0.000771  -0.004472   0.003579
    12  H   -0.000752   0.003761  -0.004719
    13  H    0.498306  -0.025090  -0.022982
    14  H   -0.025090   0.488155  -0.026851
    15  H   -0.022982  -0.026851   0.467480
          Atomic-Atomic Spin Densities.
               1          2          3          4          5          6
     1  O    0.433007   0.001363   0.046051  -0.004915  -0.151533  -0.011975
     2  H    0.001363  -0.012767  -0.011337   0.000553   0.010161   0.000382
     3  C    0.046051  -0.011337   2.696974  -0.072789  -1.463601  -0.714271
     4  H   -0.004915   0.000553  -0.072789  -0.026633   0.070141   0.010181
     5  C   -0.151533   0.010161  -1.463601   0.070141   1.016338   0.644329
     6  C   -0.011975   0.000382  -0.714271   0.010181   0.644329   0.183494
     7  O   -0.000022  -0.000002   0.001993   0.000002   0.000814  -0.002241
     8  O    0.000067  -0.000001   0.024512  -0.000011   0.032947  -0.053311
     9  C   -0.000007   0.000000  -0.005188   0.000020   0.016285  -0.007047
    10  C    0.000021  -0.000000   0.006451  -0.000004   0.001956  -0.008082
    11  H   -0.000000  -0.000000  -0.000156   0.000000  -0.000137   0.000181
    12  H    0.000000   0.000000   0.000078  -0.000000  -0.000436   0.000194
    13  H   -0.000000   0.000000  -0.000025  -0.000000  -0.000159   0.000141
    14  H    0.000000   0.000000   0.000034   0.000000  -0.000077   0.000023
    15  H   -0.000000  -0.000000  -0.000080  -0.000000   0.000149  -0.000183
               7          8          9         10         11         12
     1  O   -0.000022   0.000067  -0.000007   0.000021  -0.000000   0.000000
     2  H   -0.000002  -0.000001   0.000000  -0.000000  -0.000000   0.000000
     3  C    0.001993   0.024512  -0.005188   0.006451  -0.000156   0.000078
     4  H    0.000002  -0.000011   0.000020  -0.000004   0.000000  -0.000000
     5  C    0.000814   0.032947   0.016285   0.001956  -0.000137  -0.000436
     6  C   -0.002241  -0.053311  -0.007047  -0.008082   0.000181   0.000194
     7  O   -0.006059   0.001345   0.001407  -0.000246   0.000005  -0.000077
     8  O    0.001345  -0.005087  -0.002378   0.000608   0.000047  -0.000004
     9  C    0.001407  -0.002378  -0.003196   0.000582   0.000145   0.000115
    10  C   -0.000246   0.000608   0.000582  -0.002448   0.000009   0.000086
    11  H    0.000005   0.000047   0.000145   0.000009  -0.000123  -0.000020
    12  H   -0.000077  -0.000004   0.000115   0.000086  -0.000020   0.000000
    13  H   -0.000002   0.000003  -0.000182   0.000351   0.000001  -0.000005
    14  H   -0.000009  -0.000038   0.000046   0.000033  -0.000004  -0.000001
    15  H    0.000009   0.000013   0.000047   0.000038  -0.000002  -0.000003
              13         14         15
     1  O   -0.000000   0.000000  -0.000000
     2  H    0.000000   0.000000  -0.000000
     3  C   -0.000025   0.000034  -0.000080
     4  H   -0.000000   0.000000  -0.000000
     5  C   -0.000159  -0.000077   0.000149
     6  C    0.000141   0.000023  -0.000183
     7  O   -0.000002  -0.000009   0.000009
     8  O    0.000003  -0.000038   0.000013
     9  C   -0.000182   0.000046   0.000047
    10  C    0.000351   0.000033   0.000038
    11  H    0.000001  -0.000004  -0.000002
    12  H   -0.000005  -0.000001  -0.000003
    13  H   -0.000212  -0.000016  -0.000004
    14  H   -0.000016   0.000005   0.000000
    15  H   -0.000004   0.000000   0.000040
 Mulliken charges and spin densities:
               1          2
     1  O   -0.583589   0.312056
     2  H    0.434372  -0.011648
     3  C    1.577196   0.508644
     4  H    0.481084  -0.023455
     5  C   -0.526887   0.177174
     6  C   -1.134505   0.041815
     7  O   -0.350080  -0.003083
     8  O   -0.206922  -0.001288
     9  C   -0.255268   0.000649
    10  C   -0.559410  -0.000646
    11  H    0.222316  -0.000053
    12  H    0.233464  -0.000073
    13  H    0.209760  -0.000111
    14  H    0.221828  -0.000005
    15  H    0.236641   0.000023
 Sum of Mulliken charges =  -0.00000   1.00000
 Mulliken charges and spin densities with hydrogens summed into heavy atoms:
               1          2
     1  O    0.331867   0.276953
     3  C    1.577196   0.508644
     5  C   -0.526887   0.177174
     6  C   -1.134505   0.041815
     7  O   -0.350080  -0.003083
     8  O   -0.206922  -0.001288
     9  C    0.200512   0.000522
    10  C    0.108820  -0.000738
 APT charges:
               1
     1  O   -0.495004
     2  H    0.324286
     3  C    0.129157
     4  H    0.014577
     5  C   -0.267015
     6  C    1.586623
     7  O   -0.818414
     8  O   -1.007610
     9  C    0.531454
    10  C   -0.063925
    11  H   -0.005863
    12  H   -0.006788
    13  H    0.014229
    14  H    0.022225
    15  H    0.042068
 Sum of APT charges =  -0.00000
 APT charges with hydrogens summed into heavy atoms:
               1
     1  O   -0.156142
     3  C    0.129157
     5  C   -0.267015
     6  C    1.586623
     7  O   -0.818414
     8  O   -1.007610
     9  C    0.518803
    10  C    0.014597
 Electronic spatial extent (au):  <R**2>=           1687.9787
 Charge=             -0.0000 electrons
 Dipole moment (field-independent basis, Debye):
    X=             -1.3881    Y=             -0.2798    Z=             -1.4448  Tot=              2.0230
 Quadrupole moment (field-independent basis, Debye-Ang):
   XX=            -39.6961   YY=            -53.0367   ZZ=            -48.4562
   XY=              8.1324   XZ=             -5.5534   YZ=             -0.1953
 Traceless Quadrupole moment (field-independent basis, Debye-Ang):
   XX=              7.3668   YY=             -5.9737   ZZ=             -1.3932
   XY=              8.1324   XZ=             -5.5534   YZ=             -0.1953
 Octapole moment (field-independent basis, Debye-Ang**2):
  XXX=            -31.1320  YYY=             -6.4405  ZZZ=             -1.9479  XYY=              9.5781
  XXY=             26.6575  XXZ=            -31.9108  XZZ=             -6.0896  YZZ=              1.6366
  YYZ=              0.0986  XYZ=              0.9351
 Hexadecapole moment (field-independent basis, Debye-Ang**3):
 XXXX=          -1879.5442 YYYY=           -194.7571 ZZZZ=           -125.1661 XXXY=            169.3422
 XXXZ=           -117.8641 YYYX=             10.1319 YYYZ=              0.8610 ZZZX=              5.0424
 ZZZY=              0.0967 XXYY=           -312.6134 XXZZ=           -346.4364 YYZZ=            -48.5165
 XXYZ=              8.7183 YYXZ=              2.4552 ZZXY=              2.1427
 N-N= 3.349787884885D+02 E-N=-1.652081382216D+03  KE= 4.178923316583D+02
  Exact polarizability: 140.254  -7.713  60.148   2.271   0.671  46.855
 Approx polarizability: 115.375 -13.519  75.486   3.644   2.359  48.233
                          Isotropic Fermi Contact Couplings
        Atom                 a.u.       MegaHertz       Gauss      10(-4) cm-1
     1  O(17)              0.04051     -24.55533      -8.76195      -8.19078
     2  H(1)              -0.00566     -25.31681      -9.03367      -8.44478
     3  C(13)              0.70462     792.12765     282.65085     264.22534
     4  H(1)              -0.01909     -85.31883     -30.44388     -28.45930
     5  C(13)              0.11266     126.64700      45.19080      42.24489
     6  C(13)              0.01206      13.55445       4.83656       4.52128
     7  O(17)             -0.00130       0.78935       0.28166       0.26330
     8  O(17)             -0.00686       4.15738       1.48346       1.38675
     9  C(13)             -0.00057      -0.63731      -0.22741      -0.21258
    10  C(13)             -0.00031      -0.35070      -0.12514      -0.11698
    11  H(1)              -0.00000      -0.01541      -0.00550      -0.00514
    12  H(1)              -0.00003      -0.14976      -0.05344      -0.04995
    13  H(1)              -0.00004      -0.16349      -0.05834      -0.05453
    14  H(1)              -0.00000      -0.00518      -0.00185      -0.00173
    15  H(1)               0.00001       0.03015       0.01076       0.01006
 --------------------------------------------------------
       Center         ----  Spin Dipole Couplings  ----
                      3XX-RR        3YY-RR        3ZZ-RR
 --------------------------------------------------------
     1   Atom        1.450073     -0.716870     -0.733204
     2   Atom       -0.012372      0.047547     -0.035174
     3   Atom        0.465510     -0.244678     -0.220831
     4   Atom        0.094107     -0.041476     -0.052631
     5   Atom        0.169272     -0.051268     -0.118004
     6   Atom        0.015709     -0.010719     -0.004990
     7   Atom        0.059348      0.002498     -0.061846
     8   Atom        0.003839      0.005273     -0.009112
     9   Atom        0.000511     -0.000208     -0.000303
    10   Atom        0.000989     -0.000423     -0.000566
    11   Atom        0.001138     -0.000591     -0.000547
    12   Atom        0.001265     -0.000658     -0.000607
    13   Atom        0.000678     -0.000337     -0.000341
    14   Atom        0.001084     -0.000571     -0.000513
    15   Atom        0.001127     -0.000583     -0.000544
 --------------------------------------------------------
                        XY            XZ            YZ
 --------------------------------------------------------
     1   Atom       -0.156325      0.118669     -0.018122
     2   Atom        0.018227     -0.003243     -0.045308
     3   Atom       -0.084414      0.117475     -0.022714
     4   Atom        0.040062      0.060014      0.053276
     5   Atom       -0.150614     -0.044882      0.042588
     6   Atom       -0.008678      0.002108     -0.002749
     7   Atom       -0.011647      0.048529      0.010714
     8   Atom       -0.000113      0.004126      0.009661
     9   Atom       -0.000117      0.000353     -0.000052
    10   Atom       -0.000100      0.000085      0.000125
    11   Atom        0.000187      0.000272     -0.000020
    12   Atom       -0.000236      0.000336      0.000005
    13   Atom       -0.000042     -0.000107      0.000006
    14   Atom        0.000193     -0.000376     -0.000017
    15   Atom       -0.000351     -0.000396      0.000035
 --------------------------------------------------------


 ---------------------------------------------------------------------------------
              Anisotropic Spin Dipole Couplings in Principal Axis System
 ---------------------------------------------------------------------------------

       Atom             a.u.   MegaHertz   Gauss  10(-4) cm-1        Axes

              Baa    -0.7451    53.914    19.238    17.984 -0.0120  0.4925  0.8702
     1 O(17)  Bbb    -0.7227    52.295    18.660    17.444  0.0891  0.8674 -0.4896
              Bcc     1.4678  -106.209   -37.898   -35.427  0.9959 -0.0717  0.0543
 
              Baa    -0.0556   -29.685   -10.592    -9.902 -0.1074  0.4156  0.9032
     2 H(1)   Bbb    -0.0158    -8.412    -3.002    -2.806  0.9717 -0.1483  0.1837
              Bcc     0.0714    38.097    13.594    12.708  0.2103  0.8974 -0.3879
 
              Baa    -0.2588   -34.731   -12.393   -11.585  0.0354  0.9022  0.4300
     3 C(13)  Bbb    -0.2365   -31.732   -11.323   -10.585 -0.1985 -0.4153  0.8878
              Bcc     0.4953    66.463    23.716    22.170  0.9795 -0.1168  0.1644
 
              Baa    -0.1027   -54.796   -19.553   -18.278 -0.1158 -0.6078  0.7856
     4 H(1)   Bbb    -0.0312   -16.625    -5.932    -5.546 -0.4708  0.7300  0.4954
              Bcc     0.1339    71.421    25.485    23.823  0.8746  0.3125  0.3707
 
              Baa    -0.1450   -19.460    -6.944    -6.491 -0.2268 -0.6807  0.6965
     5 C(13)  Bbb    -0.1101   -14.774    -5.272    -4.928  0.4227  0.5755  0.7001
              Bcc     0.2551    34.233    12.215    11.419  0.8774 -0.4532 -0.1573
 
              Baa    -0.0138    -1.851    -0.661    -0.617  0.2593  0.9378  0.2307
     6 C(13)  Bbb    -0.0048    -0.650    -0.232    -0.217 -0.1785 -0.1882  0.9658
              Bcc     0.0186     2.501     0.892     0.834  0.9491 -0.2916  0.1186
 
              Baa    -0.0812     5.877     2.097     1.960 -0.3340 -0.1652  0.9280
     7 O(17)  Bbb     0.0041    -0.295    -0.105    -0.099  0.0406  0.9811  0.1893
              Bcc     0.0771    -5.582    -1.992    -1.862  0.9417 -0.1009  0.3210
 
              Baa    -0.0147     1.065     0.380     0.355 -0.1987 -0.4273  0.8820
     8 O(17)  Bbb     0.0041    -0.297    -0.106    -0.099  0.9418 -0.3322  0.0512
              Bcc     0.0106    -0.768    -0.274    -0.256  0.2711  0.8409  0.4684
 
              Baa    -0.0004    -0.058    -0.021    -0.019 -0.3459  0.0357  0.9376
     9 C(13)  Bbb    -0.0002    -0.030    -0.011    -0.010  0.1481  0.9888  0.0170
              Bcc     0.0007     0.089     0.032     0.030  0.9265 -0.1448  0.3473
 
              Baa    -0.0006    -0.087    -0.031    -0.029 -0.0759 -0.5103  0.8566
    10 C(13)  Bbb    -0.0004    -0.047    -0.017    -0.016  0.0316  0.8575  0.5136
              Bcc     0.0010     0.134     0.048     0.045  0.9966 -0.0660  0.0489
 
              Baa    -0.0006    -0.347    -0.124    -0.116 -0.1742  0.7701  0.6137
    11 H(1)   Bbb    -0.0005    -0.293    -0.105    -0.098 -0.0550 -0.6299  0.7747
              Bcc     0.0012     0.640     0.228     0.213  0.9832  0.1012  0.1521
 
              Baa    -0.0007    -0.385    -0.137    -0.128  0.1941  0.7705 -0.6072
    12 H(1)   Bbb    -0.0006    -0.336    -0.120    -0.112 -0.0598  0.6271  0.7766
              Bcc     0.0014     0.721     0.257     0.240  0.9792 -0.1145  0.1678
 
              Baa    -0.0004    -0.188    -0.067    -0.063  0.0989 -0.0937  0.9907
    13 H(1)   Bbb    -0.0003    -0.181    -0.064    -0.060  0.0508  0.9947  0.0890
              Bcc     0.0007     0.369     0.132     0.123  0.9938 -0.0415 -0.1031
 
              Baa    -0.0006    -0.331    -0.118    -0.110  0.2319 -0.6657  0.7092
    14 H(1)   Bbb    -0.0006    -0.303    -0.108    -0.101  0.0662  0.7382  0.6713
              Bcc     0.0012     0.634     0.226     0.212  0.9705  0.1087 -0.2152
 
              Baa    -0.0007    -0.365    -0.130    -0.122  0.2766  0.7566  0.5926
    15 H(1)   Bbb    -0.0006    -0.319    -0.114    -0.106  0.0508 -0.6273  0.7771
              Bcc     0.0013     0.684     0.244     0.228  0.9597 -0.1848 -0.2119
 

 ---------------------------------------------------------------------------------

 Calling FoFJK, ICntrl=    100127 FMM=F ISym2X=0 I1Cent= 0 IOpClX= 1 NMat=1 NMatS=1 NMatT=0.
 Full mass-weighted force constant matrix:
 Low frequencies --- -796.3425 -512.9186 -185.7507 -143.7955  -78.9700  -58.6484
 Low frequencies ---  -39.0212   -0.0009   -0.0007
 ******    5 imaginary frequencies (negative Signs) ****** 
 Diagonal vibrational polarizability:
      400.8202518      39.3174337     142.7137487
 Harmonic frequencies (cm**-1), IR intensities (KM/Mole), Raman scattering
 activities (A**4/AMU), depolarization ratios for plane and unpolarized
 incident light, reduced masses (AMU), force constants (mDyne/A),
 and normal coordinates:
                      1                      2                      3
                      A                      A                      A
 Frequencies --   -796.0456              -508.7490              -183.6313
 Red. masses --      1.0240                 1.0522                 1.8202
 Frc consts  --      0.3823                 0.1605                 0.0362
 IR Inten    --     87.2215               143.7309               102.0421
  Atom  AN      X      Y      Z        X      Y      Z        X      Y      Z
     1   8    -0.00   0.01   0.02    -0.00  -0.04  -0.02     0.00  -0.12   0.07
     2   1    -0.16   0.03   0.08    -0.02   0.30   0.76     0.82  -0.27  -0.20
     3   6    -0.02  -0.00   0.01     0.01   0.01  -0.01     0.02   0.17  -0.08
     4   1     0.78  -0.36  -0.49    -0.12   0.40  -0.38     0.09   0.17  -0.31
     5   6    -0.01   0.00   0.00     0.00  -0.01   0.00    -0.01   0.07  -0.01
     6   6    -0.00   0.00  -0.00     0.00  -0.00  -0.00    -0.02   0.01   0.00
     7   8    -0.00   0.00  -0.00     0.00  -0.00  -0.02    -0.06   0.00  -0.01
     8   8    -0.00  -0.00   0.00     0.00  -0.01   0.01     0.01  -0.01   0.02
     9   6    -0.00   0.00   0.00     0.00  -0.01   0.01     0.00  -0.04   0.01
    10   6    -0.00   0.00   0.00     0.00   0.01   0.01    -0.00  -0.02   0.01
    11   1    -0.00  -0.00   0.00     0.00  -0.02   0.02     0.02  -0.06   0.03
    12   1    -0.00  -0.00  -0.00     0.00  -0.02  -0.01    -0.02  -0.06  -0.01
    13   1    -0.00   0.00   0.00     0.00   0.01   0.00    -0.00  -0.04   0.00
    14   1    -0.00   0.01   0.00     0.00   0.02   0.02     0.01   0.00   0.03
    15   1     0.00   0.00  -0.00     0.00   0.02  -0.01    -0.02   0.00  -0.02
                      4                      5                      6
                      A                      A                      A
 Frequencies --    -76.5774               -24.5480                41.5336
 Red. masses --      6.9304                 2.9868                 4.5759
 Frc consts  --      0.0239                 0.0011                 0.0047
 IR Inten    --      5.5275                 0.7354                16.1205
  Atom  AN      X      Y      Z        X      Y      Z        X      Y      Z
     1   8    -0.15   0.13   0.30     0.04   0.01  -0.09    -0.07   0.13   0.02
     2   1     0.01   0.07   0.17    -0.04   0.03  -0.05     0.18   0.06  -0.15
     3   6     0.03  -0.04  -0.27     0.00   0.03   0.02     0.09  -0.01  -0.26
     4   1    -0.02   0.07   0.09     0.01   0.00  -0.03     0.04   0.13  -0.20
     5   6     0.01  -0.10  -0.27    -0.00   0.01   0.04     0.05  -0.11  -0.01
     6   6     0.01  -0.08  -0.13    -0.02  -0.04   0.06     0.05  -0.09   0.11
     7   8     0.05  -0.10   0.13    -0.09  -0.08   0.19     0.13  -0.05   0.05
     8   8    -0.05  -0.03  -0.19     0.04  -0.06  -0.04    -0.02  -0.05   0.23
     9   6    -0.06   0.03   0.08     0.03  -0.11  -0.06     0.02   0.07  -0.02
    10   6     0.18   0.13   0.17     0.01   0.24  -0.10    -0.23   0.05  -0.13
    11   1    -0.19   0.02   0.19     0.05  -0.25   0.16     0.03   0.14  -0.14
    12   1    -0.13   0.01   0.06     0.00  -0.26  -0.30     0.21   0.12   0.00
    13   1     0.16   0.13   0.34    -0.00   0.08  -0.15    -0.19   0.23  -0.33
    14   1     0.26   0.17   0.20     0.10   0.44   0.17    -0.48  -0.03  -0.16
    15   1     0.27   0.16   0.05    -0.11   0.44  -0.36    -0.19  -0.06   0.02
                      7                      8                      9
                      A                      A                      A
 Frequencies --     69.4712               177.0347               191.7969
 Red. masses --      4.6955                 1.6354                 2.2617
 Frc consts  --      0.0134                 0.0302                 0.0490
 IR Inten    --      6.5491                32.5094                66.1212
  Atom  AN      X      Y      Z        X      Y      Z        X      Y      Z
     1   8     0.25   0.08  -0.04    -0.13   0.00  -0.03    -0.15   0.07  -0.04
     2   1     0.44   0.07  -0.05    -0.05  -0.02  -0.09     0.39  -0.04  -0.25
     3   6     0.03   0.17   0.19     0.01   0.03   0.03    -0.00  -0.06   0.05
     4   1     0.18   0.24  -0.02    -0.08  -0.00  -0.12    -0.05   0.21  -0.36
     5   6    -0.06  -0.18   0.03     0.00   0.02   0.08    -0.02  -0.09   0.18
     6   6    -0.05  -0.15  -0.04     0.01  -0.02   0.03     0.02  -0.03   0.06
     7   8     0.07  -0.11  -0.01    -0.04  -0.03  -0.02     0.08   0.01  -0.04
     8   8    -0.15  -0.05  -0.11     0.04  -0.04  -0.02    -0.01   0.02  -0.06
     9   6    -0.13   0.13  -0.02     0.05   0.01  -0.02    -0.00   0.04  -0.04
    10   6    -0.03   0.06   0.03     0.09   0.04  -0.00     0.07  -0.01  -0.00
    11   1    -0.27   0.24  -0.09    -0.00   0.03  -0.02    -0.02   0.05  -0.04
    12   1    -0.04   0.22   0.09     0.08   0.02  -0.01    -0.02   0.06  -0.01
    13   1    -0.01   0.31   0.11     0.15   0.60   0.01     0.02  -0.42   0.10
    14   1    -0.19  -0.07  -0.11    -0.35  -0.17  -0.16     0.45   0.13   0.07
    15   1     0.18  -0.10   0.14     0.52  -0.25   0.15    -0.19   0.19  -0.13
                     10                     11                     12
                      A                      A                      A
 Frequencies --    224.6578               303.7953               328.2535
 Red. masses --      3.1093                 3.3975                 4.0147
 Frc consts  --      0.0925                 0.1847                 0.2549
 IR Inten    --     14.8300                12.1584                81.7771
  Atom  AN      X      Y      Z        X      Y      Z        X      Y      Z
     1   8    -0.14  -0.09  -0.03    -0.10   0.01  -0.03    -0.09   0.03  -0.03
     2   1    -0.67  -0.03   0.05     0.23  -0.04  -0.14     0.38  -0.03  -0.13
     3   6     0.12   0.33   0.06     0.01   0.01   0.18     0.00  -0.11   0.25
     4   1    -0.12  -0.32   0.14    -0.04   0.11  -0.23    -0.02   0.18  -0.29
     5   6     0.03  -0.03  -0.04     0.01  -0.05  -0.13     0.08   0.10  -0.23
     6   6     0.03  -0.06  -0.02     0.04   0.06  -0.09     0.06  -0.02  -0.14
     7   8     0.07  -0.05  -0.01     0.20   0.09   0.09    -0.13  -0.10   0.05
     8   8    -0.01  -0.04   0.02    -0.01   0.08  -0.04     0.06  -0.08   0.06
     9   6     0.00   0.04   0.01    -0.04  -0.19   0.05     0.09   0.15   0.05
    10   6    -0.02  -0.01   0.01    -0.11  -0.03   0.01    -0.05   0.02   0.00
    11   1    -0.03   0.08  -0.04     0.09  -0.37   0.23    -0.02   0.32  -0.14
    12   1     0.05   0.08   0.06    -0.26  -0.34  -0.14     0.28   0.29   0.21
    13   1    -0.05  -0.30   0.01    -0.07   0.25  -0.12    -0.06  -0.18  -0.13
    14   1     0.21   0.07   0.05    -0.41  -0.05   0.07     0.03   0.03  -0.01
    15   1    -0.23   0.11  -0.05     0.05  -0.10   0.01    -0.26   0.06   0.08
                     13                     14                     15
                      A                      A                      A
 Frequencies --    422.3438               579.4973               616.6427
 Red. masses --      4.1188                 5.1300                 9.0946
 Frc consts  --      0.4329                 1.0150                 2.0375
 IR Inten    --     10.7968                 2.8003                63.3780
  Atom  AN      X      Y      Z        X      Y      Z        X      Y      Z
     1   8    -0.00   0.00  -0.00    -0.01  -0.00  -0.00     0.01  -0.01  -0.01
     2   1     0.07  -0.00  -0.00    -0.00  -0.00  -0.01     0.01   0.03   0.11
     3   6    -0.11   0.04   0.07     0.20  -0.10   0.03    -0.33   0.01  -0.05
     4   1    -0.01   0.06   0.00     0.02  -0.05  -0.09    -0.05   0.05   0.14
     5   6    -0.12  -0.08  -0.18     0.28   0.30   0.04    -0.16   0.50   0.07
     6   6    -0.07   0.02   0.01     0.04  -0.07   0.01    -0.08  -0.15  -0.05
     7   8     0.06   0.06   0.06     0.01  -0.08  -0.00     0.38  -0.01   0.04
     8   8    -0.08  -0.01   0.26    -0.17   0.02   0.06     0.02  -0.28  -0.06
     9   6    -0.01  -0.02  -0.17    -0.28  -0.02  -0.13     0.03  -0.02   0.03
    10   6     0.22  -0.02  -0.11    -0.01  -0.01  -0.01    -0.01   0.02   0.01
    11   1     0.04  -0.02  -0.19    -0.16  -0.14  -0.03    -0.22   0.21  -0.16
    12   1     0.11  -0.01  -0.19    -0.32  -0.09  -0.23     0.29   0.15   0.22
    13   1     0.20  -0.01   0.31    -0.04   0.04   0.48    -0.00  -0.01  -0.11
    14   1     0.46  -0.04  -0.22     0.24  -0.04  -0.14    -0.06   0.07   0.11
    15   1     0.45  -0.06  -0.22     0.28  -0.06  -0.14    -0.09   0.07  -0.02
                     16                     17                     18
                      A                      A                      A
 Frequencies --    792.5382               815.3332               899.3127
 Red. masses --      9.5038                 1.2910                 3.3469
 Frc consts  --      3.5171                 0.5057                 1.5948
 IR Inten    --     15.4374                 6.3218                10.1523
  Atom  AN      X      Y      Z        X      Y      Z        X      Y      Z
     1   8    -0.01   0.00   0.00     0.00  -0.00  -0.00     0.00  -0.00  -0.00
     2   1     0.07   0.01   0.03    -0.00   0.00   0.01     0.01   0.01   0.02
     3   6    -0.04  -0.02   0.11    -0.04   0.01  -0.01    -0.08   0.01  -0.01
     4   1     0.03   0.01  -0.02    -0.00   0.01   0.02    -0.00   0.00   0.03
     5   6     0.02   0.09  -0.39    -0.03   0.02   0.02    -0.04   0.07   0.01
     6   6    -0.06  -0.13   0.70     0.03  -0.03  -0.05     0.07  -0.11  -0.02
     7   8     0.03  -0.01  -0.18     0.01  -0.06   0.00     0.01  -0.18  -0.02
     8   8     0.01   0.03  -0.16    -0.01   0.04   0.02    -0.12   0.24   0.04
     9   6     0.03   0.04   0.01     0.04   0.08   0.01     0.09  -0.03   0.08
    10   6     0.01   0.02   0.01     0.02   0.03  -0.01     0.10  -0.07  -0.07
    11   1     0.04  -0.12   0.25     0.08  -0.23   0.47     0.27   0.02  -0.12
    12   1    -0.11  -0.12  -0.19    -0.10  -0.24  -0.43    -0.23   0.09   0.34
    13   1     0.01  -0.07  -0.12     0.00  -0.18  -0.07     0.15   0.13  -0.45
    14   1    -0.04  -0.08  -0.12     0.08  -0.21  -0.38    -0.20   0.15   0.34
    15   1    -0.13  -0.04   0.20    -0.15  -0.14   0.40     0.03   0.14  -0.35
                     19                     20                     21
                      A                      A                      A
 Frequencies --    948.2192              1112.5543              1157.4665
 Red. masses --      2.6646                 4.2200                 2.0865
 Frc consts  --      1.4116                 3.0775                 1.6469
 IR Inten    --      2.2784                 7.1564                23.3237
  Atom  AN      X      Y      Z        X      Y      Z        X      Y      Z
     1   8     0.00   0.00  -0.00    -0.00  -0.00   0.00     0.00  -0.00   0.00
     2   1     0.01   0.00   0.02    -0.01  -0.00  -0.01    -0.00   0.00  -0.00
     3   6    -0.12   0.03  -0.01     0.07  -0.02   0.00     0.03  -0.01   0.00
     4   1    -0.00   0.01   0.04    -0.00  -0.01  -0.02    -0.00  -0.00  -0.01
     5   6    -0.08  -0.00  -0.01     0.04   0.03   0.01     0.01   0.01   0.01
     6   6     0.14  -0.03   0.01    -0.16  -0.04  -0.03    -0.06  -0.01  -0.00
     7   8     0.00  -0.11  -0.02     0.01   0.02   0.01     0.00   0.01  -0.00
     8   8     0.15   0.09   0.01    -0.18   0.04  -0.01    -0.08   0.02  -0.05
     9   6    -0.03   0.01  -0.12     0.30  -0.06  -0.23     0.14  -0.04   0.18
    10   6    -0.17   0.00   0.11    -0.05   0.03   0.24    -0.11   0.03  -0.13
    11   1     0.31  -0.06  -0.23     0.28  -0.01  -0.32     0.12   0.04   0.06
    12   1     0.01   0.00  -0.14     0.41  -0.06  -0.28     0.30  -0.04   0.15
    13   1    -0.20   0.11   0.73    -0.05  -0.02   0.10    -0.14  -0.00   0.55
    14   1     0.16   0.06   0.09    -0.15   0.02   0.28     0.40  -0.01  -0.35
    15   1     0.24  -0.03  -0.12    -0.18   0.02   0.38     0.34  -0.14  -0.16
                     22                     23                     24
                      A                      A                      A
 Frequencies --   1227.4708              1326.8191              1371.5924
 Red. masses --      1.7615                 2.0871                 1.6707
 Frc consts  --      1.5637                 2.1648                 1.8518
 IR Inten    --      5.2964               469.9284               349.9769
  Atom  AN      X      Y      Z        X      Y      Z        X      Y      Z
     1   8     0.00  -0.00   0.00    -0.00   0.00  -0.00     0.00  -0.00   0.00
     2   1    -0.01  -0.00  -0.01     0.03   0.01   0.03    -0.03  -0.01  -0.03
     3   6     0.02  -0.01   0.00    -0.05   0.01  -0.00     0.03  -0.01   0.00
     4   1    -0.00   0.00  -0.01     0.00  -0.02   0.04    -0.01   0.03  -0.03
     5   6     0.01  -0.00   0.00    -0.01  -0.00  -0.00     0.01   0.00   0.00
     6   6    -0.07  -0.01  -0.01     0.23   0.08   0.03    -0.14  -0.06  -0.02
     7   8     0.00   0.03   0.01    -0.03   0.01  -0.00     0.02  -0.03  -0.00
     8   8    -0.00  -0.07  -0.01    -0.12  -0.04  -0.01     0.09   0.11   0.01
     9   6     0.05   0.18   0.02     0.08  -0.00  -0.03    -0.07   0.01   0.02
    10   6    -0.03  -0.13  -0.01    -0.02  -0.07   0.00     0.01  -0.06   0.01
    11   1     0.38  -0.15   0.31    -0.72   0.12   0.33    -0.41   0.06   0.19
    12   1    -0.27  -0.10  -0.32     0.29  -0.10  -0.24     0.76  -0.07  -0.31
    13   1     0.01   0.26   0.07    -0.01   0.10   0.03     0.02   0.05  -0.04
    14   1    -0.03   0.15   0.39    -0.00   0.07   0.22    -0.06   0.01   0.12
    15   1     0.14   0.08  -0.45     0.06   0.00  -0.18     0.01   0.05  -0.17
                     25                     26                     27
                      A                      A                      A
 Frequencies --   1440.3639              1444.2088              1456.3794
 Red. masses --      1.1462                 1.3164                 1.2663
 Frc consts  --      1.4010                 1.6177                 1.5825
 IR Inten    --     80.7111                30.9490                14.9164
  Atom  AN      X      Y      Z        X      Y      Z        X      Y      Z
     1   8    -0.05   0.02  -0.05     0.03  -0.01   0.03     0.00  -0.00   0.00
     2   1     0.48   0.13   0.40    -0.28  -0.08  -0.24    -0.01  -0.00  -0.01
     3   6     0.00   0.00  -0.00    -0.02   0.00   0.00    -0.01   0.00  -0.00
     4   1     0.13  -0.43   0.42    -0.07   0.26  -0.24    -0.00   0.01  -0.01
     5   6     0.00  -0.01   0.00    -0.01   0.00  -0.00    -0.00  -0.00   0.00
     6   6     0.03   0.00   0.00     0.08   0.02   0.01     0.03   0.01   0.00
     7   8    -0.01   0.01   0.00    -0.01   0.01   0.00    -0.00   0.00   0.00
     8   8    -0.02  -0.01  -0.01    -0.05  -0.03  -0.02    -0.02  -0.01  -0.01
     9   6    -0.04   0.00   0.04    -0.07   0.01   0.06    -0.04   0.00   0.04
    10   6     0.01   0.00   0.02     0.01   0.00   0.05     0.08  -0.01  -0.11
    11   1     0.25  -0.01  -0.16     0.45  -0.01  -0.30     0.19   0.01  -0.14
    12   1     0.24  -0.06  -0.15     0.41  -0.12  -0.28     0.18  -0.07  -0.14
    13   1     0.02  -0.01  -0.12     0.04  -0.02  -0.26     0.01  -0.02   0.53
    14   1     0.00  -0.06  -0.07     0.03  -0.12  -0.16    -0.37   0.19   0.36
    15   1     0.02   0.05  -0.07     0.06   0.10  -0.16    -0.37  -0.09   0.37
                     28                     29                     30
                      A                      A                      A
 Frequencies --   1528.1597              1536.0222              1544.9184
 Red. masses --      1.0422                 1.0758                 1.0679
 Frc consts  --      1.4339                 1.4955                 1.5018
 IR Inten    --     14.8837                 7.4967                23.0114
  Atom  AN      X      Y      Z        X      Y      Z        X      Y      Z
     1   8    -0.00   0.00  -0.00     0.00  -0.00   0.00    -0.00   0.00  -0.00
     2   1     0.00   0.00   0.00    -0.00  -0.00  -0.00     0.00   0.00   0.00
     3   6     0.00   0.00   0.00    -0.00   0.00  -0.00     0.00  -0.00   0.00
     4   1     0.00  -0.00   0.00    -0.00   0.00  -0.00     0.00  -0.00   0.00
     5   6    -0.00  -0.00  -0.00     0.00  -0.00   0.00     0.00   0.00   0.00
     6   6    -0.00   0.00   0.00     0.02  -0.00   0.00    -0.02   0.00  -0.00
     7   8     0.00  -0.01  -0.00    -0.00   0.01   0.00     0.00  -0.01  -0.00
     8   8     0.00   0.00   0.00    -0.02  -0.01  -0.01     0.01   0.00   0.01
     9   6    -0.01  -0.02   0.01    -0.02  -0.01  -0.06     0.04  -0.01   0.03
    10   6    -0.02  -0.05  -0.01     0.02  -0.02   0.01     0.03  -0.01   0.03
    11   1    -0.01   0.05  -0.12     0.20  -0.38   0.42    -0.18   0.22  -0.20
    12   1    -0.01  -0.05  -0.04     0.30   0.34   0.40    -0.24  -0.18  -0.16
    13   1     0.07   0.65  -0.13     0.02   0.19   0.16     0.01   0.16   0.29
    14   1     0.56   0.12   0.01    -0.07  -0.15  -0.18    -0.23  -0.31  -0.36
    15   1    -0.36  -0.03   0.26    -0.28   0.20  -0.13    -0.37   0.37  -0.32
                     31                     32                     33
                      A                      A                      A
 Frequencies --   1907.7828              2309.9158              3039.2315
 Red. masses --     12.4154                10.9232                 1.0746
 Frc consts  --     26.6237                34.3394                 5.8485
 IR Inten    --    308.8740               216.8645               655.8182
  Atom  AN      X      Y      Z        X      Y      Z        X      Y      Z
     1   8    -0.00   0.00  -0.00    -0.02  -0.01  -0.01    -0.05  -0.03  -0.03
     2   1     0.02   0.00   0.01    -0.01  -0.04  -0.01    -0.07  -0.11  -0.00
     3   6     0.07  -0.01   0.00    -0.57   0.16  -0.02     0.03  -0.01  -0.00
     4   1     0.00  -0.02   0.00     0.17   0.21   0.15     0.60   0.63   0.47
     5   6    -0.03  -0.01  -0.00     0.70  -0.19   0.03    -0.01   0.00  -0.00
     6   6    -0.24   0.76   0.09    -0.12   0.03  -0.01     0.00  -0.00   0.00
     7   8     0.18  -0.49  -0.05     0.00  -0.01  -0.00    -0.00   0.00  -0.00
     8   8    -0.03  -0.07  -0.01    -0.01  -0.00  -0.00    -0.00  -0.00  -0.00
     9   6    -0.02   0.01  -0.00     0.00   0.00  -0.00     0.00  -0.00  -0.00
    10   6     0.01  -0.00   0.01    -0.00   0.00   0.00    -0.00   0.00   0.00
    11   1     0.15  -0.09   0.05     0.01   0.00   0.00     0.00   0.00   0.00
    12   1     0.12   0.08   0.03    -0.00  -0.00   0.00    -0.00  -0.00   0.00
    13   1     0.01  -0.03  -0.05     0.00  -0.00   0.00     0.00  -0.00   0.00
    14   1    -0.03  -0.01   0.00     0.00   0.00  -0.00    -0.00   0.00  -0.00
    15   1     0.04   0.02  -0.04     0.00   0.00  -0.00    -0.00  -0.00  -0.00
                     34                     35                     36
                      A                      A                      A
 Frequencies --   3108.2552              3138.2616              3188.3988
 Red. masses --      1.0351                 1.0602                 1.1007
 Frc consts  --      5.8920                 6.1522                 6.5930
 IR Inten    --     12.7593                19.7050                12.5593
  Atom  AN      X      Y      Z        X      Y      Z        X      Y      Z
     1   8     0.00   0.00   0.00    -0.00  -0.00  -0.00    -0.00  -0.00  -0.00
     2   1     0.00   0.00   0.00    -0.00  -0.00  -0.00    -0.00  -0.00  -0.00
     3   6    -0.00   0.00   0.00    -0.00  -0.00  -0.00     0.00  -0.00  -0.00
     4   1    -0.00  -0.00  -0.00     0.00   0.00   0.00     0.00   0.00   0.00
     5   6    -0.00  -0.00  -0.00     0.00  -0.00   0.00     0.00  -0.00  -0.00
     6   6     0.00   0.00   0.00    -0.00  -0.00  -0.00    -0.00  -0.00   0.00
     7   8     0.00  -0.00  -0.00    -0.00   0.00  -0.00     0.00   0.00   0.00
     8   8    -0.00  -0.00  -0.00     0.00   0.00   0.00    -0.00   0.00  -0.00
     9   6     0.00   0.00  -0.00     0.03  -0.02   0.06     0.01   0.04   0.01
    10   6    -0.03  -0.00   0.04    -0.01   0.00  -0.01     0.04  -0.06   0.03
    11   1     0.00   0.01   0.00    -0.19  -0.45  -0.26    -0.17  -0.37  -0.23
    12   1     0.00  -0.02   0.01    -0.12   0.69  -0.43     0.03  -0.15   0.10
    13   1     0.61  -0.06   0.06     0.12  -0.01   0.01    -0.49   0.04  -0.04
    14   1    -0.12   0.49  -0.31     0.01  -0.05   0.03    -0.12   0.56  -0.36
    15   1    -0.20  -0.42  -0.24     0.01   0.02   0.01     0.08   0.13   0.09
                     37                     38                     39
                      A                      A                      A
 Frequencies --   3191.3413              3212.2985              3896.0089
 Red. masses --      1.1022                 1.1053                 1.0667
 Frc consts  --      6.6137                 6.7197                 9.5393
 IR Inten    --      7.5197                17.2325               110.5419
  Atom  AN      X      Y      Z        X      Y      Z        X      Y      Z
     1   8     0.00   0.00   0.00     0.00   0.00   0.00    -0.01  -0.06   0.02
     2   1     0.00  -0.00   0.00     0.00   0.00   0.00     0.06   0.92  -0.37
     3   6     0.00  -0.00   0.00    -0.00   0.00   0.00    -0.00  -0.00  -0.00
     4   1    -0.00  -0.00  -0.00    -0.00  -0.00  -0.00     0.07   0.02   0.06
     5   6    -0.00  -0.00  -0.00    -0.00   0.00  -0.00     0.00  -0.00   0.00
     6   6    -0.00   0.00  -0.00     0.00  -0.00  -0.00    -0.00   0.00  -0.00
     7   8     0.00  -0.00   0.00    -0.00   0.00   0.00     0.00  -0.00  -0.00
     8   8     0.00   0.00  -0.00     0.00  -0.00   0.00     0.00   0.00   0.00
     9   6     0.01   0.05  -0.00    -0.01  -0.06  -0.01    -0.00  -0.00   0.00
    10   6    -0.07  -0.03  -0.03    -0.02  -0.06  -0.00     0.00   0.00   0.00
    11   1    -0.14  -0.31  -0.19     0.20   0.46   0.29     0.00   0.00   0.00
    12   1     0.05  -0.30   0.20    -0.05   0.31  -0.21     0.00  -0.00  -0.00
    13   1     0.58  -0.07   0.05     0.09  -0.03   0.01     0.00   0.00  -0.00
    14   1     0.00  -0.09   0.05    -0.09   0.33  -0.23    -0.00   0.00   0.00
    15   1     0.21   0.49   0.28     0.21   0.46   0.28    -0.00   0.00   0.00

 -------------------
 - Thermochemistry -
 -------------------
 Temperature   298.150 Kelvin.  Pressure   1.00000 Atm.
 Atom     1 has atomic number  8 and mass  15.99491
 Atom     2 has atomic number  1 and mass   1.00783
 Atom     3 has atomic number  6 and mass  12.00000
 Atom     4 has atomic number  1 and mass   1.00783
 Atom     5 has atomic number  6 and mass  12.00000
 Atom     6 has atomic number  6 and mass  12.00000
 Atom     7 has atomic number  8 and mass  15.99491
 Atom     8 has atomic number  8 and mass  15.99491
 Atom     9 has atomic number  6 and mass  12.00000
 Atom    10 has atomic number  6 and mass  12.00000
 Atom    11 has atomic number  1 and mass   1.00783
 Atom    12 has atomic number  1 and mass   1.00783
 Atom    13 has atomic number  1 and mass   1.00783
 Atom    14 has atomic number  1 and mass   1.00783
 Atom    15 has atomic number  1 and mass   1.00783
 Molecular mass:   115.03952 amu.
 Principal axes and moments of inertia in atomic units:
                           1         2         3
     Eigenvalues --   287.589502624.517262737.20839
           X            0.99993   0.00784  -0.00895
           Y           -0.00792   0.99994  -0.00801
           Z            0.00889   0.00808   0.99993
 This molecule is an asymmetric top.
 Rotational symmetry number  1.
 Rotational temperatures (Kelvin)      0.30117     0.03300     0.03164
 Rotational constants (GHZ):           6.27541     0.68765     0.65934
    5 imaginary frequencies ignored.
 Zero-point vibrational energy     290380.8 (Joules/Mol)
                                   69.40268 (Kcal/Mol)
 Warning -- explicit consideration of  10 degrees of freedom as
           vibrations may cause significant error
 Vibrational temperatures:     59.76    99.95   254.71   275.95   323.23
          (Kelvin)            437.09   472.28   607.66   833.77   887.21
                             1140.29  1173.08  1293.91  1364.28  1600.72
                             1665.34  1766.06  1909.00  1973.42  2072.36
                             2077.89  2095.41  2198.68  2209.99  2222.79
                             2744.87  3323.45  4372.78  4472.09  4515.26
                             4587.39  4591.63  4621.78  5605.49
 
 Zero-point correction=                           0.110600 (Hartree/Particle)
 Thermal correction to Energy=                    0.118550
 Thermal correction to Enthalpy=                  0.119494
 Thermal correction to Gibbs Free Energy=         0.075849
 Sum of electronic and zero-point Energies=           -419.805925
 Sum of electronic and thermal Energies=              -419.797975
 Sum of electronic and thermal Enthalpies=            -419.797031
 Sum of electronic and thermal Free Energies=         -419.840676
 
                     E (Thermal)             CV                S
                      KCal/Mol        Cal/Mol-Kelvin    Cal/Mol-Kelvin
 Total                   74.391             25.876             91.859
 Electronic               0.000              0.000              1.377
 Translational            0.889              2.981             40.136
 Rotational               0.889              2.981             29.115
 Vibrational             72.614             19.914             21.232
 Vibration     1          0.594              1.981              5.185
 Vibration     2          0.598              1.969              4.168
 Vibration     3          0.628              1.871              2.359
 Vibration     4          0.634              1.851              2.210
 Vibration     5          0.649              1.803              1.921
 Vibration     6          0.695              1.667              1.396
 Vibration     7          0.711              1.619              1.269
 Vibration     8          0.785              1.422              0.884
 Vibration     9          0.936              1.076              0.486
 Vibration    10          0.976              0.997              0.422
                       Q            Log10(Q)             Ln(Q)
 Total Bot       0.129431D-34        -34.887960        -80.332497
 Total V=0       0.965072D+16         15.984559         36.805808
 Vib (Bot)       0.259343D-48        -48.586125       -111.873688
 Vib (Bot)    1  0.498098D+01          0.697315          1.605626
 Vib (Bot)    2  0.296896D+01          0.472605          1.088213
 Vib (Bot)    3  0.113568D+01          0.055255          0.127230
 Vib (Bot)    4  0.104282D+01          0.018207          0.041924
 Vib (Bot)    5  0.878731D+00         -0.056144         -0.129277
 Vib (Bot)    6  0.624659D+00         -0.204357         -0.470550
 Vib (Bot)    7  0.569823D+00         -0.244260         -0.562430
 Vib (Bot)    8  0.415003D+00         -0.381948         -0.879468
 Vib (Bot)    9  0.263088D+00         -0.579900         -1.335268
 Vib (Bot)   10  0.237996D+00         -0.623431         -1.435503
 Vib (V=0)       0.193372D+03          2.286394          5.264617
 Vib (V=0)    1  0.550601D+01          0.740837          1.705840
 Vib (V=0)    2  0.351077D+01          0.545403          1.255836
 Vib (V=0)    3  0.174087D+01          0.240767          0.554387
 Vib (V=0)    4  0.165649D+01          0.219188          0.504700
 Vib (V=0)    5  0.151102D+01          0.179271          0.412787
 Vib (V=0)    6  0.130012D+01          0.113985          0.262460
 Vib (V=0)    7  0.125809D+01          0.099711          0.229593
 Vib (V=0)    8  0.114979D+01          0.060619          0.139580
 Vib (V=0)    9  0.106499D+01          0.027346          0.062967
 Vib (V=0)   10  0.105375D+01          0.022739          0.052358
 Electronic      0.200000D+01          0.301030          0.693147
 Translational   0.484981D+08          7.685724         17.697035
 Rotational      0.514530D+06          5.711411         13.151009
 ***** Axes restored to original set *****
 -------------------------------------------------------------------
 Center     Atomic                   Forces (Hartrees/Bohr)
 Number     Number              X              Y              Z
 -------------------------------------------------------------------
      1        8           0.006620554   -0.001688760    0.006134888
      2        1           0.006270767    0.016912429   -0.001612045
      3        6           0.021765865   -0.001360188    0.001147449
      4        1          -0.009952214   -0.017901524   -0.004605411
      5        6          -0.026027688    0.002652833   -0.001758565
      6        6           0.045131179   -0.028836886    0.001089969
      7        8          -0.020963136    0.046693501    0.004429421
      8        8          -0.003227460   -0.015088745   -0.002834984
      9        6          -0.017297752   -0.002853459   -0.003461532
     10        6          -0.000409006    0.000034701    0.000200358
     11        1          -0.000390501   -0.000622144   -0.000470237
     12        1          -0.000500113    0.001471620   -0.000676943
     13        1          -0.001458799    0.000286667    0.000428349
     14        1           0.000252735   -0.000916978    0.000787351
     15        1           0.000185569    0.001216933    0.001201933
 -------------------------------------------------------------------
 Cartesian Forces:  Max     0.046693501 RMS     0.013418560

 GradGradGradGradGradGradGradGradGradGradGradGradGradGradGradGradGradGrad
 Berny optimization.
 Search for a local minimum.
 Step number   1 out of a maximum of    2
 All quantities printed in internal units (Hartrees-Bohrs-Radians)
 Second derivative matrix not updated -- analytic derivatives used.
 ITU=  0
     Eigenvalues ---   -0.02717  -0.01219  -0.00406  -0.00327  -0.00091
     Eigenvalues ---    0.00040   0.00115   0.00198   0.00733   0.01160
     Eigenvalues ---    0.02169   0.02556   0.03469   0.04708   0.06683
     Eigenvalues ---    0.07610   0.08223   0.09443   0.10608   0.12200
     Eigenvalues ---    0.13653   0.14884   0.17978   0.20003   0.21601
     Eigenvalues ---    0.29524   0.31138   0.48893   0.50217   0.62037
     Eigenvalues ---    0.67791   0.78031   0.80444   0.88639   0.94709
     Eigenvalues ---    0.95475   1.00684   1.85471   2.44238
 Eigenvalue     1 is  -2.72D-02 should be greater than     0.000000 Eigenvector:
                          X4        Z4        Y4        Z1        X2
   1                    0.79026  -0.41113  -0.37289   0.13538  -0.12177
                          Y1        X1        X3        X5        Y3
   1                    0.08794  -0.08100  -0.07656  -0.05397  -0.03584
 Eigenvalue     2 is  -1.22D-02 should be greater than     0.000000 Eigenvector:
                          Z2        Z4        Y4        Y1        Z7
   1                    0.73196  -0.48909   0.26568  -0.21054  -0.17146
                          Y2        Z1        Z8        Y3        Z5
   1                    0.16512  -0.13205   0.09617   0.07440   0.06019
 Eigenvalue     3 is  -4.06D-03 should be greater than     0.000000 Eigenvector:
                          X2        Y2        Y3        Z1        Z3
   1                    0.62341  -0.34061   0.29910   0.27623  -0.23902
                          Y1        Y5        X7        Z4        Z5
   1                   -0.18014   0.17088  -0.16775  -0.15088  -0.14188
 Eigenvalue     4 is  -3.27D-03 should be greater than     0.000000 Eigenvector:
                          Z7        Y14       Y15       Z8        Z3
   1                    0.42009   0.28537   0.28320  -0.23953  -0.21397
                          X2        Y2        Z2        Z5        Y10
   1                   -0.21358   0.20299   0.20101  -0.20097   0.18985
 Eigenvalue     5 is  -9.10D-04 should be greater than     0.000000 Eigenvector:
                          Z1        Z3        Z15       Z5        Z7
   1                    0.37522  -0.34377   0.26292  -0.25837  -0.24815
                          X1        Z12       Z13       Y15       Y14
   1                   -0.24604   0.23567   0.20915  -0.20431  -0.19917
 Quadratic step=5.187D-01 exceeds max=3.000D-01 adjusted using Lamda=-4.384D-03.
 Angle between NR and scaled steps=  28.73 degrees.
 Angle between quadratic step and forces=  69.00 degrees.
 Linear search not attempted -- first point.
 B after Tr=     0.006420    0.004296   -0.005424
         Rot=    1.000000   -0.000539   -0.000489   -0.000645 Ang=  -0.11 deg.
 Variable       Old X    -DE/DX   Delta X   Delta X   Delta X     New X
                                 (Linear)    (Quad)   (Total)
    X1        8.50562   0.00662   0.00000   0.04860   0.05631   8.56193
    Y1       -0.50277  -0.00169   0.00000  -0.03175  -0.01708  -0.51985
    Z1        0.63861   0.00613   0.00000  -0.02115  -0.03552   0.60310
    X2        8.55983   0.00627   0.00000   0.03055   0.03537   8.59521
    Y2        1.17093   0.01691   0.00000   0.02334   0.03877   1.20970
    Z2       -0.08348  -0.00161   0.00000   0.03881   0.02628  -0.05720
    X3        4.14218   0.02177   0.00000   0.09725   0.10411   4.24629
    Y3       -0.60945  -0.00136   0.00000   0.17049   0.18039  -0.42906
    Z3       -0.11820   0.00115   0.00000  -0.00410  -0.01415  -0.13235
    X4        7.07252  -0.00995   0.00000  -0.00229   0.00590   7.07842
    Y4       -1.37094  -0.01790   0.00000  -0.13146  -0.11786  -1.48880
    Z4       -0.22378  -0.00461   0.00000   0.06072   0.04676  -0.17702
    X5        1.95653  -0.02603   0.00000   0.02106   0.02728   1.98381
    Y5        0.03143   0.00265   0.00000  -0.02444  -0.01738   0.01405
    Z5       -0.17499  -0.00176   0.00000  -0.01833  -0.02568  -0.20067
    X6       -0.69653   0.04513   0.00000   0.04486   0.05005  -0.64649
    Y6        0.73715  -0.02884   0.00000  -0.03256  -0.02875   0.70841
    Z6       -0.33705   0.00109   0.00000   0.00452   0.00049  -0.33656
    X7       -1.42233  -0.02096   0.00000  -0.01238  -0.00975  -1.43208
    Y7        2.87053   0.04669   0.00000   0.00420   0.00673   2.87726
    Z7       -0.09564   0.00443   0.00000   0.01011   0.00919  -0.08645
    X8       -2.14570  -0.00323   0.00000  -0.02223  -0.01490  -2.16060
    Y8       -1.26691  -0.01509   0.00000  -0.03677  -0.03442  -1.30133
    Z8       -0.77985  -0.00283   0.00000  -0.00870  -0.01341  -0.79326
    X9       -4.82661  -0.01730   0.00000  -0.06784  -0.06131  -4.88792
    Y9       -0.79351  -0.00285   0.00000  -0.00718  -0.00818  -0.80169
    Z9       -0.94070  -0.00346   0.00000  -0.01051  -0.01202  -0.95271
   X10       -5.98712  -0.00041   0.00000  -0.04182  -0.03304  -6.02015
   Y10       -0.56194   0.00003   0.00000   0.00448  -0.00081  -0.56275
   Z10        1.66787   0.00020   0.00000   0.00447   0.00434   1.67221
   X11       -5.55795  -0.00039   0.00000  -0.05853  -0.05089  -5.60884
   Y11       -2.42369  -0.00062   0.00000  -0.01063  -0.01146  -2.43515
   Z11       -1.95931  -0.00047   0.00000  -0.01308  -0.01563  -1.97494
   X12       -5.12871  -0.00050   0.00000  -0.03774  -0.03452  -5.16322
   Y12        0.91114   0.00147   0.00000   0.00467   0.00452   0.91566
   Z12       -2.05876  -0.00068   0.00000  -0.00682  -0.00620  -2.06497
   X13       -8.03158  -0.00146   0.00000  -0.04686  -0.03851  -8.07009
   Y13       -0.34709   0.00029   0.00000   0.01704   0.00926  -0.33783
   Z13        1.49549   0.00043   0.00000   0.03227   0.03439   1.52988
   X14       -5.59930   0.00025   0.00000  -0.03548  -0.02343  -5.62272
   Y14       -2.25380  -0.00092   0.00000   0.00284  -0.00314  -2.25694
   Z14        2.78013   0.00079   0.00000   0.00590   0.00356   2.78369
   X15       -5.24183   0.00019   0.00000  -0.02029  -0.01267  -5.25450
   Y15        1.08586   0.00122   0.00000   0.00474  -0.00061   1.08525
   Z15        2.65423   0.00120   0.00000  -0.00330  -0.00241   2.65183
         Item               Value     Threshold  Converged?
 Maximum Force            0.046694     0.000450     NO 
 RMS     Force            0.013419     0.000300     NO 
 Maximum Displacement     0.180392     0.001800     NO 
 RMS     Displacement     0.044095     0.001200     NO 
 Predicted change in Energy=-5.051794D-03
 GradGradGradGradGradGradGradGradGradGradGradGradGradGradGradGradGradGrad


 ----------------------------------------------------------------------

 Electric dipole moment (input orientation):
 (Debye = 10**-18 statcoulomb cm , SI units = C m)
                  (au)            (Debye)         (10**-30 SI)
   Tot        0.795920D+00      0.202303D+01      0.674809D+01
   x         -0.546441D+00     -0.138892D+01     -0.463292D+01
   y         -0.108354D+00     -0.275408D+00     -0.918662D+00
   z         -0.568463D+00     -0.144489D+01     -0.481963D+01

 Dipole polarizability, Alpha (input orientation).
 (esu units = cm**3 , SI units = C**2 m**2 J**-1)
 Alpha(0;0):
               (au)            (10**-24 esu)      (10**-40 SI)
   iso        0.824192D+02      0.122133D+02      0.135891D+02
   aniso      0.886219D+02      0.131324D+02      0.146118D+02
   xx         0.140242D+03      0.207818D+02      0.231228D+02
   yx        -0.778820D+01     -0.115409D+01     -0.128410D+01
   yy         0.601585D+02      0.891458D+01      0.991880D+01
   zx         0.221914D+01      0.328842D+00      0.365886D+00
   zy         0.701976D+00      0.104022D+00      0.115740D+00
   zz         0.468567D+02      0.694345D+01      0.772563D+01

 ----------------------------------------------------------------------

 Dipole orientation:
     8          5.75582463          1.04802847         -6.22722676
     1          6.19962975         -0.70292100         -5.97655850
     6          3.11759559          0.81261873         -2.67643793
     1          5.35619561          1.71126968         -4.50919439
     6          1.53697316          0.05176356         -1.22255681
     6         -0.31379957         -0.81304623          0.61858201
     8         -1.12208562         -2.93006584          0.65403141
     8         -0.95121712          1.03005798          2.20259719
     6         -2.81034282          0.39371018          4.09361351
     6         -5.45529366          0.45648730          2.99574676
     1         -2.55237581          1.82771297          5.54515512
     1         -2.35470655         -1.46119693          4.86750103
     1         -6.83096412          0.10902053          4.49324195
     1         -5.84549627          2.30261973          2.16540802
     1         -5.68197436         -0.99858501          1.55525841

 Electric dipole moment (dipole orientation):
 (Debye = 10**-18 statcoulomb cm , SI units = C m)
                  (au)            (Debye)         (10**-30 SI)
   Tot        0.795920D+00      0.202303D+01      0.674809D+01
   x          0.000000D+00      0.000000D+00      0.000000D+00
   y          0.000000D+00      0.000000D+00      0.000000D+00
   z          0.795920D+00      0.202303D+01      0.674809D+01

 Dipole polarizability, Alpha (dipole orientation).
 (esu units = cm**3 , SI units = C**2 m**2 J**-1)
 Alpha(0;0):
               (au)            (10**-24 esu)      (10**-40 SI)
   iso        0.824192D+02      0.122133D+02      0.135891D+02
   aniso      0.886219D+02      0.131324D+02      0.146118D+02
   xx         0.944456D+02      0.139954D+02      0.155720D+02
   yx         0.106254D+02      0.157451D+01      0.175188D+01
   yy         0.608341D+02      0.901468D+01      0.100302D+02
   zx        -0.459192D+02     -0.680452D+01     -0.757105D+01
   zy        -0.674671D+01     -0.999760D+00     -0.111238D+01
   zz         0.919780D+02      0.136297D+02      0.151651D+02

 ----------------------------------------------------------------------
 1\1\GINC-AJ\Freq\UM062X\6-31+G\C5H7O3(2)\AAYUSH\20-Jun-2025\0\\# freq 
 6-31+g m062x\\Title Card Required\\0,2\O,4.500982,-0.266055,0.33794\H,
 4.529668,0.619627,-0.044177\C,2.191948,-0.322509,-0.062548\H,3.742617,
 -0.72547,-0.118421\C,1.03535,0.016632,-0.092601\C,-0.36859,0.390085,-0
 .178359\O,-0.752666,1.519019,-0.050611\O,-1.135456,-0.670421,-0.41268\
 C,-2.55413,-0.41991,-0.497796\C,-3.168245,-0.297367,0.882597\H,-2.9411
 38,-1.28256,-1.036821\H,-2.713994,0.482155,-1.089451\H,-4.250127,-0.18
 3672,0.79138\H,-2.96302,-1.19266,1.471183\H,-2.773857,0.574613,1.40456
 \\Version=ES64L-G16RevA.03\State=2-A\HF=-419.9165247\S2=0.77065\S2-1=0
 .\S2A=0.750324\RMSD=9.018e-09\RMSF=1.342e-02\ZeroPoint=0.1106002\Therm
 al=0.1185498\Dipole=-0.5464413,-0.1083538,-0.5684631\DipoleDeriv=-0.74
 18878,0.0042276,0.1351332,0.139135,-0.3410403,-0.103612,0.4659776,-0.1
 279658,-0.4020836,0.4314968,0.082873,-0.0683693,0.3181812,0.2180564,0.
 1173321,-0.1253157,0.127192,0.3233041,0.7860761,0.1951149,0.1983788,0.
 1108177,-0.2446096,-0.0164172,0.1561968,0.0098269,-0.1539961,-0.508175
 5,-0.0878233,-0.1885889,-0.4889202,0.324045,-0.0109302,-0.4627129,0.00
 42727,0.2278602,-0.7667465,-0.0782557,-0.1008668,-0.0126605,-0.0119671
 ,0.0072915,-0.1815453,-0.0121671,-0.0223305,2.678814,-0.02518,0.102993
 8,0.4713997,1.6647368,0.1454885,0.3761195,0.1748018,0.4163185,-1.00651
 76,0.2644061,0.0009698,0.1140813,-1.0909763,-0.0581081,-0.0562366,-0.0
 608107,-0.3577479,-1.7662174,-0.3820895,-0.0325465,-0.6487694,-0.84246
 25,-0.0822907,-0.1821504,-0.1227229,-0.4141499,0.9852737,0.1207951,-0.
 024846,0.0020763,0.2567846,-0.011734,0.0087671,0.0400539,0.3523041,-0.
 1182468,-0.0330583,0.0199498,0.0069344,0.0304692,-0.0162709,0.0499397,
 -0.0513541,-0.1039981,-0.0207972,-0.0252508,-0.0011882,-0.0696698,-0.0
 176608,-0.0991858,-0.0254305,-0.071529,0.0208684,-0.0180744,-0.0404647
 ,0.0301491,0.0623025,-0.0029172,0.1021382,0.0076222,0.0502755,0.000627
 5,-0.1464622,0.0145391,-0.0006833,0.0232926,0.111852,0.002357,-0.01940
 57,0.0162786,0.0772972,0.1048462,0.0589698,-0.0247764,0.0209055,-0.044
 1657,0.0992938,0.0148361,0.0562825,0.0059947,0.1066186,-0.0688031,-0.0
 457092,-0.0491065,-0.0101445,-0.0753521,-0.0266619,-0.0324344,0.029731
 3\Polar=140.2423838,-7.7881978,60.1585438,2.2191374,0.7019758,46.85672
 16\Quadrupole=5.4846333,-4.4513307,-1.0333027,6.0465186,-4.1180021,-0.
 151409\PG=C01 [X(C5H7O3)]\NImag=5\\0.24345294,0.15283386,0.55352042,0.
 14380578,-0.11640477,0.17618184,-0.02004415,-0.00239489,-0.01493319,0.
 02420108,-0.04546516,-0.44993780,0.16505568,0.03831997,0.46810362,0.00
 077073,0.20450717,-0.09020649,0.00601687,-0.18362786,0.08356187,-0.060
 62668,-0.02804977,-0.03800831,-0.00363659,-0.00720349,0.00370621,1.036
 05500,0.01279277,0.01077917,0.00673130,0.00023799,0.00240282,0.0011098
 9,-0.28043167,0.08939316,-0.00007607,0.00719848,0.00240176,0.00231301,
 -0.00178224,0.00000813,0.03967573,-0.01132583,0.02090104,-0.15432076,-
 0.12656783,-0.09267790,-0.00331432,0.01329571,-0.00963082,0.04818438,-
 0.01494007,-0.00973795,0.10851075,-0.12291865,-0.11158618,-0.05533400,
 -0.03400924,-0.01996862,-0.02188034,0.03233369,-0.01674607,-0.00430976
 ,0.12760016,0.14391775,-0.14491631,-0.09306704,-0.08838255,0.00726377,
 0.01945591,0.00677676,0.03022222,-0.00757102,-0.00805062,0.11008282,0.
 08048930,0.08608507,-0.00988787,0.00459541,0.00256801,0.00330318,0.002
 00403,-0.00094765,-1.02526892,0.28197477,-0.03016710,0.00037695,-0.005
 02832,-0.00381120,1.38353578,0.00384605,-0.00432675,0.00036759,-0.0034
 4769,-0.00068684,0.00008724,0.26940279,-0.09478036,0.01059920,-0.00011
 736,0.00482518,-0.00024050,-0.33693701,0.19800764,0.00078688,-0.001860
 96,0.00000421,-0.00054202,0.00159952,-0.00017841,-0.04021602,0.0141961
 2,-0.03208953,-0.00015371,-0.00035972,0.00351593,0.05871376,-0.0123728
 4,0.08362649,0.00536233,-0.00084836,-0.00287103,-0.00175705,-0.0032469
 2,0.00077142,0.00855583,-0.00237748,-0.00358250,0.00297601,0.00530768,
 0.00408022,-0.26891924,0.05182104,-0.00733402,0.68749037,-0.00155673,0
 .00145997,-0.00029551,0.00129343,0.00075210,-0.00004990,0.01453080,0.0
 0705799,-0.00121740,-0.00028414,-0.00061595,0.00051276,0.02549181,-0.0
 7165856,0.00733443,-0.14503386,1.02559534,-0.00003378,-0.00084740,-0.0
 0013796,-0.00038529,-0.00102012,0.00023660,0.00617921,-0.00508692,0.02
 055065,0.00304335,0.00225271,0.00040129,-0.01962591,0.01272022,-0.0994
 2249,0.02607081,0.10583573,0.21682312,-0.00170189,-0.00023477,0.001182
 41,0.00027164,0.00123462,-0.00026132,-0.00571232,0.00067532,0.00052263
 ,-0.00159816,-0.00167580,-0.00173794,-0.02405781,0.05369657,0.00200774
 ,-0.17267723,0.24267279,0.02521796,0.17779516,0.00133826,-0.00015644,-
 0.00059307,-0.00032984,-0.00105051,0.00003356,-0.00256807,0.00146262,0
 .00023110,0.00124798,0.00119970,0.00113927,0.04061923,-0.03067692,-0.0
 0489000,0.22871573,-0.72951659,-0.07486350,-0.26096415,0.86198375,-0.0
 0000332,0.00023701,-0.00000934,0.00005105,0.00010691,-0.00013922,-0.00
 200275,0.00121664,-0.00222836,-0.00055047,-0.00034933,-0.00003923,0.00
 250783,-0.00401352,0.02598883,0.02282589,-0.07213555,-0.07019314,-0.02
 194802,0.09873581,0.02513108,-0.00279362,0.00068788,0.00123232,0.00118
 065,0.00138414,-0.00051263,0.00182572,0.00321845,0.00124376,-0.0011943
 4,-0.00210780,-0.00154405,-0.06126124,-0.03692101,-0.01349550,-0.20218
 839,-0.13366717,-0.03151909,0.02593976,-0.01732448,-0.00466445,0.53723
 090,-0.00079968,0.00021460,0.00047857,0.00027874,0.00036754,-0.0001749
 8,0.00200854,0.00035880,0.00050032,-0.00026787,-0.00107515,-0.00071778
 ,-0.00988276,0.00167885,-0.00223028,-0.09145038,-0.23719875,-0.0337299
 8,-0.02998916,-0.10260503,-0.02357286,0.11718651,0.42051079,-0.0003977
 6,0.00016537,0.00022349,0.00018333,0.00019760,-0.00010808,0.00039425,0
 .00062237,-0.00069305,-0.00026128,-0.00047767,-0.00031689,-0.00819522,
 -0.00527818,0.01193933,-0.02723604,-0.03887422,-0.06834603,-0.00548399
 ,-0.02179443,0.02630232,0.05950380,0.06154872,0.08782956,0.00099315,-0
 .00015235,-0.00048812,-0.00038976,-0.00056203,0.00015628,0.00060006,-0
 .00150026,-0.00047124,0.00056341,0.00088001,0.00064502,0.00456146,0.00
 050649,0.00141609,-0.05790000,-0.02623623,-0.01196103,-0.00028320,0.01
 753029,0.00271693,-0.19925751,0.01149668,-0.01603372,0.47646776,-0.000
 07094,0.00002173,0.00002581,0.00004445,0.00000474,-0.00002404,-0.00001
 999,0.00021950,0.00020888,0.00005174,0.00006355,-0.00001763,-0.0034896
 2,-0.00290475,-0.00191318,-0.04246414,0.00799765,-0.00454361,-0.000788
 45,-0.00246502,0.00021085,0.04602065,-0.09049281,0.00332964,0.04774588
 ,0.65587912,0.00010873,0.00005540,-0.00009186,0.00001168,-0.00000932,0
 .00005280,-0.00003588,0.00016827,-0.00103137,-0.00009725,0.00000992,0.
 00004047,-0.00127896,-0.00206454,0.00747697,-0.01383107,-0.00635246,-0
 .00184894,-0.00217423,0.00270563,-0.00492362,-0.00973995,0.00138806,-0
 .06330279,0.03827186,0.00145106,0.55534603,-0.00026288,0.00004211,0.00
 012201,0.00009786,0.00013066,-0.00004109,0.00008888,0.00007831,0.00024
 308,-0.00008315,-0.00018535,-0.00014763,-0.00078626,-0.00020776,-0.001
 92203,0.00220076,0.00751112,0.00366977,0.00036961,-0.00296845,0.000686
 45,-0.04049488,0.00286203,0.03744276,-0.08923383,0.00008875,0.03218355
 ,0.58217290,0.00003601,-0.00000120,-0.00003066,-0.00000796,-0.00001140
 ,0.00002075,0.00008396,-0.00018052,-0.00013918,0.00002060,0.00003671,0
 .00002064,0.00020835,0.00012852,0.00067931,-0.00155919,0.00048995,0.00
 069857,0.00086769,0.00065409,-0.00096132,0.00677054,0.00260446,-0.0046
 9376,-0.00034977,-0.08999634,-0.00839667,0.00406101,0.60248466,-0.0000
 4776,0.00001733,0.00001642,0.00001878,0.00003000,-0.00000921,-0.000079
 09,0.00001015,0.00016889,-0.00001679,-0.00005718,-0.00002714,0.0002518
 6,0.00003995,-0.00072192,-0.00020813,0.00456605,0.00189480,0.00173699,
 -0.00129279,-0.00128472,-0.00046187,-0.00301363,0.00592437,0.04511964,
 -0.00901252,-0.20393613,0.04013534,-0.00583047,0.52237382,-0.00015721,
 0.00005558,0.00007168,0.00006810,0.00007920,-0.00003046,-0.00015438,0.
 00032260,0.00007571,-0.00007176,-0.00015264,-0.00010408,-0.00128286,-0
 .00124259,0.00003937,-0.00444704,0.00566570,-0.00165515,0.00157359,-0.
 00097275,0.00019806,-0.03392562,-0.03195583,-0.01775755,-0.07498540,-0
 .07009981,-0.04444166,0.00699097,0.01223894,0.00832714,0.10254008,-0.0
 0004365,-0.00001095,0.00002971,0.00001155,0.00002018,-0.00001278,-0.00
 000029,-0.00000671,0.00008941,-0.00002505,-0.00001536,-0.00003402,0.00
 007748,0.00036251,-0.00040098,0.00310504,-0.00145685,0.00017833,-0.001
 95177,0.00093303,-0.00030846,0.00728025,0.00696849,0.00505909,-0.08332
 689,-0.23695413,-0.10992536,0.00010304,0.00036137,0.00110705,0.0836783
 7,0.24734283,-0.00001651,0.00001281,-0.00000044,0.00000880,0.00000602,
 -0.00000197,0.00000758,0.00003927,0.00000408,-0.00001707,-0.00001769,0
 .00000388,-0.00027554,-0.00012320,0.00004337,0.00087309,0.00254516,0.0
 0043047,0.00099588,-0.00026173,0.00043022,-0.00235027,-0.00263692,0.00
 042921,-0.04977748,-0.10758408,-0.11939263,-0.00927731,-0.02672236,-0.
 01728695,0.05044199,0.11905311,0.12772836,-0.00008604,0.00004908,0.000
 04119,0.00004912,0.00006144,-0.00001465,0.00016024,-0.00003809,-0.0000
 0116,-0.00006427,-0.00010249,-0.00007424,-0.00032518,-0.00034304,0.000
 66380,0.00191143,0.00895301,0.00047437,0.00083028,-0.00352472,-0.00051
 021,-0.02817754,0.03139412,-0.02269586,-0.05328590,0.02075232,-0.01609
 686,0.00415021,-0.01254784,0.00913302,0.00382082,-0.00956527,0.0071067
 9,0.07144358,0.00005806,0.00001623,-0.00005526,-0.00001128,-0.00001869
 ,0.00002006,0.00001856,-0.00001485,-0.00014974,0.00000723,0.00000768,0
 .00005766,0.00038273,-0.00015051,0.00075493,-0.00286551,-0.00088171,-0
 .00085780,-0.00181687,0.00003821,-0.00112327,0.00700106,-0.00248604,0.
 00103304,0.03196116,-0.24322724,0.12462990,-0.00105290,0.00454491,-0.0
 0425934,0.00304230,-0.01946442,0.01491492,-0.03641738,0.26024573,0.000
 03840,0.00000185,-0.00001602,-0.00000699,-0.00002175,0.00000765,0.0001
 7561,-0.00010784,0.00003298,0.00003344,0.00004072,0.00002330,0.0000574
 0,-0.00021840,-0.00018934,-0.00084118,0.00353976,0.00138709,0.00191525
 ,-0.00138351,-0.00021315,-0.00271002,0.00074385,0.00038004,-0.02122395
 ,0.12031820,-0.13159337,-0.00240702,0.02676850,-0.01844928,0.00283973,
 -0.01463913,0.01018808,0.02016632,-0.13406353,0.14102960,-0.00011080,0
 .00001920,0.00005456,0.00004598,0.00006188,-0.00001804,0.00004418,0.00
 004007,0.00006916,-0.00006448,-0.00008874,-0.00007275,-0.00025712,0.00
 001980,-0.00030417,0.00173936,0.00162051,0.00016203,-0.00012512,-0.000
 63003,0.00024309,-0.00103763,-0.00090683,0.00335199,-0.01363841,0.0012
 6782,-0.00518781,-0.31874644,0.02835456,-0.02275381,0.00036501,0.00038
 160,0.00011786,0.00018691,-0.00044287,0.00025634,0.34859238,-0.0000002
 0,-0.00000216,0.00000039,-0.00000119,0.00000110,-0.00000011,-0.0000265
 7,-0.00000086,0.00005083,0.00000114,0.00000280,-0.00000029,0.00003940,
 0.00007421,-0.00024287,0.00011106,-0.00116940,-0.00040109,-0.00045558,
 0.00026299,0.00062680,0.00112179,0.00115658,-0.00076186,0.00245712,-0.
 00127758,0.00087751,0.02796579,-0.05042188,0.00220416,-0.00009009,-0.0
 0018396,0.00004636,-0.00002314,-0.00004524,0.00008219,-0.03172747,0.05
 047307,0.00004034,-0.00000764,-0.00001249,-0.00001365,-0.00002418,0.00
 000550,0.00003907,-0.00002481,-0.00007001,0.00001141,0.00003368,0.0000
 1761,0.00021914,0.00013782,0.00051912,-0.00044686,-0.00298632,-0.00141
 608,-0.00055939,0.00114037,0.00029763,0.00688106,0.00043481,-0.0061371
 2,0.03130890,-0.00321303,0.00472569,-0.02563662,0.00283954,-0.05158540
 ,-0.00075932,-0.00058434,0.00118004,-0.00067899,0.00086038,0.00092805,
 0.02456622,-0.00230564,0.05407503,0.00006905,-0.00001461,-0.00004034,-
 0.00003089,-0.00003612,0.00001443,-0.00007938,0.00000277,-0.00004466,0
 .00003830,0.00004882,0.00005109,0.00009915,0.00002069,0.00007402,-0.00
 074095,-0.00169362,-0.00012322,-0.00036500,0.00064963,0.00022453,0.002
 51555,0.00004251,-0.00120091,0.00097949,-0.01243958,0.01152319,-0.0593
 4050,0.04380650,-0.03050519,0.00019051,0.00012184,-0.00099153,-0.00070
 137,0.00028874,0.00277628,-0.00547432,0.02872883,-0.01863687,0.0603126
 3,-0.00001174,-0.00000237,-0.00000646,0.00000068,0.00000987,0.00000562
 ,-0.00007938,0.00003187,0.00001359,-0.00001029,-0.00001521,-0.00000008
 ,-0.00008901,0.00009197,-0.00015971,0.00037009,-0.00074610,0.00034508,
 -0.00061130,0.00028135,0.00035705,-0.00139385,0.00014121,-0.00034416,0
 .00071891,0.00382685,-0.00394140,0.04320467,-0.23959082,0.12157513,-0.
 00048035,0.00076031,0.00033475,0.00084232,0.00096062,-0.00118806,-0.00
 085271,-0.00252980,0.00076606,-0.04845694,0.25726378,0.00000629,-0.000
 00979,0.00000002,-0.00000458,-0.00000148,0.00000064,0.00002974,-0.0000
 6005,0.00003704,0.00000476,0.00002078,-0.00000302,0.00003842,0.0001169
 5,-0.00017248,0.00011030,0.00045926,0.00013059,-0.00004647,-0.00036697
 ,0.00013068,-0.00196754,-0.00103974,0.00315949,-0.00604685,0.02963005,
 -0.02205771,-0.02779997,0.11874763,-0.12637117,-0.00050899,-0.00015267
 ,0.00114094,0.00291610,-0.00179931,-0.00473094,0.00001866,0.00162720,-
 0.00133709,0.02944930,-0.13317755,0.14085324,0.00011443,-0.00002053,-0
 .00005905,-0.00004486,-0.00005795,0.00002073,-0.00003603,-0.00005549,-
 0.00006242,0.00006144,0.00009867,0.00006306,0.00016998,-0.00009697,0.0
 0026581,-0.00160621,0.00073260,0.00048596,-0.00025930,-0.00081865,0.00
 022538,0.00163817,-0.00001660,-0.00161379,0.00480869,0.01340092,0.0107
 8467,-0.08712326,-0.08198339,-0.05065012,-0.00052481,0.00015375,0.0031
 5373,0.00008771,-0.00015305,-0.00106961,-0.01151949,-0.02810089,-0.016
 33444,0.00252774,0.00684889,0.00380085,0.09170579,-0.00003826,0.000011
 72,0.00003068,0.00001528,0.00001189,-0.00001427,0.00000088,0.00002345,
 0.00003234,-0.00001195,-0.00003083,-0.00002717,0.00003350,0.00001581,-
 0.00013378,0.00041520,-0.00010910,-0.00068022,-0.00065914,-0.00034522,
 0.00097326,0.00074303,-0.00014354,0.00026843,-0.00116899,-0.00069527,-
 0.00059599,-0.08163303,-0.23110251,-0.10608390,-0.00008862,0.00134366,
 0.00039357,0.00050966,0.00047533,0.00012715,0.00288321,0.00366014,0.00
 293329,-0.01106946,-0.02048353,-0.01399430,0.09006869,0.24736802,-0.00
 006563,0.00000219,0.00002941,0.00001844,0.00003532,-0.00000659,-0.0000
 8757,0.00008244,0.00005837,-0.00003254,-0.00006141,-0.00004486,-0.0000
 5485,0.00024221,-0.00034006,0.00161908,-0.00288179,-0.00048995,-0.0013
 6749,0.00146027,0.00075005,0.00010444,0.00202184,0.00271613,-0.0136323
 2,-0.02886640,-0.01946354,-0.04725127,-0.10300051,-0.11070636,0.003263
 52,0.00054104,-0.00489666,-0.00042962,0.00003733,0.00121531,-0.0005033
 2,-0.00180359,-0.00119048,0.00742990,0.01542014,0.00921980,0.05098924,
 0.11677092,0.12314944\\-0.00662055,0.00168876,-0.00613489,-0.00627077,
 -0.01691243,0.00161204,-0.02176587,0.00136019,-0.00114745,0.00995221,0
 .01790152,0.00460541,0.02602769,-0.00265283,0.00175857,-0.04513118,0.0
 2883689,-0.00108997,0.02096314,-0.04669350,-0.00442942,0.00322746,0.01
 508874,0.00283498,0.01729775,0.00285346,0.00346153,0.00040901,-0.00003
 470,-0.00020036,0.00039050,0.00062214,0.00047024,0.00050011,-0.0014716
 2,0.00067694,0.00145880,-0.00028667,-0.00042835,-0.00025274,0.00091698
 ,-0.00078735,-0.00018557,-0.00121693,-0.00120193\\\@


 NOTHING PUZZLES ME MORE THAN TIME AND SPACE; AND YET NOTHING TROUBLES ME LESS
                                                          -- CHARLES LAMB (1810)
 Job cpu time:       0 days  0 hours 17 minutes 19.2 seconds.
 Elapsed time:       0 days  0 hours  0 minutes 43.4 seconds.
 File lengths (MBytes):  RWF=     59 Int=      0 D2E=      0 Chk=      8 Scr=      1
 Normal termination of Gaussian 16 at Fri Jun 20 12:27:49 2025.
