 Entering Gaussian System, Link 0=g16
 Initial command:
 /opt/g16/l1.exe "/home/aayush/scratches/g16/Gau-4458.inp" -scrdir="/home/aayush/scratches/g16/"
 Entering Link 1 = /opt/g16/l1.exe PID=      4461.
  
 Copyright (c) 1988,1990,1992,1993,1995,1998,2003,2009,2016,
            Gaussian, Inc.  All Rights Reserved.
  
 This is part of the Gaussian(R) 16 program.  It is based on
 the Gaussian(R) 09 system (copyright 2009, Gaussian, Inc.),
 the Gaussian(R) 03 system (copyright 2003, Gaussian, Inc.),
 the Gaussian(R) 98 system (copyright 1998, Gaussian, Inc.),
 the Gaussian(R) 94 system (copyright 1995, Gaussian, Inc.),
 the Gaussian 92(TM) system (copyright 1992, Gaussian, Inc.),
 the Gaussian 90(TM) system (copyright 1990, Gaussian, Inc.),
 the Gaussian 88(TM) system (copyright 1988, Gaussian, Inc.),
 the Gaussian 86(TM) system (copyright 1986, Carnegie Mellon
 University), and the Gaussian 82(TM) system (copyright 1983,
 Carnegie Mellon University). Gaussian is a federally registered
 trademark of Gaussian, Inc.
  
 This software contains proprietary and confidential information,
 including trade secrets, belonging to Gaussian, Inc.
  
 This software is provided under written license and may be
 used, copied, transmitted, or stored only in accord with that
 written license.
  
 The following legend is applicable only to US Government
 contracts under FAR:
  
                    RESTRICTED RIGHTS LEGEND
  
 Use, reproduction and disclosure by the US Government is
 subject to restrictions as set forth in subparagraphs (a)
 and (c) of the Commercial Computer Software - Restricted
 Rights clause in FAR 52.227-19.
  
 Gaussian, Inc.
 340 Quinnipiac St., Bldg. 40, Wallingford CT 06492
  
  
 ---------------------------------------------------------------
 Warning -- This program may not be used in any manner that
 competes with the business of Gaussian, Inc. or will provide
 assistance to any competitor of Gaussian, Inc.  The licensee
 of this program is prohibited from giving any competitor of
 Gaussian, Inc. access to this program.  By using this program,
 the user acknowledges that Gaussian, Inc. is engaged in the
 business of creating and licensing software in the field of
 computational chemistry and represents and warrants to the
 licensee that it is not a competitor of Gaussian, Inc. and that
 it will not use this program in any manner prohibited above.
 ---------------------------------------------------------------
  

 Cite this work as:
 Gaussian 16, Revision A.03,
 M. J. Frisch, G. W. Trucks, H. B. Schlegel, G. E. Scuseria, 
 M. A. Robb, J. R. Cheeseman, G. Scalmani, V. Barone, 
 G. A. Petersson, H. Nakatsuji, X. Li, M. Caricato, A. V. Marenich, 
 J. Bloino, B. G. Janesko, R. Gomperts, B. Mennucci, H. P. Hratchian, 
 J. V. Ortiz, A. F. Izmaylov, J. L. Sonnenberg, D. Williams-Young, 
 F. Ding, F. Lipparini, F. Egidi, J. Goings, B. Peng, A. Petrone, 
 T. Henderson, D. Ranasinghe, V. G. Zakrzewski, J. Gao, N. Rega, 
 G. Zheng, W. Liang, M. Hada, M. Ehara, K. Toyota, R. Fukuda, 
 J. Hasegawa, M. Ishida, T. Nakajima, Y. Honda, O. Kitao, H. Nakai, 
 T. Vreven, K. Throssell, J. A. Montgomery, Jr., J. E. Peralta, 
 F. Ogliaro, M. J. Bearpark, J. J. Heyd, E. N. Brothers, K. N. Kudin, 
 V. N. Staroverov, T. A. Keith, R. Kobayashi, J. Normand, 
 K. Raghavachari, A. P. Rendell, J. C. Burant, S. S. Iyengar, 
 J. Tomasi, M. Cossi, J. M. Millam, M. Klene, C. Adamo, R. Cammi, 
 J. W. Ochterski, R. L. Martin, K. Morokuma, O. Farkas, 
 J. B. Foresman, and D. J. Fox, Gaussian, Inc., Wallingford CT, 2016.
 
 ******************************************
 Gaussian 16:  ES64L-G16RevA.03 25-Dec-2016
                17-Aug-2025 
 ******************************************
 %chk=ethyl_propiolate.chk
 %nprocshared=24
 Will use up to   24 processors via shared memory.
 %mem=12GB
 --------------------------
 # ccsd(t)/6-311++g(d,p) sp
 --------------------------
 1/38=1,172=1/1;
 2/12=2,17=6,18=5,40=1/2;
 3/5=4,6=6,7=1111,11=9,25=1,30=1/1,2,3;
 4//1;
 5/5=2,38=5/2;
 8/6=4,9=120000,10=2/1,4;
 9/5=7,14=2/13;
 6/7=2,8=2,9=2,10=2/1;
 99/5=1,9=1/99;
 -------------------
 Title Card Required
 -------------------
 Symbolic Z-matrix:
 Charge =  0 Multiplicity = 2
 O                     4.50244  -0.26542   0.33992 
 H                     4.52671   0.6144   -0.05401 
 C                     2.18948  -0.32176  -0.06144 
 H                     3.80725  -0.75412  -0.15151 
 C                     1.03341   0.01739  -0.09228 
 C                    -0.36945   0.39036  -0.17862 
 O                    -0.75326   1.51932  -0.05062 
 O                    -1.13595  -0.67048  -0.41282 
 C                    -2.55439  -0.42     -0.49785 
 C                    -3.16832  -0.29737   0.88261 
 H                    -2.94162  -1.2826   -1.03682 
 H                    -2.71433   0.4821   -1.08946 
 H                    -4.25021  -0.18365   0.79156 
 H                    -2.96302  -1.19265   1.4712 
 H                    -2.7738    0.5746    1.40448 
 
                          Input orientation:                          
 ---------------------------------------------------------------------
 Center     Atomic      Atomic             Coordinates (Angstroms)
 Number     Number       Type             X           Y           Z
 ---------------------------------------------------------------------
      1          8           0        4.502441   -0.265422    0.339923
      2          1           0        4.526714    0.614400   -0.054005
      3          6           0        2.189480   -0.321764   -0.061440
      4          1           0        3.807249   -0.754124   -0.151509
      5          6           0        1.033405    0.017390   -0.092282
      6          6           0       -0.369446    0.390357   -0.178620
      7          8           0       -0.753255    1.519317   -0.050615
      8          8           0       -1.135951   -0.670481   -0.412822
      9          6           0       -2.554394   -0.419997   -0.497848
     10          6           0       -3.168315   -0.297373    0.882612
     11          1           0       -2.941619   -1.282597   -1.036817
     12          1           0       -2.714333    0.482095   -1.089463
     13          1           0       -4.250210   -0.183650    0.791562
     14          1           0       -2.963016   -1.192654    1.471198
     15          1           0       -2.773797    0.574601    1.404482
 ---------------------------------------------------------------------
                    Distance matrix (angstroms):
                    1          2          3          4          5
     1  O    0.000000
     2  H    0.964290   0.000000
     3  C    2.348203   2.517761   0.000000
     4  H    0.981645   1.549192   1.676969   0.000000
     5  C    3.507277   3.544163   1.205191   2.879749   0.000000
     6  C    4.943098   4.902867   2.658750   4.330745   1.454149
     7  O    5.564185   5.356954   3.471223   5.096755   2.334454
     8  O    5.702821   5.817684   3.362077   4.950809   2.298264
     9  C    7.108071   7.170011   4.764918   6.379819   3.637045
    10  C    7.689995   7.805258   5.440386   7.066578   4.324806
    11  H    7.638330   7.767916   5.310625   6.827172   4.287532
    12  H    7.394846   7.315903   5.074485   6.703658   3.905875
    13  H    8.764677   8.853602   6.497407   8.132495   5.360801
    14  H    7.607404   7.854155   5.445700   6.975814   4.458706
    15  H    7.401524   7.444879   5.252287   6.891791   4.128629
                    6          7          8          9         10
     6  C    0.000000
     7  O    1.199269   0.000000
     8  O    1.329571   2.252302   0.000000
     9  C    2.352143   2.684224   1.442897   0.000000
    10  C    3.071295   3.162877   2.438824   1.515785   0.000000
    11  H    3.186119   3.689479   2.006114   1.088352   2.169393
    12  H    2.517250   2.449666   2.068227   1.090577   2.168582
    13  H    4.041171   3.979705   3.374338   2.143415   1.091659
    14  H    3.457518   3.814937   2.675885   2.154324   1.090921
    15  H    2.884625   2.663153   2.745061   2.157828   1.090106
                   11         12         13         14         15
    11  H    0.000000
    12  H    1.780047   0.000000
    13  H    2.502612   2.518013   0.000000
    14  H    2.509718   3.069790   1.771119   0.000000
    15  H    3.072017   2.496368   1.769297   1.778608   0.000000
 Stoichiometry    C5H7O3(2)
 Framework group  C1[X(C5H7O3)]
 Deg. of freedom    39
 Full point group                 C1      NOp   1
 Largest Abelian subgroup         C1      NOp   1
 Largest concise Abelian subgroup C1      NOp   1
                         Standard orientation:                         
 ---------------------------------------------------------------------
 Center     Atomic      Atomic             Coordinates (Angstroms)
 Number     Number       Type             X           Y           Z
 ---------------------------------------------------------------------
      1          8           0        4.561890   -0.244269    0.332596
      2          1           0        4.585262    0.634240   -0.064305
      3          6           0        2.249241   -0.304959   -0.069928
      4          1           0        3.867618   -0.735534   -0.157580
      5          6           0        1.092748    0.032596   -0.102599
      6          6           0       -0.310531    0.403457   -0.191025
      7          8           0       -0.695870    1.532349   -0.067081
      8          8           0       -1.075530   -0.659159   -0.422070
      9          6           0       -2.494245   -0.410796   -0.508777
     10          6           0       -3.109137   -0.284276    0.870898
     11          1           0       -2.880040   -1.275721   -1.045039
     12          1           0       -2.654997    0.489074   -1.103548
     13          1           0       -4.191124   -0.172259    0.778829
     14          1           0       -2.903032   -1.177286    1.462643
     15          1           0       -2.716051    0.589975    1.390034
 ---------------------------------------------------------------------
 Rotational constants (GHZ):           6.2695310           0.6870877           0.6588135
 Standard basis: 6-311++G(d,p) (5D, 7F)
 There are   233 symmetry adapted cartesian basis functions of A   symmetry.
 There are   225 symmetry adapted basis functions of A   symmetry.
   225 basis functions,   351 primitive gaussians,   233 cartesian basis functions
    31 alpha electrons       30 beta electrons
       nuclear repulsion energy       334.9128738215 Hartrees.
 NAtoms=   15 NActive=   15 NUniq=   15 SFac= 1.00D+00 NAtFMM=   60 NAOKFM=F Big=F
 Integral buffers will be    131072 words long.
 Raffenetti 2 integral format.
 Two-electron integral symmetry is turned on.
 One-electron integrals computed using PRISM.
 NBasis=   225 RedAO= T EigKep=  5.02D-06  NBF=   225
 NBsUse=   224 1.00D-06 EigRej=  3.37D-07 NBFU=   224
 ExpMin= 3.60D-02 ExpMax= 8.59D+03 ExpMxC= 1.30D+03 IAcc=3 IRadAn=         5 AccDes= 0.00D+00
 Harris functional with IExCor=  205 and IRadAn=       5 diagonalized for initial guess.
 HarFok:  IExCor=  205 AccDes= 0.00D+00 IRadAn=         5 IDoV= 1 UseB2=F ITyADJ=14
 ICtDFT=  3500011 ScaDFX=  1.000000  1.000000  1.000000  1.000000
 FoFCou: FMM=F IPFlag=           0 FMFlag=      100000 FMFlg1=           0
         NFxFlg=           0 DoJE=T BraDBF=F KetDBF=T FulRan=T
         wScrn=  0.000000 ICntrl=       500 IOpCl=  0 I1Cent=   200000004 NGrid=           0
         NMat0=    1 NMatS0=      1 NMatT0=    0 NMatD0=    1 NMtDS0=    0 NMtDT0=    0
 Petite list used in FoFCou.
 Initial guess <Sx>= 0.0000 <Sy>= 0.0000 <Sz>= 0.5000 <S**2>= 0.7500 S= 0.5000
 Requested convergence on RMS density matrix=1.00D-08 within 128 cycles.
 Requested convergence on MAX density matrix=1.00D-06.
 Requested convergence on             energy=1.00D-06.
 No special actions if energy rises.
 Initial convergence to 1.0D-05 achieved.  Increase integral accuracy.
 SCF Done:  E(UHF) =  -417.945065495     A.U. after   30 cycles
            NFock= 30  Conv=0.54D-08     -V/T= 2.0005
 <Sx>= 0.0000 <Sy>= 0.0000 <Sz>= 0.5000 <S**2>= 1.1746 S= 0.6936
 <L.S>=  0.00000000000    
 Annihilation of the first spin contaminant:
 S**2 before annihilation     1.1746,   after     0.8826
 ExpMin= 3.60D-02 ExpMax= 8.59D+03 ExpMxC= 1.30D+03 IAcc=3 IRadAn=         5 AccDes= 0.00D+00
 HarFok:  IExCor=  205 AccDes= 0.00D+00 IRadAn=         5 IDoV=-2 UseB2=F ITyADJ=14
 ICtDFT= 12500011 ScaDFX=  1.000000  1.000000  1.000000  1.000000
 Range of M.O.s used for correlation:     9   224
 NBasis=   225 NAE=    31 NBE=    30 NFC=     8 NFV=     0
 NROrb=    216 NOA=    23 NOB=    22 NVA=   193 NVB=   194

 **** Warning!!: The largest alpha MO coefficient is  0.11570182D+03


 **** Warning!!: The largest beta MO coefficient is  0.99133238D+02

 Semi-Direct transformation.
 ModeAB=           4 MOrb=            23 LenV=    1609195053
 LASXX=    107793295 LTotXX=   107793295 LenRXX=   218294035
 LTotAB=   110500740 MaxLAS=   121000608 LenRXY=           0
 NonZer=   326087330 LenScr=   491049984 LnRSAI=   121000608
 LnScr1=   182258688 LExtra=           0 Total=   1012603315
 MaxDsk=          -1 SrtSym=           T ITran=            4
 JobTyp=1 Pass  1:  I=   1 to  23.
 (rs|ai) integrals will be sorted in core.
 ModeAB=           4 MOrb=            22 LenV=    1609195053
 LASXX=    103454307 LTotXX=   103454307 LenRXX=   188091948
 LTotAB=    84637641 MaxLAS=   115739712 LenRXY=           0
 NonZer=   291546255 LenScr=   439034880 LnRSAI=   115739712
 LnScr1=   174377984 LExtra=           0 Total=    917244524
 MaxDsk=          -1 SrtSym=           T ITran=            4
 JobTyp=2 Pass  1:  I=   1 to  22.
 (rs|ai) integrals will be sorted in core.
 SymMOI:  orbitals are not symmetric.
 Spin components of T(2) and E(2):
     alpha-alpha T2 =       0.5241250595D-01 E2=     -0.1701581735D+00
     alpha-beta  T2 =       0.2786140816D+00 E2=     -0.9272331561D+00
     beta-beta   T2 =       0.5071499299D-01 E2=     -0.1631019962D+00
 ANorm=    0.1175475045D+01
 E2 =    -0.1260493326D+01 EUMP2 =    -0.41920555882039D+03
 (S**2,0)=  0.11746D+01           (S**2,1)=  0.10823D+01
 E(PUHF)=      -0.41797257537D+03        E(PMP2)=      -0.41923054366D+03
 Keep R2 and R3 ints in memory in canonical form, NReq=652883968.
 CIDS: In Core Option IDoMem=           1.
 Iterations=  50 Convergence= 0.100D-06
 Produce multiple copies of IABC intergrals
 Iteration Nr.   1
 **********************
 DD1Dir will call FoFMem   1 times, MxPair=      1496
 NAB=   506 NAA=   253 NBB=   231.
 E(PMP3)=      -0.41925045708D+03
 MP4(R+Q)=  0.23245097D-01
 E3=       -0.24493521D-01        EUMP3=      -0.41923005234D+03
 E4(DQ)=   -0.68701265D-02        UMP4(DQ)=   -0.41923692247D+03
 E4(SDQ)=  -0.29260872D-01        UMP4(SDQ)=  -0.41925931321D+03
 DE(Corr)=  -1.2614354     E(Corr)=     -419.20650090    
 NORM(A)=   0.11853954D+01
 Iteration Nr.   2
 **********************
 DD1Dir will call FoFMem   1 times, MxPair=      1496
 NAB=   506 NAA=   253 NBB=   231.
 DE(Corr)=  -1.3055727     E(CORR)=     -419.25063823     Delta=-4.41D-02
 NORM(A)=   0.12096706D+01
 Iteration Nr.   3
 **********************
 DD1Dir will call FoFMem   1 times, MxPair=      1496
 NAB=   506 NAA=   253 NBB=   231.
 DE(Corr)=  -1.3100746     E(CORR)=     -419.25514013     Delta=-4.50D-03
 NORM(A)=   0.12289955D+01
 Iteration Nr.   4
 **********************
 DD1Dir will call FoFMem   1 times, MxPair=      1496
 NAB=   506 NAA=   253 NBB=   231.
 DE(Corr)=  -1.3200239     E(CORR)=     -419.26508941     Delta=-9.95D-03
 NORM(A)=   0.12456387D+01
 Iteration Nr.   5
 **********************
 DD1Dir will call FoFMem   1 times, MxPair=      1496
 NAB=   506 NAA=   253 NBB=   231.
 DE(Corr)=  -1.3240451     E(CORR)=     -419.26911062     Delta=-4.02D-03
 NORM(A)=   0.12547582D+01
 Iteration Nr.   6
 **********************
 DD1Dir will call FoFMem   1 times, MxPair=      1496
 NAB=   506 NAA=   253 NBB=   231.
 DE(Corr)=  -1.3254575     E(CORR)=     -419.27052301     Delta=-1.41D-03
 NORM(A)=   0.12567453D+01
 Iteration Nr.   7
 **********************
 DD1Dir will call FoFMem   1 times, MxPair=      1496
 NAB=   506 NAA=   253 NBB=   231.
 DE(Corr)=  -1.3257045     E(CORR)=     -419.27077000     Delta=-2.47D-04
 NORM(A)=   0.12576308D+01
 Iteration Nr.   8
 **********************
 DD1Dir will call FoFMem   1 times, MxPair=      1496
 NAB=   506 NAA=   253 NBB=   231.
 DE(Corr)=  -1.3256571     E(CORR)=     -419.27072256     Delta= 4.74D-05
 NORM(A)=   0.12582286D+01
 Iteration Nr.   9
 **********************
 DD1Dir will call FoFMem   1 times, MxPair=      1496
 NAB=   506 NAA=   253 NBB=   231.
 DE(Corr)=  -1.3256681     E(CORR)=     -419.27073361     Delta=-1.10D-05
 NORM(A)=   0.12586912D+01
 Iteration Nr.  10
 **********************
 DD1Dir will call FoFMem   1 times, MxPair=      1496
 NAB=   506 NAA=   253 NBB=   231.
 DE(Corr)=  -1.3255836     E(CORR)=     -419.27064906     Delta= 8.46D-05
 NORM(A)=   0.12590977D+01
 Iteration Nr.  11
 **********************
 DD1Dir will call FoFMem   1 times, MxPair=      1496
 NAB=   506 NAA=   253 NBB=   231.
 DE(Corr)=  -1.3256283     E(CORR)=     -419.27069378     Delta=-4.47D-05
 NORM(A)=   0.12595452D+01
 Iteration Nr.  12
 **********************
 DD1Dir will call FoFMem   1 times, MxPair=      1496
 NAB=   506 NAA=   253 NBB=   231.
 DE(Corr)=  -1.3256638     E(CORR)=     -419.27072932     Delta=-3.55D-05
 NORM(A)=   0.12600037D+01
 Iteration Nr.  13
 **********************
 DD1Dir will call FoFMem   1 times, MxPair=      1496
 NAB=   506 NAA=   253 NBB=   231.
 DE(Corr)=  -1.3257340     E(CORR)=     -419.27079949     Delta=-7.02D-05
 NORM(A)=   0.12603535D+01
 Iteration Nr.  14
 **********************
 DD1Dir will call FoFMem   1 times, MxPair=      1496
 NAB=   506 NAA=   253 NBB=   231.
 DE(Corr)=  -1.3257947     E(CORR)=     -419.27086021     Delta=-6.07D-05
 NORM(A)=   0.12605999D+01
 Iteration Nr.  15
 **********************
 DD1Dir will call FoFMem   1 times, MxPair=      1496
 NAB=   506 NAA=   253 NBB=   231.
 DE(Corr)=  -1.3258309     E(CORR)=     -419.27089639     Delta=-3.62D-05
 NORM(A)=   0.12607261D+01
 Iteration Nr.  16
 **********************
 DD1Dir will call FoFMem   1 times, MxPair=      1496
 NAB=   506 NAA=   253 NBB=   231.
 DE(Corr)=  -1.3258535     E(CORR)=     -419.27091900     Delta=-2.26D-05
 NORM(A)=   0.12608016D+01
 Iteration Nr.  17
 **********************
 DD1Dir will call FoFMem   1 times, MxPair=      1496
 NAB=   506 NAA=   253 NBB=   231.
 DE(Corr)=  -1.3258620     E(CORR)=     -419.27092750     Delta=-8.50D-06
 NORM(A)=   0.12608297D+01
 Iteration Nr.  18
 **********************
 DD1Dir will call FoFMem   1 times, MxPair=      1496
 NAB=   506 NAA=   253 NBB=   231.
 DE(Corr)=  -1.3258643     E(CORR)=     -419.27092984     Delta=-2.33D-06
 NORM(A)=   0.12608416D+01
 Iteration Nr.  19
 **********************
 DD1Dir will call FoFMem   1 times, MxPair=      1496
 NAB=   506 NAA=   253 NBB=   231.
 DE(Corr)=  -1.3258632     E(CORR)=     -419.27092868     Delta= 1.15D-06
 NORM(A)=   0.12608571D+01
 Iteration Nr.  20
 **********************
 DD1Dir will call FoFMem   1 times, MxPair=      1496
 NAB=   506 NAA=   253 NBB=   231.
 DE(Corr)=  -1.3258620     E(CORR)=     -419.27092746     Delta= 1.22D-06
 NORM(A)=   0.12608707D+01
 Iteration Nr.  21
 **********************
 DD1Dir will call FoFMem   1 times, MxPair=      1496
 NAB=   506 NAA=   253 NBB=   231.
 DE(Corr)=  -1.3258609     E(CORR)=     -419.27092643     Delta= 1.03D-06
 NORM(A)=   0.12608920D+01
 Iteration Nr.  22
 **********************
 DD1Dir will call FoFMem   1 times, MxPair=      1496
 NAB=   506 NAA=   253 NBB=   231.
 DE(Corr)=  -1.3258612     E(CORR)=     -419.27092665     Delta=-2.24D-07
 NORM(A)=   0.12609125D+01
 Iteration Nr.  23
 **********************
 DD1Dir will call FoFMem   1 times, MxPair=      1496
 NAB=   506 NAA=   253 NBB=   231.
 DE(Corr)=  -1.3258627     E(CORR)=     -419.27092818     Delta=-1.52D-06
 NORM(A)=   0.12609326D+01
 Iteration Nr.  24
 **********************
 DD1Dir will call FoFMem   1 times, MxPair=      1496
 NAB=   506 NAA=   253 NBB=   231.
 DE(Corr)=  -1.3258647     E(CORR)=     -419.27093023     Delta=-2.05D-06
 NORM(A)=   0.12609447D+01
 Iteration Nr.  25
 **********************
 DD1Dir will call FoFMem   1 times, MxPair=      1496
 NAB=   506 NAA=   253 NBB=   231.
 DE(Corr)=  -1.3258664     E(CORR)=     -419.27093190     Delta=-1.67D-06
 NORM(A)=   0.12609512D+01
 Iteration Nr.  26
 **********************
 DD1Dir will call FoFMem   1 times, MxPair=      1496
 NAB=   506 NAA=   253 NBB=   231.
 DE(Corr)=  -1.3258674     E(CORR)=     -419.27093287     Delta=-9.75D-07
 NORM(A)=   0.12609560D+01
 Iteration Nr.  27
 **********************
 DD1Dir will call FoFMem   1 times, MxPair=      1496
 NAB=   506 NAA=   253 NBB=   231.
 DE(Corr)=  -1.3258682     E(CORR)=     -419.27093365     Delta=-7.81D-07
 NORM(A)=   0.12609578D+01
 Iteration Nr.  28
 **********************
 DD1Dir will call FoFMem   1 times, MxPair=      1496
 NAB=   506 NAA=   253 NBB=   231.
 DE(Corr)=  -1.3258684     E(CORR)=     -419.27093389     Delta=-2.35D-07
 NORM(A)=   0.12609583D+01
 Iteration Nr.  29
 **********************
 DD1Dir will call FoFMem   1 times, MxPair=      1496
 NAB=   506 NAA=   253 NBB=   231.
 DE(Corr)=  -1.3258684     E(CORR)=     -419.27093392     Delta=-3.53D-08
 NORM(A)=   0.12609584D+01
 Wavefunction amplitudes converged. E(Corr)=     -419.27093392    
 Dominant configurations:
 ***********************
 Spin Case        I    J    A    B          Value
    BB           30        31           -0.116175D+00
 Largest amplitude= 1.16D-01
 Time for triples=    35534.59 seconds.
 T4(CCSD)= -0.59619397D-01
 T5(CCSD)=  0.49822498D-02
 CCSD(T)= -0.41932557107D+03

 S**2, projected HF & approx projected MPn energies after annihilation of
 unwanted spin states (see manual for definitions):

 spins       (S**2,0) (S**2,1)    PUHF        PMP2        PMP3        PMP4
 annihilated
 s+1         0.67172  0.71216 -417.972575 -419.230544 -419.250457
 s+1,s+2     0.75209  0.74993 -417.968556 -419.226704 -419.246864
 s+1 to s+3  0.74998  0.75001 -417.968686 -419.226806 -419.246920
 s+1 to s+4  0.75000  0.75000 -417.968684 -419.226804 -419.246919
 s+1 to s+5  0.75000  0.75000 -417.968684
 s+1 to s+6  0.75000  0.75000 -417.968684

 Discarding MO integrals.

 **********************************************************************

            Population analysis using the SCF density.

 **********************************************************************

 Orbital symmetries:
 Alpha Orbitals:
       Occupied  (A) (A) (A) (A) (A) (A) (A) (A) (A) (A) (A) (A)
                 (A) (A) (A) (A) (A) (A) (A) (A) (A) (A) (A) (A)
                 (A) (A) (A) (A) (A) (A) (A)
       Virtual   (A) (A) (A) (A) (A) (A) (A) (A) (A) (A) (A) (A)
                 (A) (A) (A) (A) (A) (A) (A) (A) (A) (A) (A) (A)
                 (A) (A) (A) (A) (A) (A) (A) (A) (A) (A) (A) (A)
                 (A) (A) (A) (A) (A) (A) (A) (A) (A) (A) (A) (A)
                 (A) (A) (A) (A) (A) (A) (A) (A) (A) (A) (A) (A)
                 (A) (A) (A) (A) (A) (A) (A) (A) (A) (A) (A) (A)
                 (A) (A) (A) (A) (A) (A) (A) (A) (A) (A) (A) (A)
                 (A) (A) (A) (A) (A) (A) (A) (A) (A) (A) (A) (A)
                 (A) (A) (A) (A) (A) (A) (A) (A) (A) (A) (A) (A)
                 (A) (A) (A) (A) (A) (A) (A) (A) (A) (A) (A) (A)
                 (A) (A) (A) (A) (A) (A) (A) (A) (A) (A) (A) (A)
                 (A) (A) (A) (A) (A) (A) (A) (A) (A) (A) (A) (A)
                 (A) (A) (A) (A) (A) (A) (A) (A) (A) (A) (A) (A)
                 (A) (A) (A) (A) (A) (A) (A) (A) (A) (A) (A) (A)
                 (A) (A) (A) (A) (A) (A) (A) (A) (A) (A) (A) (A)
                 (A) (A) (A) (A) (A) (A) (A) (A) (A) (A) (A) (A)
                 (A)
 Beta  Orbitals:
       Occupied  (A) (A) (A) (A) (A) (A) (A) (A) (A) (A) (A) (A)
                 (A) (A) (A) (A) (A) (A) (A) (A) (A) (A) (A) (A)
                 (A) (A) (A) (A) (A) (A)
       Virtual   (A) (A) (A) (A) (A) (A) (A) (A) (A) (A) (A) (A)
                 (A) (A) (A) (A) (A) (A) (A) (A) (A) (A) (A) (A)
                 (A) (A) (A) (A) (A) (A) (A) (A) (A) (A) (A) (A)
                 (A) (A) (A) (A) (A) (A) (A) (A) (A) (A) (A) (A)
                 (A) (A) (A) (A) (A) (A) (A) (A) (A) (A) (A) (A)
                 (A) (A) (A) (A) (A) (A) (A) (A) (A) (A) (A) (A)
                 (A) (A) (A) (A) (A) (A) (A) (A) (A) (A) (A) (A)
                 (A) (A) (A) (A) (A) (A) (A) (A) (A) (A) (A) (A)
                 (A) (A) (A) (A) (A) (A) (A) (A) (A) (A) (A) (A)
                 (A) (A) (A) (A) (A) (A) (A) (A) (A) (A) (A) (A)
                 (A) (A) (A) (A) (A) (A) (A) (A) (A) (A) (A) (A)
                 (A) (A) (A) (A) (A) (A) (A) (A) (A) (A) (A) (A)
                 (A) (A) (A) (A) (A) (A) (A) (A) (A) (A) (A) (A)
                 (A) (A) (A) (A) (A) (A) (A) (A) (A) (A) (A) (A)
                 (A) (A) (A) (A) (A) (A) (A) (A) (A) (A) (A) (A)
                 (A) (A) (A) (A) (A) (A) (A) (A) (A) (A) (A) (A)
                 (A) (A)
 The electronic state is 2-A.
 Alpha  occ. eigenvalues --  -20.62119 -20.59871 -20.56734 -11.42516 -11.31974
 Alpha  occ. eigenvalues --  -11.30349 -11.26147 -11.23096  -1.49008  -1.39373
 Alpha  occ. eigenvalues --   -1.38552  -1.09526  -1.05355  -0.93627  -0.84446
 Alpha  occ. eigenvalues --   -0.78254  -0.76587  -0.70181  -0.67260  -0.66638
 Alpha  occ. eigenvalues --   -0.63885  -0.59022  -0.57842  -0.55254  -0.54757
 Alpha  occ. eigenvalues --   -0.53640  -0.51175  -0.48908  -0.47462  -0.46025
 Alpha  occ. eigenvalues --   -0.45875
 Alpha virt. eigenvalues --    0.03932   0.04799   0.05649   0.06370   0.07411
 Alpha virt. eigenvalues --    0.07889   0.08339   0.09092   0.11080   0.12182
 Alpha virt. eigenvalues --    0.12936   0.13288   0.14333   0.15270   0.16080
 Alpha virt. eigenvalues --    0.17006   0.17716   0.18416   0.18916   0.18989
 Alpha virt. eigenvalues --    0.19816   0.20614   0.21966   0.22836   0.24009
 Alpha virt. eigenvalues --    0.25321   0.25774   0.27004   0.28420   0.29129
 Alpha virt. eigenvalues --    0.29947   0.31231   0.32009   0.33320   0.33744
 Alpha virt. eigenvalues --    0.34956   0.36108   0.36519   0.37162   0.38705
 Alpha virt. eigenvalues --    0.39433   0.40106   0.41229   0.42164   0.43015
 Alpha virt. eigenvalues --    0.44991   0.46106   0.47024   0.48075   0.49857
 Alpha virt. eigenvalues --    0.52677   0.57416   0.59299   0.59990   0.62164
 Alpha virt. eigenvalues --    0.63205   0.67400   0.69476   0.71222   0.73380
 Alpha virt. eigenvalues --    0.75368   0.77718   0.78644   0.82199   0.83778
 Alpha virt. eigenvalues --    0.84021   0.86168   0.86395   0.88065   0.89026
 Alpha virt. eigenvalues --    0.89341   0.90185   0.94226   0.94693   0.97468
 Alpha virt. eigenvalues --    1.06184   1.09464   1.10946   1.15490   1.18712
 Alpha virt. eigenvalues --    1.22576   1.24343   1.25828   1.31146   1.34058
 Alpha virt. eigenvalues --    1.35673   1.35849   1.36863   1.38131   1.39487
 Alpha virt. eigenvalues --    1.42070   1.43988   1.47867   1.49164   1.53284
 Alpha virt. eigenvalues --    1.54769   1.55630   1.58782   1.59350   1.65323
 Alpha virt. eigenvalues --    1.67620   1.72552   1.72932   1.78617   1.79722
 Alpha virt. eigenvalues --    1.81079   1.81642   1.82706   1.84915   1.86434
 Alpha virt. eigenvalues --    1.87627   1.90155   1.92507   1.93481   1.95829
 Alpha virt. eigenvalues --    1.98361   2.03030   2.07753   2.11465   2.14226
 Alpha virt. eigenvalues --    2.18257   2.23109   2.27114   2.29111   2.34652
 Alpha virt. eigenvalues --    2.40249   2.41266   2.47728   2.51678   2.59043
 Alpha virt. eigenvalues --    2.60629   2.63610   2.69121   2.80194   2.82093
 Alpha virt. eigenvalues --    2.83797   2.84179   2.91858   2.92212   2.95192
 Alpha virt. eigenvalues --    2.97272   2.99971   3.00866   3.04960   3.09819
 Alpha virt. eigenvalues --    3.12653   3.13537   3.14503   3.23330   3.26803
 Alpha virt. eigenvalues --    3.29890   3.31851   3.34012   3.36175   3.39838
 Alpha virt. eigenvalues --    3.46186   3.47519   3.50851   3.58623   3.62923
 Alpha virt. eigenvalues --    3.64931   3.69814   3.71802   3.78690   3.89460
 Alpha virt. eigenvalues --    3.99547   4.06379   4.10133   4.20554   4.21989
 Alpha virt. eigenvalues --    4.25981   4.29654   4.36071   4.41917   4.53685
 Alpha virt. eigenvalues --    4.66209   5.57430   5.57750   5.62871   5.75446
 Alpha virt. eigenvalues --    5.87424   5.90660   6.15711   6.20354   6.42216
 Alpha virt. eigenvalues --   24.47610  24.99530  25.00918  25.13952  26.02266
 Alpha virt. eigenvalues --   51.55797  51.59230  51.70496
  Beta  occ. eigenvalues --  -20.62137 -20.58756 -20.57381 -11.42018 -11.30357
  Beta  occ. eigenvalues --  -11.27954 -11.26339 -11.23098  -1.49326  -1.39594
  Beta  occ. eigenvalues --   -1.35760  -1.08857  -1.03946  -0.91929  -0.83344
  Beta  occ. eigenvalues --   -0.76813  -0.73384  -0.70808  -0.67639  -0.64296
  Beta  occ. eigenvalues --   -0.59479  -0.59199  -0.56426  -0.54858  -0.52068
  Beta  occ. eigenvalues --   -0.51316  -0.49721  -0.48217  -0.44320  -0.43848
  Beta virt. eigenvalues --    0.00088   0.04014   0.05623   0.06174   0.06387
  Beta virt. eigenvalues --    0.07522   0.07996   0.09075   0.10008   0.11601
  Beta virt. eigenvalues --    0.12678   0.13250   0.13509   0.14875   0.15543
  Beta virt. eigenvalues --    0.16503   0.17856   0.18301   0.18510   0.18998
  Beta virt. eigenvalues --    0.19198   0.20015   0.21217   0.22712   0.23481
  Beta virt. eigenvalues --    0.24194   0.25475   0.26385   0.27436   0.28966
  Beta virt. eigenvalues --    0.29153   0.30072   0.31838   0.32087   0.33429
  Beta virt. eigenvalues --    0.33974   0.35001   0.36063   0.36693   0.37344
  Beta virt. eigenvalues --    0.38844   0.39398   0.40578   0.41769   0.42149
  Beta virt. eigenvalues --    0.42893   0.45060   0.46114   0.47231   0.47790
  Beta virt. eigenvalues --    0.49988   0.52432   0.57444   0.59438   0.61025
  Beta virt. eigenvalues --    0.62622   0.64060   0.67721   0.70962   0.72159
  Beta virt. eigenvalues --    0.74587   0.77210   0.78988   0.79880   0.82379
  Beta virt. eigenvalues --    0.83584   0.84566   0.86167   0.87990   0.88572
  Beta virt. eigenvalues --    0.89067   0.89985   0.93507   0.93987   0.97187
  Beta virt. eigenvalues --    0.97657   1.05395   1.09477   1.11476   1.16951
  Beta virt. eigenvalues --    1.18835   1.23187   1.24848   1.27188   1.33076
  Beta virt. eigenvalues --    1.33984   1.35537   1.37078   1.37498   1.38540
  Beta virt. eigenvalues --    1.41086   1.41397   1.44067   1.47971   1.50888
  Beta virt. eigenvalues --    1.53655   1.55278   1.57212   1.59237   1.60197
  Beta virt. eigenvalues --    1.67197   1.68632   1.72748   1.74046   1.79446
  Beta virt. eigenvalues --    1.80496   1.82091   1.82586   1.83075   1.85612
  Beta virt. eigenvalues --    1.87566   1.88159   1.90266   1.93293   1.93815
  Beta virt. eigenvalues --    1.95973   1.98266   2.03053   2.07989   2.11793
  Beta virt. eigenvalues --    2.15148   2.19004   2.23787   2.27677   2.29864
  Beta virt. eigenvalues --    2.34901   2.40438   2.42260   2.47887   2.53621
  Beta virt. eigenvalues --    2.59334   2.61929   2.64234   2.70098   2.80110
  Beta virt. eigenvalues --    2.82100   2.83829   2.84299   2.91949   2.92271
  Beta virt. eigenvalues --    2.95250   2.97280   3.00073   3.01972   3.05024
  Beta virt. eigenvalues --    3.09740   3.13269   3.14107   3.15974   3.23477
  Beta virt. eigenvalues --    3.26431   3.28680   3.32176   3.34253   3.38447
  Beta virt. eigenvalues --    3.40588   3.46197   3.48543   3.51821   3.58686
  Beta virt. eigenvalues --    3.63588   3.65679   3.70936   3.72093   3.77763
  Beta virt. eigenvalues --    3.92465   3.99274   4.06157   4.11387   4.20571
  Beta virt. eigenvalues --    4.21997   4.25959   4.31252   4.36182   4.41977
  Beta virt. eigenvalues --    4.53615   4.66197   5.57476   5.58849   5.61211
  Beta virt. eigenvalues --    5.75044   5.89212   5.90627   6.16918   6.20172
  Beta virt. eigenvalues --    6.42080  24.49677  24.99981  25.00916  25.13955
  Beta virt. eigenvalues --   26.03368  51.56436  51.59200  51.70139
          Condensed to atoms (all electrons):
               1          2          3          4          5          6
     1  O    7.744670   0.311730  -0.010533   0.339364  -0.010948   0.003488
     2  H    0.311730   0.428174   0.021563  -0.033765  -0.007257   0.007600
     3  C   -0.010533   0.021563   5.996331   0.007319  -0.452020   1.091608
     4  H    0.339364  -0.033765   0.007319   0.368125  -0.061198   0.041974
     5  C   -0.010948  -0.007257  -0.452020  -0.061198  12.587941  -7.012652
     6  C    0.003488   0.007600   1.091608   0.041974  -7.012652  12.436230
     7  O    0.000208  -0.000085  -0.061462  -0.000114   0.286362   0.147148
     8  O    0.000002  -0.000024  -0.061043  -0.000508  -0.240747   0.116799
     9  C   -0.000030   0.000004   0.021371   0.000162  -0.371349   0.163436
    10  C    0.000027   0.000039  -0.016586  -0.000277   0.042722  -0.115131
    11  H    0.000007   0.000008   0.001644  -0.000036  -0.014640   0.011009
    12  H   -0.000010  -0.000015   0.002065   0.000115  -0.028399   0.015255
    13  H   -0.000001   0.000001  -0.001959  -0.000027   0.010988  -0.014872
    14  H    0.000008  -0.000005   0.002041   0.000057  -0.005047   0.006340
    15  H   -0.000001   0.000001   0.001424  -0.000013  -0.033203   0.017477
               7          8          9         10         11         12
     1  O    0.000208   0.000002  -0.000030   0.000027   0.000007  -0.000010
     2  H   -0.000085  -0.000024   0.000004   0.000039   0.000008  -0.000015
     3  C   -0.061462  -0.061043   0.021371  -0.016586   0.001644   0.002065
     4  H   -0.000114  -0.000508   0.000162  -0.000277  -0.000036   0.000115
     5  C    0.286362  -0.240747  -0.371349   0.042722  -0.014640  -0.028399
     6  C    0.147148   0.116799   0.163436  -0.115131   0.011009   0.015255
     7  O    8.059176  -0.109768   0.033128  -0.060512   0.002274  -0.023599
     8  O   -0.109768   8.332975   0.227040  -0.077945  -0.078753  -0.016706
     9  C    0.033128   0.227040   5.340518  -0.027894   0.440118   0.442803
    10  C   -0.060512  -0.077945  -0.027894   5.468800  -0.048029  -0.038074
    11  H    0.002274  -0.078753   0.440118  -0.048029   0.550586  -0.035344
    12  H   -0.023599  -0.016706   0.442803  -0.038074  -0.035344   0.512851
    13  H   -0.001029   0.017305  -0.044532   0.407917   0.000649  -0.004455
    14  H    0.002906  -0.007617  -0.030048   0.415645  -0.005973   0.000052
    15  H   -0.002085  -0.013981  -0.027929   0.409416   0.007610  -0.002916
              13         14         15
     1  O   -0.000001   0.000008  -0.000001
     2  H    0.000001  -0.000005   0.000001
     3  C   -0.001959   0.002041   0.001424
     4  H   -0.000027   0.000057  -0.000013
     5  C    0.010988  -0.005047  -0.033203
     6  C   -0.014872   0.006340   0.017477
     7  O   -0.001029   0.002906  -0.002085
     8  O    0.017305  -0.007617  -0.013981
     9  C   -0.044532  -0.030048  -0.027929
    10  C    0.407917   0.415645   0.409416
    11  H    0.000649  -0.005973   0.007610
    12  H   -0.004455   0.000052  -0.002916
    13  H    0.558326  -0.032091  -0.033395
    14  H   -0.032091   0.554368  -0.046303
    15  H   -0.033395  -0.046303   0.550337
          Atomic-Atomic Spin Densities.
               1          2          3          4          5          6
     1  O    0.239118   0.002606  -0.087973   0.024174  -0.029834   0.020639
     2  H    0.002606  -0.011782  -0.000125  -0.000493  -0.000371  -0.000421
     3  C   -0.087973  -0.000125   2.220029  -0.057450  -0.167102   0.081084
     4  H    0.024174  -0.000493  -0.057450  -0.034089  -0.016539   0.014127
     5  C   -0.029834  -0.000371  -0.167102  -0.016539  -0.415310  -0.585116
     6  C    0.020639  -0.000421   0.081084   0.014127  -0.585116   0.699991
     7  O    0.000008  -0.000047   0.000684   0.000128   0.004187   0.033377
     8  O    0.000077   0.000027  -0.001941  -0.000143   0.086702  -0.097870
     9  C    0.000051   0.000026   0.000966  -0.000115   0.022896  -0.009700
    10  C   -0.000012  -0.000001  -0.002061  -0.000041   0.001684  -0.007447
    11  H    0.000008   0.000001   0.000770   0.000013  -0.000473   0.001656
    12  H    0.000009   0.000000  -0.000597  -0.000006   0.008268  -0.005242
    13  H   -0.000002   0.000000  -0.000428  -0.000006   0.002710  -0.002498
    14  H    0.000003  -0.000001   0.000245   0.000009   0.000244   0.000172
    15  H    0.000003   0.000000  -0.000476  -0.000005   0.005297  -0.003544
               7          8          9         10         11         12
     1  O    0.000008   0.000077   0.000051  -0.000012   0.000008   0.000009
     2  H   -0.000047   0.000027   0.000026  -0.000001   0.000001   0.000000
     3  C    0.000684  -0.001941   0.000966  -0.002061   0.000770  -0.000597
     4  H    0.000128  -0.000143  -0.000115  -0.000041   0.000013  -0.000006
     5  C    0.004187   0.086702   0.022896   0.001684  -0.000473   0.008268
     6  C    0.033377  -0.097870  -0.009700  -0.007447   0.001656  -0.005242
     7  O   -0.176265  -0.000286   0.005106  -0.001059   0.000342  -0.000086
     8  O   -0.000286   0.020436  -0.007983   0.005367   0.000135   0.000228
     9  C    0.005106  -0.007983  -0.000513  -0.001725  -0.001386  -0.003928
    10  C   -0.001059   0.005367  -0.001725   0.000108   0.001030   0.001550
    11  H    0.000342   0.000135  -0.001386   0.001030  -0.001315  -0.000629
    12  H   -0.000086   0.000228  -0.003928   0.001550  -0.000629   0.000447
    13  H    0.000296  -0.000118  -0.000306  -0.000065  -0.000006   0.000150
    14  H   -0.000317  -0.000173  -0.000757   0.001016  -0.000059  -0.000010
    15  H    0.000364  -0.001134  -0.000203   0.000340  -0.000344  -0.000299
              13         14         15
     1  O   -0.000002   0.000003   0.000003
     2  H    0.000000  -0.000001   0.000000
     3  C   -0.000428   0.000245  -0.000476
     4  H   -0.000006   0.000009  -0.000005
     5  C    0.002710   0.000244   0.005297
     6  C   -0.002498   0.000172  -0.003544
     7  O    0.000296  -0.000317   0.000364
     8  O   -0.000118  -0.000173  -0.001134
     9  C   -0.000306  -0.000757  -0.000203
    10  C   -0.000065   0.001016   0.000340
    11  H   -0.000006  -0.000059  -0.000344
    12  H    0.000150  -0.000010  -0.000299
    13  H   -0.000294   0.000136   0.000314
    14  H    0.000136  -0.000409  -0.000213
    15  H    0.000314  -0.000213  -0.000273
 Mulliken charges and spin densities:
               1          2
     1  O   -0.377980   0.168875
     2  H    0.272032  -0.010581
     3  C   -0.541765   1.985626
     4  H    0.338822  -0.070437
     5  C    1.309449  -1.082755
     6  C   -0.915710   0.139208
     7  O   -0.272548  -0.133569
     8  O   -0.087029   0.003323
     9  C   -0.166800   0.002430
    10  C   -0.360118  -0.001316
    11  H    0.168868  -0.000255
    12  H    0.176377  -0.000145
    13  H    0.137174  -0.000115
    14  H    0.145666  -0.000114
    15  H    0.173562  -0.000174
 Sum of Mulliken charges =  -0.00000   1.00000
 Mulliken charges and spin densities with hydrogens summed into heavy atoms:
               1          2
     1  O    0.232875   0.087857
     3  C   -0.541765   1.985626
     5  C    1.309449  -1.082755
     6  C   -0.915710   0.139208
     7  O   -0.272548  -0.133569
     8  O   -0.087029   0.003323
     9  C    0.178444   0.002030
    10  C    0.096284  -0.001719
 Electronic spatial extent (au):  <R**2>=           1691.9320
 Charge=             -0.0000 electrons
 Dipole moment (field-independent basis, Debye):
    X=             -1.8026    Y=             -0.8787    Z=             -1.5255  Tot=              2.5196
 Quadrupole moment (field-independent basis, Debye-Ang):
   XX=            -44.1152   YY=            -51.8628   ZZ=            -47.7509
   XY=              6.6407   XZ=             -5.4119   YZ=             -0.0784
 Traceless Quadrupole moment (field-independent basis, Debye-Ang):
   XX=              3.7944   YY=             -3.9531   ZZ=              0.1587
   XY=              6.6407   XZ=             -5.4119   YZ=             -0.0784
 Octapole moment (field-independent basis, Debye-Ang**2):
  XXX=            -53.6653  YYY=             -6.8595  ZZZ=             -2.1649  XYY=             10.6301
  XXY=             21.9832  XXZ=            -31.0569  XZZ=             -4.2075  YZZ=              1.4305
  YYZ=             -0.1766  XYZ=              0.8837
 Hexadecapole moment (field-independent basis, Debye-Ang**3):
 XXXX=          -2005.9470 YYYY=           -189.1485 ZZZZ=           -122.2640 XXXY=            148.4970
 XXXZ=           -106.0635 YYYX=              7.8136 YYYZ=              1.2455 ZZZX=              6.0883
 ZZZY=              0.2050 XXYY=           -304.6881 XXZZ=           -339.7784 YYZZ=            -47.4476
 XXYZ=              8.4568 YYXZ=              2.1406 ZZXY=              1.0045
 N-N= 3.349128738215D+02 E-N=-1.652382014186D+03  KE= 4.177526232233D+02
 1\1\GINC-AJ\SP\UCCSD(T)-FC\6-311++G(d,p)\C5H7O3(2)\AAYUSH\17-Aug-2025\
 0\\# ccsd(t)/6-311++g(d,p) sp\\Title Card Required\\0,2\O,0,4.502441,-
 0.265422,0.339923\H,0,4.526714,0.6144,-0.054005\C,0,2.18948,-0.321764,
 -0.06144\H,0,3.807249,-0.754124,-0.151509\C,0,1.033405,0.01739,-0.0922
 82\C,0,-0.369446,0.390357,-0.17862\O,0,-0.753255,1.519317,-0.050615\O,
 0,-1.135951,-0.670481,-0.412822\C,0,-2.554394,-0.419997,-0.497848\C,0,
 -3.168315,-0.297373,0.882612\H,0,-2.941619,-1.282597,-1.036817\H,0,-2.
 714333,0.482095,-1.089463\H,0,-4.25021,-0.18365,0.791562\H,0,-2.963016
 ,-1.192654,1.471198\H,0,-2.773797,0.574601,1.404482\\Version=ES64L-G16
 RevA.03\State=2-A\HF=-417.9450655\MP2=-419.2055588\MP3=-419.2300523\MP
 4D=-419.2601676\MP4DQ=-419.2369225\PUHF=-417.9725754\PMP2-0=-419.23054
 37\PMP3-0=-419.2504571\MP4SDQ=-419.2593132\CCSD=-419.2709339\CCSD(T)=-
 419.3255711\S2=1.1746\S2-1=1.082284\S2A=0.882648\RMSD=5.350e-09\PG=C01
  [X(C5H7O3)]\\@


 This summer one third of the nation will be ill-housed
 ill-nourished and ill-clad. Only they call it a vacation.
 -- Jonas Salk
 Job cpu time:       0 days 20 hours 30 minutes  8.0 seconds.
 Elapsed time:       0 days  0 hours 51 minutes 29.9 seconds.
 File lengths (MBytes):  RWF=  44258 Int=      0 D2E=      0 Chk=      7 Scr=      1
 Normal termination of Gaussian 16 at Sun Aug 17 10:26:58 2025.
