 Entering Gaussian System, Link 0=g16
 Initial command:
 /opt/g16/l1.exe "/home/aayush/scratches/g16/Gau-12025.inp" -scrdir="/home/aayush/scratches/g16/"
 Entering Link 1 = /opt/g16/l1.exe PID=     12028.
  
 Copyright (c) 1988,1990,1992,1993,1995,1998,2003,2009,2016,
            Gaussian, Inc.  All Rights Reserved.
  
 This is part of the Gaussian(R) 16 program.  It is based on
 the Gaussian(R) 09 system (copyright 2009, Gaussian, Inc.),
 the Gaussian(R) 03 system (copyright 2003, Gaussian, Inc.),
 the Gaussian(R) 98 system (copyright 1998, Gaussian, Inc.),
 the Gaussian(R) 94 system (copyright 1995, Gaussian, Inc.),
 the Gaussian 92(TM) system (copyright 1992, Gaussian, Inc.),
 the Gaussian 90(TM) system (copyright 1990, Gaussian, Inc.),
 the Gaussian 88(TM) system (copyright 1988, Gaussian, Inc.),
 the Gaussian 86(TM) system (copyright 1986, Carnegie Mellon
 University), and the Gaussian 82(TM) system (copyright 1983,
 Carnegie Mellon University). Gaussian is a federally registered
 trademark of Gaussian, Inc.
  
 This software contains proprietary and confidential information,
 including trade secrets, belonging to Gaussian, Inc.
  
 This software is provided under written license and may be
 used, copied, transmitted, or stored only in accord with that
 written license.
  
 The following legend is applicable only to US Government
 contracts under FAR:
  
                    RESTRICTED RIGHTS LEGEND
  
 Use, reproduction and disclosure by the US Government is
 subject to restrictions as set forth in subparagraphs (a)
 and (c) of the Commercial Computer Software - Restricted
 Rights clause in FAR 52.227-19.
  
 Gaussian, Inc.
 340 Quinnipiac St., Bldg. 40, Wallingford CT 06492
  
  
 ---------------------------------------------------------------
 Warning -- This program may not be used in any manner that
 competes with the business of Gaussian, Inc. or will provide
 assistance to any competitor of Gaussian, Inc.  The licensee
 of this program is prohibited from giving any competitor of
 Gaussian, Inc. access to this program.  By using this program,
 the user acknowledges that Gaussian, Inc. is engaged in the
 business of creating and licensing software in the field of
 computational chemistry and represents and warrants to the
 licensee that it is not a competitor of Gaussian, Inc. and that
 it will not use this program in any manner prohibited above.
 ---------------------------------------------------------------
  

 Cite this work as:
 Gaussian 16, Revision A.03,
 M. J. Frisch, G. W. Trucks, H. B. Schlegel, G. E. Scuseria, 
 M. A. Robb, J. R. Cheeseman, G. Scalmani, V. Barone, 
 G. A. Petersson, H. Nakatsuji, X. Li, M. Caricato, A. V. Marenich, 
 J. Bloino, B. G. Janesko, R. Gomperts, B. Mennucci, H. P. Hratchian, 
 J. V. Ortiz, A. F. Izmaylov, J. L. Sonnenberg, D. Williams-Young, 
 F. Ding, F. Lipparini, F. Egidi, J. Goings, B. Peng, A. Petrone, 
 T. Henderson, D. Ranasinghe, V. G. Zakrzewski, J. Gao, N. Rega, 
 G. Zheng, W. Liang, M. Hada, M. Ehara, K. Toyota, R. Fukuda, 
 J. Hasegawa, M. Ishida, T. Nakajima, Y. Honda, O. Kitao, H. Nakai, 
 T. Vreven, K. Throssell, J. A. Montgomery, Jr., J. E. Peralta, 
 F. Ogliaro, M. J. Bearpark, J. J. Heyd, E. N. Brothers, K. N. Kudin, 
 V. N. Staroverov, T. A. Keith, R. Kobayashi, J. Normand, 
 K. Raghavachari, A. P. Rendell, J. C. Burant, S. S. Iyengar, 
 J. Tomasi, M. Cossi, J. M. Millam, M. Klene, C. Adamo, R. Cammi, 
 J. W. Ochterski, R. L. Martin, K. Morokuma, O. Farkas, 
 J. B. Foresman, and D. J. Fox, Gaussian, Inc., Wallingford CT, 2016.
 
 ******************************************
 Gaussian 16:  ES64L-G16RevA.03 25-Dec-2016
                16-Aug-2025 
 ******************************************
 %chk=ethyl_propiolate.chk
 %nprocshared=24
 Will use up to   24 processors via shared memory.
 %mem=12GB
 --------------------------
 # freq 6-311++g(d,p) m062x
 --------------------------
 1/10=4,30=1,38=1/1,3;
 2/12=2,17=6,18=5,40=1/2;
 3/5=4,6=6,7=1111,11=2,25=1,30=1,71=2,74=-55,140=1/1,2,3;
 4//1;
 5/5=2,38=5,98=1/2;
 8/6=4,10=90,11=11/1;
 11/6=1,8=1,9=11,15=111,16=1/1,2,10;
 10/6=1/2;
 6/7=2,8=2,9=2,10=2,28=1/1;
 7/8=1,10=1,25=1/1,2,3,16;
 1/10=4,30=1/3;
 99//99;
 -------------------
 Title Card Required
 -------------------
 Symbolic Z-matrix:
 Charge =  0 Multiplicity = 2
 O                     4.49665  -0.26772   0.33313 
 H                     4.54063   0.6321   -0.02254 
 C                     2.19989  -0.32401  -0.06442 
 H                     3.56535  -0.64951  -0.0422 
 C                     1.04144   0.01339  -0.09373 
 C                    -0.36587   0.38989  -0.17738 
 O                    -0.75196   1.51853  -0.0507 
 O                    -1.13458  -0.67027  -0.41245 
 C                    -2.55352  -0.41972  -0.4977 
 C                    -3.16816  -0.29737   0.88256 
 H                    -2.94035  -1.28242  -1.03683 
 H                    -2.71351   0.48235  -1.08931 
 H                    -4.25005  -0.18372   0.79117 
 H                    -2.96298  -1.1927    1.47112 
 H                    -2.77385   0.57457   1.40465 
 

 GradGradGradGradGradGradGradGradGradGradGradGradGradGradGradGradGradGrad
 Berny optimization.
 Initialization pass.
 Trust Radius=3.00D-01 FncErr=1.00D-07 GrdErr=1.00D-07 EigMax=2.50D+02 EigMin=1.00D-04
 Number of steps in this run=      2 maximum allowed number of steps=      2.
 GradGradGradGradGradGradGradGradGradGradGradGradGradGradGradGradGradGrad

                          Input orientation:                          
 ---------------------------------------------------------------------
 Center     Atomic      Atomic             Coordinates (Angstroms)
 Number     Number       Type             X           Y           Z
 ---------------------------------------------------------------------
      1          8           0        4.496648   -0.267717    0.333130
      2          1           0        4.540628    0.632103   -0.022537
      3          6           0        2.199889   -0.324010   -0.064421
      4          1           0        3.565345   -0.649507   -0.042198
      5          6           0        1.041435    0.013392   -0.093726
      6          6           0       -0.365869    0.389889   -0.177383
      7          8           0       -0.751961    1.518533   -0.050699
      8          8           0       -1.134583   -0.670269   -0.412448
      9          6           0       -2.553520   -0.419715   -0.497699
     10          6           0       -3.168157   -0.297373    0.882561
     11          1           0       -2.940353   -1.282415   -1.036829
     12          1           0       -2.713509    0.482345   -1.089311
     13          1           0       -4.250045   -0.183719    0.791170
     14          1           0       -2.962976   -1.192700    1.471120
     15          1           0       -2.773846    0.574571    1.404647
 ---------------------------------------------------------------------
                    Distance matrix (angstroms):
                    1          2          3          4          5
     1  O    0.000000
     2  H    0.968560   0.000000
     3  C    2.331591   2.528827   0.000000
     4  H    1.074225   1.610617   1.403892   0.000000
     5  C    3.492811   3.554184   1.206944   2.610021   0.000000
     6  C    4.933269   4.914912   2.665619   4.068546   1.459196
     7  O    5.557509   5.366381   3.479737   4.831108   2.341702
     8  O    5.694620   5.835771   3.370419   4.714535   2.303048
     9  C    7.100581   7.187422   4.774074   6.140097   3.643416
    10  C    7.684529   7.817192   5.451000   6.805823   4.332479
    11  H    7.629901   7.788404   5.318478   6.611654   4.292225
    12  H    7.387306   7.333685   5.083511   6.465411   3.912890
    13  H    8.759081   8.865868   6.507946   7.873486   5.368580
    14  H    7.602408   7.865430   5.455977   6.723404   4.465278
    15  H    7.397140   7.452630   5.263426   6.616424   4.137199
                    6          7          8          9         10
     6  C    0.000000
     7  O    1.199564   0.000000
     8  O    1.330455   2.251248   0.000000
     9  C    2.354544   2.683697   1.443408   0.000000
    10  C    3.073862   3.163304   2.439574   1.515871   0.000000
    11  H    3.187980   3.688743   2.006335   1.088371   2.169392
    12  H    2.520233   2.449504   2.068736   1.090557   2.168627
    13  H    4.044001   3.980326   3.375134   2.143612   1.091674
    14  H    3.459352   3.815142   2.676525   2.154393   1.090922
    15  H    2.887088   2.664041   2.745659   2.157793   1.090111
                   11         12         13         14         15
    11  H    0.000000
    12  H    1.780053   0.000000
    13  H    2.502800   2.518093   0.000000
    14  H    2.509655   3.069824   1.771136   0.000000
    15  H    3.071958   2.496392   1.769328   1.778605   0.000000
 Stoichiometry    C5H7O3(2)
 Framework group  C1[X(C5H7O3)]
 Deg. of freedom    39
 Full point group                 C1      NOp   1
 Largest Abelian subgroup         C1      NOp   1
 Largest concise Abelian subgroup C1      NOp   1
                         Standard orientation:                         
 ---------------------------------------------------------------------
 Center     Atomic      Atomic             Coordinates (Angstroms)
 Number     Number       Type             X           Y           Z
 ---------------------------------------------------------------------
      1          8           0        4.557788   -0.255080    0.321131
      2          1           0        4.601868    0.644735   -0.034536
      3          6           0        2.261022   -0.311117   -0.076420
      4          1           0        3.626442   -0.636766   -0.054197
      5          6           0        1.102606    0.026414   -0.105725
      6          6           0       -0.304656    0.403068   -0.189382
      7          8           0       -0.690622    1.531755   -0.062698
      8          8           0       -1.073488   -0.657004   -0.424447
      9          6           0       -2.492397   -0.406292   -0.509698
     10          6           0       -3.107021   -0.283882    0.870562
     11          1           0       -2.879326   -1.268949   -1.048828
     12          1           0       -2.652286    0.495786   -1.101310
     13          1           0       -4.188896   -0.170107    0.779171
     14          1           0       -2.901939   -1.179232    1.459121
     15          1           0       -2.712612    0.588018    1.392648
 ---------------------------------------------------------------------
 Rotational constants (GHZ):           6.2878596           0.6890136           0.6606132
 Standard basis: 6-311++G(d,p) (5D, 7F)
 There are   233 symmetry adapted cartesian basis functions of A   symmetry.
 There are   225 symmetry adapted basis functions of A   symmetry.
   225 basis functions,   351 primitive gaussians,   233 cartesian basis functions
    31 alpha electrons       30 beta electrons
       nuclear repulsion energy       335.0404861234 Hartrees.
 NAtoms=   15 NActive=   15 NUniq=   15 SFac= 1.00D+00 NAtFMM=   60 NAOKFM=F Big=F
 Integral buffers will be    131072 words long.
 Raffenetti 2 integral format.
 Two-electron integral symmetry is turned on.
 One-electron integrals computed using PRISM.
 NBasis=   225 RedAO= T EigKep=  5.26D-06  NBF=   225
 NBsUse=   224 1.00D-06 EigRej=  4.29D-07 NBFU=   224
 ExpMin= 3.60D-02 ExpMax= 8.59D+03 ExpMxC= 1.30D+03 IAcc=3 IRadAn=         5 AccDes= 0.00D+00
 Harris functional with IExCor= 1009 and IRadAn=       5 diagonalized for initial guess.
 HarFok:  IExCor= 1009 AccDes= 0.00D+00 IRadAn=         5 IDoV= 1 UseB2=F ITyADJ=14
 ICtDFT=  3500011 ScaDFX=  1.000000  1.000000  1.000000  1.000000
 FoFCou: FMM=F IPFlag=           0 FMFlag=      100000 FMFlg1=           0
         NFxFlg=           0 DoJE=T BraDBF=F KetDBF=T FulRan=T
         wScrn=  0.000000 ICntrl=       500 IOpCl=  0 I1Cent=   200000004 NGrid=           0
         NMat0=    1 NMatS0=      1 NMatT0=    0 NMatD0=    1 NMtDS0=    0 NMtDT0=    0
 Petite list used in FoFCou.
 Initial guess <Sx>= 0.0000 <Sy>= 0.0000 <Sz>= 0.5000 <S**2>= 0.7500 S= 0.5000
 Requested convergence on RMS density matrix=1.00D-08 within 128 cycles.
 Requested convergence on MAX density matrix=1.00D-06.
 Requested convergence on             energy=1.00D-06.
 No special actions if energy rises.
 Restarting incremental Fock formation.
 SCF Done:  E(UM062X) =  -420.174460831     A.U. after   22 cycles
            NFock= 22  Conv=0.60D-08     -V/T= 2.0033
 <Sx>= 0.0000 <Sy>= 0.0000 <Sz>= 0.5000 <S**2>= 0.7657 S= 0.5078
 <L.S>=  0.00000000000    
 Annihilation of the first spin contaminant:
 S**2 before annihilation     0.7657,   after     0.7502
 DoSCS=F DFT=T ScalE2(SS,OS)=  1.000000  1.000000
 Range of M.O.s used for correlation:     1   224
 NBasis=   225 NAE=    31 NBE=    30 NFC=     0 NFV=     0
 NROrb=    224 NOA=    31 NOB=    30 NVA=   193 NVB=   194

 **** Warning!!: The largest alpha MO coefficient is  0.83754689D+02


 **** Warning!!: The largest beta MO coefficient is  0.10035713D+03

 Symmetrizing basis deriv contribution to polar:
 IMax=3 JMax=2 DiffMx= 0.00D+00
 G2DrvN: will do    16 centers at a time, making    1 passes.
 Calling FoFCou, ICntrl=  3107 FMM=F I1Cent=   0 AccDes= 0.00D+00.
 End of G2Drv F.D. properties file   721 does not exist.
 End of G2Drv F.D. properties file   722 does not exist.
 End of G2Drv F.D. properties file   788 does not exist.
          IDoAtm=111111111111111
          Differentiating once with respect to electric field.
                with respect to dipole field.
          Differentiating once with respect to nuclear coordinates.
 Keep R1 and R2 ints in memory in canonical form, NReq=671901989.
          There are    48 degrees of freedom in the 1st order CPHF.  IDoFFX=6 NUNeed=     3.
     45 vectors produced by pass  0 Test12= 2.46D-14 2.08D-09 XBig12= 1.46D+02 4.94D+00.
 AX will form    45 AO Fock derivatives at one time.
     45 vectors produced by pass  1 Test12= 2.46D-14 2.08D-09 XBig12= 3.14D+01 1.16D+00.
     45 vectors produced by pass  2 Test12= 2.46D-14 2.08D-09 XBig12= 1.87D+00 1.56D-01.
     45 vectors produced by pass  3 Test12= 2.46D-14 2.08D-09 XBig12= 3.29D-02 1.75D-02.
     45 vectors produced by pass  4 Test12= 2.46D-14 2.08D-09 XBig12= 4.90D-04 3.43D-03.
     45 vectors produced by pass  5 Test12= 2.46D-14 2.08D-09 XBig12= 6.51D-06 2.98D-04.
     38 vectors produced by pass  6 Test12= 2.46D-14 2.08D-09 XBig12= 5.49D-08 2.06D-05.
     24 vectors produced by pass  7 Test12= 2.46D-14 2.08D-09 XBig12= 4.03D-10 1.73D-06.
      5 vectors produced by pass  8 Test12= 2.46D-14 2.08D-09 XBig12= 2.69D-12 1.48D-07.
      2 vectors produced by pass  9 Test12= 2.46D-14 2.08D-09 XBig12= 2.03D-14 1.38D-08.
 InvSVY:  IOpt=1 It=  1 EMax= 8.88D-15
 Solved reduced A of dimension   339 with    48 vectors.
 Isotropic polarizability for W=    0.000000       84.34 Bohr**3.
 End of Minotr F.D. properties file   721 does not exist.
 End of Minotr F.D. properties file   722 does not exist.
 End of Minotr F.D. properties file   788 does not exist.

 **********************************************************************

            Population analysis using the SCF density.

 **********************************************************************

 Orbital symmetries:
 Alpha Orbitals:
       Occupied  (A) (A) (A) (A) (A) (A) (A) (A) (A) (A) (A) (A)
                 (A) (A) (A) (A) (A) (A) (A) (A) (A) (A) (A) (A)
                 (A) (A) (A) (A) (A) (A) (A)
       Virtual   (A) (A) (A) (A) (A) (A) (A) (A) (A) (A) (A) (A)
                 (A) (A) (A) (A) (A) (A) (A) (A) (A) (A) (A) (A)
                 (A) (A) (A) (A) (A) (A) (A) (A) (A) (A) (A) (A)
                 (A) (A) (A) (A) (A) (A) (A) (A) (A) (A) (A) (A)
                 (A) (A) (A) (A) (A) (A) (A) (A) (A) (A) (A) (A)
                 (A) (A) (A) (A) (A) (A) (A) (A) (A) (A) (A) (A)
                 (A) (A) (A) (A) (A) (A) (A) (A) (A) (A) (A) (A)
                 (A) (A) (A) (A) (A) (A) (A) (A) (A) (A) (A) (A)
                 (A) (A) (A) (A) (A) (A) (A) (A) (A) (A) (A) (A)
                 (A) (A) (A) (A) (A) (A) (A) (A) (A) (A) (A) (A)
                 (A) (A) (A) (A) (A) (A) (A) (A) (A) (A) (A) (A)
                 (A) (A) (A) (A) (A) (A) (A) (A) (A) (A) (A) (A)
                 (A) (A) (A) (A) (A) (A) (A) (A) (A) (A) (A) (A)
                 (A) (A) (A) (A) (A) (A) (A) (A) (A) (A) (A) (A)
                 (A) (A) (A) (A) (A) (A) (A) (A) (A) (A) (A) (A)
                 (A) (A) (A) (A) (A) (A) (A) (A) (A) (A) (A) (A)
                 (A)
 Beta  Orbitals:
       Occupied  (A) (A) (A) (A) (A) (A) (A) (A) (A) (A) (A) (A)
                 (A) (A) (A) (A) (A) (A) (A) (A) (A) (A) (A) (A)
                 (A) (A) (A) (A) (A) (A)
       Virtual   (A) (A) (A) (A) (A) (A) (A) (A) (A) (A) (A) (A)
                 (A) (A) (A) (A) (A) (A) (A) (A) (A) (A) (A) (A)
                 (A) (A) (A) (A) (A) (A) (A) (A) (A) (A) (A) (A)
                 (A) (A) (A) (A) (A) (A) (A) (A) (A) (A) (A) (A)
                 (A) (A) (A) (A) (A) (A) (A) (A) (A) (A) (A) (A)
                 (A) (A) (A) (A) (A) (A) (A) (A) (A) (A) (A) (A)
                 (A) (A) (A) (A) (A) (A) (A) (A) (A) (A) (A) (A)
                 (A) (A) (A) (A) (A) (A) (A) (A) (A) (A) (A) (A)
                 (A) (A) (A) (A) (A) (A) (A) (A) (A) (A) (A) (A)
                 (A) (A) (A) (A) (A) (A) (A) (A) (A) (A) (A) (A)
                 (A) (A) (A) (A) (A) (A) (A) (A) (A) (A) (A) (A)
                 (A) (A) (A) (A) (A) (A) (A) (A) (A) (A) (A) (A)
                 (A) (A) (A) (A) (A) (A) (A) (A) (A) (A) (A) (A)
                 (A) (A) (A) (A) (A) (A) (A) (A) (A) (A) (A) (A)
                 (A) (A) (A) (A) (A) (A) (A) (A) (A) (A) (A) (A)
                 (A) (A) (A) (A) (A) (A) (A) (A) (A) (A) (A) (A)
                 (A) (A)
 The electronic state is 2-A.
 Alpha  occ. eigenvalues --  -19.69431 -19.68818 -19.63770 -10.71245 -10.61000
 Alpha  occ. eigenvalues --  -10.59959 -10.57706 -10.54123  -1.26225  -1.18794
 Alpha  occ. eigenvalues --   -1.16950  -0.91010  -0.87539  -0.78443  -0.71049
 Alpha  occ. eigenvalues --   -0.67495  -0.64553  -0.58960  -0.56988  -0.56624
 Alpha  occ. eigenvalues --   -0.54129  -0.49802  -0.47160  -0.46306  -0.45808
 Alpha  occ. eigenvalues --   -0.43087  -0.42313  -0.39996  -0.39024  -0.38033
 Alpha  occ. eigenvalues --   -0.36912
 Alpha virt. eigenvalues --   -0.02104  -0.00448   0.00069   0.01681   0.02302
 Alpha virt. eigenvalues --    0.02696   0.03658   0.04988   0.05350   0.06228
 Alpha virt. eigenvalues --    0.06931   0.07790   0.08180   0.08694   0.10231
 Alpha virt. eigenvalues --    0.11596   0.12326   0.12371   0.13157   0.13239
 Alpha virt. eigenvalues --    0.14414   0.14812   0.15457   0.16211   0.16627
 Alpha virt. eigenvalues --    0.17318   0.18316   0.19402   0.19632   0.20312
 Alpha virt. eigenvalues --    0.21011   0.22486   0.23035   0.23346   0.25516
 Alpha virt. eigenvalues --    0.26152   0.26228   0.27578   0.28742   0.30056
 Alpha virt. eigenvalues --    0.30643   0.31108   0.31876   0.32874   0.33463
 Alpha virt. eigenvalues --    0.34280   0.36371   0.36668   0.37166   0.40141
 Alpha virt. eigenvalues --    0.41101   0.44849   0.45895   0.46690   0.49505
 Alpha virt. eigenvalues --    0.50704   0.54339   0.56650   0.57728   0.58849
 Alpha virt. eigenvalues --    0.60864   0.63393   0.63756   0.66762   0.67670
 Alpha virt. eigenvalues --    0.68921   0.70238   0.72647   0.72832   0.73261
 Alpha virt. eigenvalues --    0.75006   0.75991   0.78054   0.79526   0.81211
 Alpha virt. eigenvalues --    0.88817   0.91941   0.94569   0.99007   1.01337
 Alpha virt. eigenvalues --    1.03859   1.05400   1.07341   1.11395   1.14274
 Alpha virt. eigenvalues --    1.15427   1.16859   1.17957   1.18941   1.21876
 Alpha virt. eigenvalues --    1.22552   1.25149   1.28162   1.29923   1.32788
 Alpha virt. eigenvalues --    1.34351   1.35874   1.37717   1.38876   1.44340
 Alpha virt. eigenvalues --    1.46594   1.49382   1.51125   1.56325   1.57385
 Alpha virt. eigenvalues --    1.59029   1.59929   1.61150   1.62016   1.63911
 Alpha virt. eigenvalues --    1.66499   1.67133   1.69480   1.72337   1.73500
 Alpha virt. eigenvalues --    1.74784   1.79320   1.82559   1.85884   1.88435
 Alpha virt. eigenvalues --    1.92804   1.96795   2.01524   2.03014   2.07305
 Alpha virt. eigenvalues --    2.11783   2.13035   2.20483   2.28842   2.30810
 Alpha virt. eigenvalues --    2.34902   2.41079   2.46138   2.50756   2.51095
 Alpha virt. eigenvalues --    2.53351   2.55194   2.61389   2.62471   2.64191
 Alpha virt. eigenvalues --    2.68069   2.69407   2.71788   2.73839   2.79482
 Alpha virt. eigenvalues --    2.80894   2.82557   2.89908   2.91314   2.94008
 Alpha virt. eigenvalues --    2.98048   2.99301   3.00868   3.02735   3.07035
 Alpha virt. eigenvalues --    3.12735   3.13965   3.15861   3.24616   3.25521
 Alpha virt. eigenvalues --    3.29917   3.34119   3.38399   3.43686   3.57140
 Alpha virt. eigenvalues --    3.63843   3.68453   3.73292   3.84477   3.85793
 Alpha virt. eigenvalues --    3.87549   3.90141   4.02068   4.07263   4.15375
 Alpha virt. eigenvalues --    4.27367   5.07023   5.13094   5.16784   5.30857
 Alpha virt. eigenvalues --    5.36379   5.45081   5.61202   5.72157   5.94212
 Alpha virt. eigenvalues --   23.44672  23.92932  23.93125  24.05427  24.96299
 Alpha virt. eigenvalues --   49.93239  49.99396  50.10349
  Beta  occ. eigenvalues --  -19.68826 -19.68480 -19.63763 -10.71228 -10.61000
  Beta  occ. eigenvalues --  -10.58987 -10.57600 -10.54124  -1.26226  -1.16942
  Beta  occ. eigenvalues --   -1.15191  -0.90503  -0.86581  -0.77945  -0.70235
  Beta  occ. eigenvalues --   -0.64762  -0.63382  -0.58959  -0.56961  -0.54241
  Beta  occ. eigenvalues --   -0.51431  -0.49781  -0.47143  -0.45764  -0.43392
  Beta  occ. eigenvalues --   -0.42418  -0.39586  -0.39023  -0.36787  -0.36163
  Beta virt. eigenvalues --   -0.16706  -0.01323  -0.00217   0.00293   0.01697
  Beta virt. eigenvalues --    0.02318   0.02888   0.03826   0.05344   0.05698
  Beta virt. eigenvalues --    0.06567   0.07006   0.07811   0.08246   0.08736
  Beta virt. eigenvalues --    0.10343   0.11832   0.12451   0.12615   0.13161
  Beta virt. eigenvalues --    0.13347   0.14511   0.14875   0.15702   0.16337
  Beta virt. eigenvalues --    0.16717   0.17450   0.18406   0.19571   0.19647
  Beta virt. eigenvalues --    0.20393   0.21087   0.22407   0.23123   0.23437
  Beta virt. eigenvalues --    0.25567   0.26148   0.26346   0.27834   0.28789
  Beta virt. eigenvalues --    0.30104   0.30686   0.31501   0.32197   0.33008
  Beta virt. eigenvalues --    0.33556   0.34306   0.36530   0.37135   0.37349
  Beta virt. eigenvalues --    0.40224   0.41222   0.45008   0.46153   0.47118
  Beta virt. eigenvalues --    0.49598   0.50735   0.54536   0.56865   0.58079
  Beta virt. eigenvalues --    0.59184   0.61139   0.63645   0.64198   0.66833
  Beta virt. eigenvalues --    0.67721   0.68960   0.70252   0.72742   0.72859
  Beta virt. eigenvalues --    0.73846   0.75252   0.76822   0.78073   0.80672
  Beta virt. eigenvalues --    0.81851   0.88767   0.92020   0.94758   0.99816
  Beta virt. eigenvalues --    1.01661   1.04283   1.05767   1.08324   1.12205
  Beta virt. eigenvalues --    1.14843   1.16166   1.17372   1.18513   1.19306
  Beta virt. eigenvalues --    1.22222   1.22571   1.25346   1.28318   1.30454
  Beta virt. eigenvalues --    1.33107   1.34462   1.36265   1.38076   1.39093
  Beta virt. eigenvalues --    1.44781   1.46924   1.49858   1.51141   1.57072
  Beta virt. eigenvalues --    1.57425   1.59149   1.60126   1.61544   1.62403
  Beta virt. eigenvalues --    1.64350   1.66623   1.67547   1.69507   1.72412
  Beta virt. eigenvalues --    1.73761   1.74813   1.79373   1.82933   1.86170
  Beta virt. eigenvalues --    1.88846   1.93028   1.97159   2.01639   2.03225
  Beta virt. eigenvalues --    2.07517   2.12100   2.13417   2.20491   2.29315
  Beta virt. eigenvalues --    2.30872   2.34941   2.41347   2.46984   2.50567
  Beta virt. eigenvalues --    2.51002   2.53324   2.55311   2.61337   2.62476
  Beta virt. eigenvalues --    2.64229   2.67620   2.69379   2.71162   2.73904
  Beta virt. eigenvalues --    2.79652   2.81912   2.82803   2.89907   2.91586
  Beta virt. eigenvalues --    2.94055   2.97914   3.00565   3.01039   3.04924
  Beta virt. eigenvalues --    3.07527   3.13608   3.14490   3.16466   3.25017
  Beta virt. eigenvalues --    3.27020   3.30110   3.34604   3.38746   3.43646
  Beta virt. eigenvalues --    3.58904   3.64039   3.69145   3.74309   3.84508
  Beta virt. eigenvalues --    3.85825   3.89263   3.90334   4.02177   4.07501
  Beta virt. eigenvalues --    4.15419   4.27361   5.09266   5.13063   5.16733
  Beta virt. eigenvalues --    5.30915   5.39967   5.45085   5.63179   5.72133
  Beta virt. eigenvalues --    5.94206  23.45291  23.92942  23.93142  24.05428
  Beta virt. eigenvalues --   24.97187  49.92430  49.99398  50.10355
          Condensed to atoms (all electrons):
               1          2          3          4          5          6
     1  O    7.758157   0.293472  -0.001850   0.267523  -0.039081   0.025535
     2  H    0.293472   0.448867   0.032183  -0.052176   0.003744   0.003675
     3  C   -0.001850   0.032183   5.899675   0.070554  -0.311769   1.054186
     4  H    0.267523  -0.052176   0.070554   0.321063  -0.085743   0.047976
     5  C   -0.039081   0.003744  -0.311769  -0.085743  11.859859  -6.041535
     6  C    0.025535   0.003675   1.054186   0.047976  -6.041535  11.413642
     7  O   -0.000060  -0.000140  -0.072307   0.000083   0.264347   0.155348
     8  O    0.000327   0.000054  -0.050104  -0.000890  -0.348672   0.162808
     9  C    0.000072  -0.000138   0.022046   0.001049  -0.356763   0.131311
    10  C   -0.000047   0.000020  -0.010657   0.000055  -0.007385  -0.081381
    11  H    0.000021  -0.000000   0.001918   0.000012  -0.013056   0.018267
    12  H    0.000013  -0.000000   0.000760   0.000027  -0.009048   0.001250
    13  H   -0.000004  -0.000000  -0.001615  -0.000009   0.008885  -0.009418
    14  H    0.000022   0.000002   0.001659  -0.000020   0.001592   0.007032
    15  H   -0.000004  -0.000010   0.001018  -0.000003  -0.035229   0.010591
               7          8          9         10         11         12
     1  O   -0.000060   0.000327   0.000072  -0.000047   0.000021   0.000013
     2  H   -0.000140   0.000054  -0.000138   0.000020  -0.000000  -0.000000
     3  C   -0.072307  -0.050104   0.022046  -0.010657   0.001918   0.000760
     4  H    0.000083  -0.000890   0.001049   0.000055   0.000012   0.000027
     5  C    0.264347  -0.348672  -0.356763  -0.007385  -0.013056  -0.009048
     6  C    0.155348   0.162808   0.131311  -0.081381   0.018267   0.001250
     7  O    8.028507  -0.139815   0.056393  -0.072030   0.002830  -0.020287
     8  O   -0.139815   8.313836   0.200924  -0.044826  -0.087393  -0.009168
     9  C    0.056393   0.200924   5.420527   0.041581   0.443113   0.398633
    10  C   -0.072030  -0.044826   0.041581   5.452430  -0.056342  -0.020422
    11  H    0.002830  -0.087393   0.443113  -0.056342   0.530531  -0.037102
    12  H   -0.020287  -0.009168   0.398633  -0.020422  -0.037102   0.512839
    13  H   -0.000899   0.018038  -0.043041   0.399090  -0.000849  -0.004368
    14  H    0.001280  -0.006373  -0.042046   0.419266  -0.010904   0.004842
    15  H    0.004937  -0.020041   0.007910   0.383812   0.011041  -0.011771
              13         14         15
     1  O   -0.000004   0.000022  -0.000004
     2  H   -0.000000   0.000002  -0.000010
     3  C   -0.001615   0.001659   0.001018
     4  H   -0.000009  -0.000020  -0.000003
     5  C    0.008885   0.001592  -0.035229
     6  C   -0.009418   0.007032   0.010591
     7  O   -0.000899   0.001280   0.004937
     8  O    0.018038  -0.006373  -0.020041
     9  C   -0.043041  -0.042046   0.007910
    10  C    0.399090   0.419266   0.383812
    11  H   -0.000849  -0.010904   0.011041
    12  H   -0.004368   0.004842  -0.011771
    13  H    0.532385  -0.032599  -0.031687
    14  H   -0.032599   0.537135  -0.048487
    15  H   -0.031687  -0.048487   0.543420
          Atomic-Atomic Spin Densities.
               1          2          3          4          5          6
     1  O    0.555848   0.006469  -0.105512   0.008964  -0.039870   0.024125
     2  H    0.006469  -0.018402  -0.000189   0.001690   0.002240  -0.002570
     3  C   -0.105512  -0.000189   0.727057  -0.019534  -0.037474   0.042459
     4  H    0.008964   0.001690  -0.019534  -0.031015  -0.006364   0.007242
     5  C   -0.039870   0.002240  -0.037474  -0.006364   0.681118  -0.519930
     6  C    0.024125  -0.002570   0.042459   0.007242  -0.519930   0.352217
     7  O    0.000171  -0.000027   0.002031  -0.000001  -0.017190   0.015980
     8  O    0.000076  -0.000011   0.002419  -0.000025   0.008481  -0.005332
     9  C    0.000109   0.000006   0.002522  -0.000150  -0.011029   0.010685
    10  C    0.000018   0.000007  -0.000494  -0.000056  -0.000737   0.001539
    11  H    0.000010  -0.000003   0.000753   0.000013  -0.003679   0.002776
    12  H    0.000004  -0.000001  -0.000258  -0.000008   0.001824  -0.001198
    13  H   -0.000001   0.000001  -0.000216  -0.000007   0.001741  -0.000942
    14  H   -0.000001  -0.000002  -0.000010   0.000012   0.000179  -0.000445
    15  H    0.000009   0.000000   0.000033  -0.000015   0.000243  -0.000076
               7          8          9         10         11         12
     1  O    0.000171   0.000076   0.000109   0.000018   0.000010   0.000004
     2  H   -0.000027  -0.000011   0.000006   0.000007  -0.000003  -0.000001
     3  C    0.002031   0.002419   0.002522  -0.000494   0.000753  -0.000258
     4  H   -0.000001  -0.000025  -0.000150  -0.000056   0.000013  -0.000008
     5  C   -0.017190   0.008481  -0.011029  -0.000737  -0.003679   0.001824
     6  C    0.015980  -0.005332   0.010685   0.001539   0.002776  -0.001198
     7  O   -0.001797   0.002476  -0.000336  -0.000223   0.000005   0.000286
     8  O    0.002476  -0.007326  -0.001125   0.001161  -0.000007  -0.000477
     9  C   -0.000336  -0.001125  -0.003490   0.002639  -0.000244   0.000079
    10  C   -0.000223   0.001161   0.002639  -0.005198   0.000713  -0.000079
    11  H    0.000005  -0.000007  -0.000244   0.000713  -0.000281  -0.000013
    12  H    0.000286  -0.000477   0.000079  -0.000079  -0.000013  -0.000161
    13  H    0.000047  -0.000028  -0.000399  -0.000156  -0.000072   0.000026
    14  H    0.000028  -0.000085  -0.000090   0.000486  -0.000021  -0.000007
    15  H   -0.000079  -0.000177  -0.000575   0.000598  -0.000097   0.000077
              13         14         15
     1  O   -0.000001  -0.000001   0.000009
     2  H    0.000001  -0.000002   0.000000
     3  C   -0.000216  -0.000010   0.000033
     4  H   -0.000007   0.000012  -0.000015
     5  C    0.001741   0.000179   0.000243
     6  C   -0.000942  -0.000445  -0.000076
     7  O    0.000047   0.000028  -0.000079
     8  O   -0.000028  -0.000085  -0.000177
     9  C   -0.000399  -0.000090  -0.000575
    10  C   -0.000156   0.000486   0.000598
    11  H   -0.000072  -0.000021  -0.000097
    12  H    0.000026  -0.000007   0.000077
    13  H   -0.000067   0.000056  -0.000007
    14  H    0.000056  -0.000107  -0.000002
    15  H   -0.000007  -0.000002  -0.000108
 Mulliken charges and spin densities:
               1          2
     1  O   -0.304097   0.450419
     2  H    0.270449  -0.010793
     3  C   -0.635696   0.613587
     4  H    0.430500  -0.039254
     5  C    1.109852   0.059553
     6  C   -0.899287  -0.073471
     7  O   -0.208188   0.001374
     8  O    0.011295   0.000021
     9  C   -0.281572  -0.001397
    10  C   -0.403164   0.000218
    11  H    0.197912  -0.000145
    12  H    0.193802   0.000095
    13  H    0.166091  -0.000023
    14  H    0.167598  -0.000009
    15  H    0.184503  -0.000176
 Sum of Mulliken charges =  -0.00000   1.00000
 Mulliken charges and spin densities with hydrogens summed into heavy atoms:
               1          2
     1  O    0.396851   0.400372
     3  C   -0.635696   0.613587
     5  C    1.109852   0.059553
     6  C   -0.899287  -0.073471
     7  O   -0.208188   0.001374
     8  O    0.011295   0.000021
     9  C    0.110143  -0.001446
    10  C    0.115028   0.000009
 APT charges:
               1
     1  O   -0.274521
     2  H    0.324455
     3  C   -0.028930
     4  H   -0.100502
     5  C   -0.213949
     6  C    1.635133
     7  O   -0.859397
     8  O   -1.024076
     9  C    0.567692
    10  C   -0.045508
    11  H   -0.016869
    12  H   -0.014043
    13  H    0.007481
    14  H    0.011462
    15  H    0.031571
 Sum of APT charges =   0.00000
 APT charges with hydrogens summed into heavy atoms:
               1
     1  O   -0.050568
     3  C   -0.028930
     5  C   -0.213949
     6  C    1.635133
     7  O   -0.859397
     8  O   -1.024076
     9  C    0.536780
    10  C    0.005007
 Electronic spatial extent (au):  <R**2>=           1680.0343
 Charge=             -0.0000 electrons
 Dipole moment (field-independent basis, Debye):
    X=             -1.1370    Y=             -0.3197    Z=             -0.9422  Tot=              1.5108
 Quadrupole moment (field-independent basis, Debye-Ang):
   XX=            -37.2440   YY=            -52.0579   ZZ=            -48.0861
   XY=              7.9396   XZ=             -3.1708   YZ=             -0.3458
 Traceless Quadrupole moment (field-independent basis, Debye-Ang):
   XX=              8.5520   YY=             -6.2619   ZZ=             -2.2901
   XY=              7.9396   XZ=             -3.1708   YZ=             -0.3458
 Octapole moment (field-independent basis, Debye-Ang**2):
  XXX=            -10.5361  YYY=             -5.1173  ZZZ=             -1.7611  XYY=              7.7485
  XXY=             25.9265  XXZ=            -20.5763  XZZ=             -5.1504  YZZ=              1.4893
  YYZ=              0.0872  XYZ=             -0.3681
 Hexadecapole moment (field-independent basis, Debye-Ang**3):
 XXXX=          -1740.5757 YYYY=           -190.6263 ZZZZ=           -124.2111 XXXY=            158.7546
 XXXZ=            -65.8736 YYYX=             10.5289 YYYZ=              0.6872 ZZZX=              6.7218
 ZZZY=             -0.0448 XXYY=           -312.1454 XXZZ=           -340.7720 YYZZ=            -47.8122
 XXYZ=              2.8816 YYXZ=              3.3414 ZZXY=              1.6006
 N-N= 3.350404861234D+02 E-N=-1.654228893322D+03  KE= 4.187908871778D+02
  Exact polarizability: 140.934  -7.923  61.405   2.550   0.520  50.685
 Approx polarizability: 123.941 -13.136  79.981   3.773   1.593  57.777
                          Isotropic Fermi Contact Couplings
        Atom                 a.u.       MegaHertz       Gauss      10(-4) cm-1
     1  O(17)              0.05492     -33.29127     -11.87915     -11.10477
     2  H(1)              -0.00760     -33.96803     -12.12064     -11.33052
     3  C(13)              0.64874     729.30520     260.23423     243.27003
     4  H(1)              -0.03136    -140.15867     -50.01210     -46.75190
     5  C(13)              0.10358     116.44422      41.55020      38.84161
     6  C(13)              0.01034      11.62526       4.14818       3.87777
     7  O(17)             -0.00056       0.34239       0.12217       0.11421
     8  O(17)             -0.00649       3.93300       1.40339       1.31191
     9  C(13)             -0.00048      -0.53555      -0.19110      -0.17864
    10  C(13)             -0.00028      -0.30970      -0.11051      -0.10330
    11  H(1)              -0.00000      -0.01502      -0.00536      -0.00501
    12  H(1)              -0.00003      -0.13023      -0.04647      -0.04344
    13  H(1)              -0.00003      -0.12802      -0.04568      -0.04270
    14  H(1)              -0.00000      -0.00856      -0.00306      -0.00286
    15  H(1)               0.00001       0.02697       0.00962       0.00900
 --------------------------------------------------------
       Center         ----  Spin Dipole Couplings  ----
                      3XX-RR        3YY-RR        3ZZ-RR
 --------------------------------------------------------
     1   Atom        2.071486     -1.042914     -1.028572
     2   Atom       -0.019825      0.071332     -0.051507
     3   Atom        0.463725     -0.243833     -0.219892
     4   Atom        0.183355     -0.084932     -0.098423
     5   Atom        0.129157     -0.014530     -0.114627
     6   Atom        0.014189     -0.008368     -0.005821
     7   Atom        0.064035     -0.007379     -0.056656
     8   Atom        0.004222      0.005730     -0.009953
     9   Atom        0.000518     -0.000213     -0.000305
    10   Atom        0.000972     -0.000407     -0.000565
    11   Atom        0.001061     -0.000543     -0.000518
    12   Atom        0.001210     -0.000629     -0.000581
    13   Atom        0.000652     -0.000322     -0.000330
    14   Atom        0.001007     -0.000521     -0.000486
    15   Atom        0.001082     -0.000567     -0.000516
 --------------------------------------------------------
                        XY            XZ            YZ
 --------------------------------------------------------
     1   Atom       -0.181321      0.246364     -0.019138
     2   Atom        0.020485     -0.003104     -0.057321
     3   Atom       -0.061350      0.091284     -0.016024
     4   Atom        0.055577      0.083893      0.038861
     5   Atom       -0.146552     -0.035173      0.042063
     6   Atom       -0.007834      0.002068     -0.001998
     7   Atom       -0.011000      0.039300      0.008103
     8   Atom        0.000056      0.003087      0.008289
     9   Atom        0.000056      0.000242     -0.000007
    10   Atom       -0.000043      0.000017      0.000089
    11   Atom        0.000203      0.000262     -0.000008
    12   Atom       -0.000185      0.000363      0.000032
    13   Atom       -0.000020     -0.000101      0.000002
    14   Atom        0.000202     -0.000353     -0.000028
    15   Atom       -0.000278     -0.000407      0.000013
 --------------------------------------------------------


 ---------------------------------------------------------------------------------
              Anisotropic Spin Dipole Couplings in Principal Axis System
 ---------------------------------------------------------------------------------

       Atom             a.u.   MegaHertz   Gauss  10(-4) cm-1        Axes

              Baa    -1.0563    76.431    27.272    25.495  0.0102  0.8629  0.5053
     1 O(17)  Bbb    -1.0452    75.633    26.988    25.228 -0.0971 -0.5021  0.8593
              Bcc     2.1015  -152.064   -54.260   -50.723  0.9952 -0.0579  0.0787
 
              Baa    -0.0745   -39.754   -14.185   -13.261 -0.0881  0.3751  0.9228
     2 H(1)   Bbb    -0.0229   -12.218    -4.360    -4.075  0.9815 -0.1254  0.1447
              Bcc     0.0974    51.972    18.545    17.336  0.1699  0.9185 -0.3571
 
              Baa    -0.2523   -33.860   -12.082   -11.294  0.0329  0.9297  0.3667
     3 C(13)  Bbb    -0.2288   -30.708   -10.957   -10.243 -0.1531 -0.3579  0.9211
              Bcc     0.4812    64.568    23.039    21.537  0.9877 -0.0865  0.1306
 
              Baa    -0.1350   -72.052   -25.710   -24.034 -0.1350 -0.5094  0.8499
     4 H(1)   Bbb    -0.0849   -45.277   -16.156   -15.103 -0.3141  0.8355  0.4508
              Bcc     0.2199   117.329    41.866    39.137  0.9397  0.2061  0.2728
 
              Baa    -0.1331   -17.855    -6.371    -5.956 -0.1746 -0.5139  0.8399
     5 C(13)  Bbb    -0.0954   -12.803    -4.568    -4.270  0.5221  0.6749  0.5215
              Bcc     0.2285    30.657    10.939    10.226  0.8348 -0.5296 -0.1505
 
              Baa    -0.0111    -1.496    -0.534    -0.499  0.2680  0.9316  0.2453
     6 C(13)  Bbb    -0.0058    -0.776    -0.277    -0.259 -0.1789 -0.2021  0.9629
              Bcc     0.0169     2.272     0.811     0.758  0.9466 -0.3020  0.1125
 
              Baa    -0.0702     5.082     1.813     1.695 -0.2897 -0.1721  0.9415
     7 O(17)  Bbb    -0.0063     0.455     0.162     0.152  0.0454  0.9801  0.1931
              Bcc     0.0765    -5.537    -1.976    -1.847  0.9560 -0.0987  0.2761
 
              Baa    -0.0140     1.010     0.360     0.337 -0.1535 -0.3831  0.9109
     8 O(17)  Bbb     0.0043    -0.314    -0.112    -0.105  0.9576 -0.2851  0.0414
              Bcc     0.0096    -0.696    -0.248    -0.232  0.2439  0.8786  0.4106
 
              Baa    -0.0004    -0.050    -0.018    -0.017 -0.2678  0.1379  0.9536
     9 C(13)  Bbb    -0.0002    -0.029    -0.010    -0.010 -0.0260  0.9883 -0.1502
              Bcc     0.0006     0.079     0.028     0.026  0.9631  0.0650  0.2611
 
              Baa    -0.0006    -0.081    -0.029    -0.027 -0.0212 -0.4142  0.9100
    10 C(13)  Bbb    -0.0004    -0.049    -0.018    -0.016  0.0238  0.9097  0.4146
              Bcc     0.0010     0.131     0.047     0.044  0.9995 -0.0304  0.0094
 
              Baa    -0.0006    -0.322    -0.115    -0.107 -0.1921  0.7295  0.6565
    11 H(1)   Bbb    -0.0005    -0.279    -0.100    -0.093 -0.0357 -0.6737  0.7381
              Bcc     0.0011     0.601     0.215     0.201  0.9807  0.1183  0.1555
 
              Baa    -0.0007    -0.382    -0.136    -0.127 -0.1979 -0.6848  0.7013
    12 H(1)   Bbb    -0.0006    -0.310    -0.111    -0.103 -0.0650  0.7230  0.6877
              Bcc     0.0013     0.692     0.247     0.231  0.9781 -0.0905  0.1876
 
              Baa    -0.0003    -0.182    -0.065    -0.061  0.1008 -0.0107  0.9948
    13 H(1)   Bbb    -0.0003    -0.172    -0.061    -0.057  0.0219  0.9997  0.0085
              Bcc     0.0007     0.353     0.126     0.118  0.9947 -0.0209 -0.1010
 
              Baa    -0.0006    -0.307    -0.110    -0.102  0.2490 -0.5108  0.8228
    14 H(1)   Bbb    -0.0005    -0.286    -0.102    -0.095  0.0087  0.8508  0.5255
              Bcc     0.0011     0.593     0.212     0.198  0.9685  0.1237 -0.2163
 
              Baa    -0.0007    -0.354    -0.126    -0.118  0.2675  0.6819  0.6808
    15 H(1)   Bbb    -0.0006    -0.298    -0.106    -0.099 -0.0516  0.7157 -0.6965
              Bcc     0.0012     0.652     0.233     0.218  0.9622 -0.1512 -0.2266
 

 ---------------------------------------------------------------------------------

 Calling FoFJK, ICntrl=    100127 FMM=F ISym2X=0 I1Cent= 0 IOpClX= 1 NMat=1 NMatS=1 NMatT=0.
 Full mass-weighted force constant matrix:
 Low frequencies ----1066.3381  -15.2279   -0.0002    0.0006    0.0006    7.8825
 Low frequencies ---    8.4942   37.6682   52.5472
 ******    1 imaginary frequencies (negative Signs) ****** 
 Diagonal vibrational polarizability:
       96.1747197      71.4389757     200.1734855
 Harmonic frequencies (cm**-1), IR intensities (KM/Mole), Raman scattering
 activities (A**4/AMU), depolarization ratios for plane and unpolarized
 incident light, reduced masses (AMU), force constants (mDyne/A),
 and normal coordinates:
                      1                      2                      3
                      A                      A                      A
 Frequencies --  -1066.3381                37.6296                52.5359
 Red. masses --      1.0366                 4.1753                 6.7928
 Frc consts  --      0.6945                 0.0035                 0.0110
 IR Inten    --    394.1199                 8.4327                 1.3723
  Atom  AN      X      Y      Z        X      Y      Z        X      Y      Z
     1   8     0.00   0.00   0.01    -0.08  -0.12   0.24    -0.12   0.35   0.11
     2   1    -0.05  -0.05  -0.06     0.02   0.04   0.65    -0.37   0.36   0.10
     3   6    -0.04   0.01   0.01     0.01   0.09  -0.23     0.00  -0.30  -0.13
     4   1     0.95  -0.24  -0.17     0.00   0.07  -0.16     0.07   0.01  -0.05
     5   6    -0.03   0.02   0.00     0.00   0.06  -0.18     0.02  -0.25  -0.10
     6   6    -0.01  -0.00  -0.00    -0.01   0.04  -0.10     0.05  -0.12  -0.02
     7   8    -0.00   0.00   0.00    -0.03   0.03  -0.06     0.17  -0.09   0.09
     8   8    -0.00  -0.00  -0.00    -0.00   0.03  -0.06    -0.07  -0.02  -0.09
     9   6    -0.00  -0.00  -0.00    -0.02  -0.02   0.09    -0.05   0.15   0.01
    10   6    -0.00  -0.00   0.00     0.13  -0.08   0.16     0.04   0.12   0.06
    11   1    -0.00  -0.00  -0.00    -0.05  -0.01   0.10    -0.18   0.23  -0.03
    12   1    -0.00  -0.00  -0.00    -0.11   0.00   0.14     0.02   0.21   0.09
    13   1     0.00   0.00   0.00     0.12  -0.11   0.29     0.05   0.25   0.13
    14   1    -0.00  -0.00   0.00     0.22  -0.10   0.11    -0.03   0.05  -0.02
    15   1    -0.00   0.00   0.00     0.16  -0.09   0.15     0.17   0.04   0.10
                      4                      5                      6
                      A                      A                      A
 Frequencies --     82.4043               116.3999               144.9534
 Red. masses --      2.8759                 3.3852                 3.2024
 Frc consts  --      0.0115                 0.0270                 0.0396
 IR Inten    --      7.8446                 1.9459                25.2848
  Atom  AN      X      Y      Z        X      Y      Z        X      Y      Z
     1   8    -0.02   0.02  -0.00    -0.01   0.01  -0.01     0.20  -0.01  -0.04
     2   1    -0.02  -0.18  -0.52    -0.08   0.11   0.23     0.13   0.24   0.60
     3   6    -0.06  -0.10   0.21     0.03  -0.06  -0.11     0.05   0.19   0.12
     4   1    -0.07  -0.16   0.31     0.04   0.02  -0.16     0.11   0.28  -0.06
     5   6    -0.02   0.00   0.02     0.03  -0.02   0.01    -0.04  -0.12   0.02
     6   6    -0.00   0.05  -0.08     0.05   0.04   0.03    -0.03  -0.10  -0.04
     7   8     0.03   0.07  -0.12     0.11   0.08  -0.14     0.04  -0.07  -0.06
     8   8    -0.02   0.07  -0.10    -0.01   0.03   0.22    -0.11  -0.04  -0.06
     9   6    -0.02   0.07   0.02     0.01   0.07   0.03    -0.10   0.10   0.01
    10   6     0.10  -0.17   0.10    -0.19  -0.18  -0.04    -0.03   0.01   0.05
    11   1    -0.06   0.15  -0.08     0.08   0.19  -0.19    -0.20   0.20  -0.07
    12   1    -0.08   0.16   0.18     0.12   0.19   0.18    -0.04   0.18   0.11
    13   1     0.09  -0.14   0.23    -0.17  -0.05  -0.18    -0.01   0.21   0.11
    14   1     0.15  -0.27  -0.07    -0.37  -0.33  -0.21    -0.16  -0.11  -0.09
    15   1     0.16  -0.26   0.21    -0.19  -0.34   0.21     0.14  -0.13   0.16
                      7                      8                      9
                      A                      A                      A
 Frequencies --    165.5031               223.0546               255.8877
 Red. masses --      1.6004                 1.3338                 4.2002
 Frc consts  --      0.0258                 0.0391                 0.1620
 IR Inten    --     58.6206                 4.9933                12.2562
  Atom  AN      X      Y      Z        X      Y      Z        X      Y      Z
     1   8    -0.03  -0.01  -0.09    -0.07  -0.01  -0.01    -0.14  -0.00   0.01
     2   1    -0.34   0.34   0.76    -0.05  -0.02  -0.04     0.12  -0.15  -0.33
     3   6    -0.05  -0.11   0.06    -0.01   0.02  -0.02     0.05   0.17  -0.18
     4   1     0.01   0.08  -0.26    -0.03  -0.02  -0.07    -0.05   0.00  -0.25
     5   6    -0.01   0.01   0.10    -0.00   0.04   0.07    -0.04  -0.12   0.37
     6   6     0.00   0.04   0.01    -0.00  -0.01   0.02     0.00  -0.06   0.09
     7   8    -0.01   0.04  -0.04    -0.05  -0.02  -0.02     0.07  -0.02  -0.10
     8   8     0.03   0.02  -0.02     0.03  -0.04   0.00    -0.03  -0.01  -0.04
     9   6     0.03  -0.03  -0.01     0.04   0.00  -0.01    -0.01   0.07  -0.05
    10   6     0.06  -0.00  -0.00     0.07   0.02  -0.01     0.09  -0.02  -0.00
    11   1     0.05  -0.07   0.03     0.01   0.03  -0.03    -0.05   0.12  -0.10
    12   1    -0.02  -0.06  -0.05     0.09   0.02   0.00     0.02   0.12   0.01
    13   1     0.05  -0.10   0.03     0.13   0.61  -0.01     0.03  -0.40   0.14
    14   1     0.16   0.05   0.04    -0.40  -0.19  -0.17     0.48   0.09   0.03
    15   1     0.00   0.06  -0.07     0.49  -0.27   0.16    -0.14   0.15  -0.11
                     10                     11                     12
                      A                      A                      A
 Frequencies --    324.5547               336.3448               423.8465
 Red. masses --      5.2217                 3.2856                 3.8570
 Frc consts  --      0.3241                 0.2190                 0.4082
 IR Inten    --     15.3150                 7.2969                 3.3312
  Atom  AN      X      Y      Z        X      Y      Z        X      Y      Z
     1   8     0.31   0.04   0.07    -0.08  -0.01  -0.02     0.04   0.00   0.00
     2   1     0.45  -0.03  -0.07    -0.07  -0.01  -0.03     0.06   0.01   0.02
     3   6    -0.07  -0.23  -0.26     0.03   0.11   0.05    -0.10   0.04   0.01
     4   1     0.07   0.18   0.35    -0.02  -0.02  -0.12    -0.02   0.08   0.14
     5   6    -0.05  -0.01   0.22    -0.02  -0.11   0.01    -0.13  -0.12  -0.13
     6   6    -0.07   0.08   0.05     0.03   0.05  -0.02    -0.08   0.02   0.07
     7   8    -0.07   0.09  -0.03     0.22   0.11   0.05     0.06   0.08   0.03
     8   8    -0.04   0.09  -0.07    -0.02   0.09  -0.08    -0.09   0.01   0.23
     9   6    -0.08  -0.10  -0.01    -0.08  -0.22   0.02    -0.02  -0.03  -0.17
    10   6    -0.01  -0.01   0.02    -0.07  -0.02   0.01     0.21  -0.03  -0.11
    11   1     0.00  -0.22   0.12     0.07  -0.43   0.25     0.05  -0.06  -0.17
    12   1    -0.24  -0.20  -0.12    -0.32  -0.39  -0.19     0.06  -0.04  -0.21
    13   1     0.01   0.21   0.05    -0.03   0.30  -0.04     0.19   0.01   0.32
    14   1    -0.16  -0.05   0.01    -0.35  -0.05   0.08     0.45  -0.04  -0.22
    15   1     0.17  -0.08  -0.00     0.16  -0.10  -0.02     0.46  -0.07  -0.23
                     13                     14                     15
                      A                      A                      A
 Frequencies --    560.0274               575.0828               603.9306
 Red. masses --      5.5436                 1.1362                 5.4216
 Frc consts  --      1.0244                 0.2214                 1.1651
 IR Inten    --     22.0942               185.8740                24.5305
  Atom  AN      X      Y      Z        X      Y      Z        X      Y      Z
     1   8    -0.01  -0.01  -0.01    -0.03   0.01   0.01    -0.02  -0.00   0.00
     2   1    -0.26   0.02   0.03     0.67  -0.05  -0.06    -0.39  -0.01  -0.07
     3   6     0.09  -0.06  -0.01     0.01  -0.06   0.06     0.33  -0.01   0.03
     4   1    -0.01  -0.19   0.11     0.02   0.37  -0.62     0.13  -0.37  -0.16
     5   6     0.20   0.42   0.06     0.03   0.02  -0.01     0.23  -0.22  -0.02
     6   6     0.01  -0.11   0.02     0.01   0.00  -0.00     0.06   0.08   0.05
     7   8     0.15  -0.07   0.00    -0.01  -0.00  -0.00    -0.27  -0.02  -0.03
     8   8    -0.16  -0.06   0.04    -0.01   0.01   0.01    -0.06   0.18   0.06
     9   6    -0.26  -0.03  -0.12    -0.02  -0.00  -0.01    -0.13   0.01  -0.06
    10   6    -0.00  -0.01  -0.01     0.00  -0.00  -0.00    -0.00  -0.01  -0.01
    11   1    -0.21  -0.08  -0.07    -0.01  -0.02   0.00     0.07  -0.17   0.08
    12   1    -0.23  -0.05  -0.17    -0.03  -0.01  -0.02    -0.29  -0.12  -0.21
    13   1    -0.03   0.04   0.44    -0.00   0.01   0.04    -0.02   0.03   0.25
    14   1     0.23  -0.02  -0.11     0.02  -0.00  -0.01     0.12  -0.05  -0.12
    15   1     0.27  -0.04  -0.16     0.03  -0.01  -0.01     0.16  -0.07  -0.03
                     16                     17                     18
                      A                      A                      A
 Frequencies --    775.5913               798.3198               893.8698
 Red. masses --      9.7542                 1.2198                 3.1113
 Frc consts  --      3.4571                 0.4580                 1.4647
 IR Inten    --     18.9684                 3.8032                 7.7675
  Atom  AN      X      Y      Z        X      Y      Z        X      Y      Z
     1   8     0.00  -0.00   0.00    -0.00  -0.00  -0.00    -0.00  -0.00  -0.00
     2   1    -0.01   0.00   0.01     0.02   0.00   0.01     0.03   0.00   0.02
     3   6    -0.02   0.00   0.03    -0.03   0.01  -0.00    -0.04   0.00  -0.00
     4   1     0.02  -0.01   0.02    -0.01   0.03   0.04    -0.01   0.03   0.06
     5   6     0.01   0.05  -0.27    -0.02   0.02   0.01    -0.01   0.05   0.01
     6   6    -0.07  -0.13   0.76     0.02  -0.03  -0.04     0.03  -0.10  -0.02
     7   8     0.03   0.01  -0.22     0.01  -0.05   0.01     0.01  -0.15  -0.02
     8   8     0.01   0.04  -0.20    -0.01   0.03   0.02    -0.14   0.22   0.04
     9   6     0.04   0.03   0.01     0.03   0.08   0.01     0.08  -0.02   0.10
    10   6     0.01   0.01   0.02     0.02   0.03  -0.01     0.13  -0.07  -0.09
    11   1     0.02  -0.10   0.24     0.06  -0.23   0.47     0.22  -0.01  -0.01
    12   1    -0.12  -0.10  -0.15    -0.09  -0.24  -0.44    -0.26   0.06   0.30
    13   1     0.02  -0.06  -0.15    -0.00  -0.18  -0.06     0.18   0.10  -0.58
    14   1    -0.07  -0.08  -0.08     0.08  -0.21  -0.39    -0.22   0.11   0.28
    15   1    -0.16  -0.04   0.22    -0.15  -0.15   0.40    -0.02   0.13  -0.30
                     19                     20                     21
                      A                      A                      A
 Frequencies --    928.6099              1075.3704              1127.3672
 Red. masses --      2.8115                 4.0987                 2.0803
 Frc consts  --      1.4284                 2.7926                 1.5578
 IR Inten    --      1.8764                25.7625                25.9965
  Atom  AN      X      Y      Z        X      Y      Z        X      Y      Z
     1   8    -0.01  -0.00  -0.01     0.01  -0.00   0.01     0.00  -0.00   0.00
     2   1     0.08   0.01   0.04    -0.08  -0.01  -0.04    -0.02  -0.00  -0.01
     3   6    -0.12   0.03  -0.01     0.07  -0.02   0.00     0.01  -0.00   0.00
     4   1    -0.00   0.08   0.14    -0.02  -0.04  -0.10    -0.01  -0.01  -0.03
     5   6    -0.08   0.00  -0.01     0.04   0.03   0.01     0.01   0.01   0.00
     6   6     0.14  -0.05   0.01    -0.15  -0.03  -0.03    -0.03  -0.00   0.00
     7   8    -0.00  -0.14  -0.02     0.02   0.02   0.01     0.00   0.01  -0.00
     8   8     0.14   0.14   0.01    -0.21   0.04  -0.02    -0.06   0.01  -0.05
     9   6    -0.02   0.02  -0.10     0.33  -0.06  -0.17     0.10  -0.03   0.21
    10   6    -0.15  -0.01   0.09    -0.08   0.02   0.18    -0.10   0.02  -0.16
    11   1     0.37  -0.07  -0.23     0.34  -0.01  -0.28     0.07   0.04   0.13
    12   1    -0.04   0.00  -0.11     0.43  -0.10  -0.27     0.20  -0.03   0.19
    13   1    -0.18   0.13   0.66    -0.09   0.01   0.30    -0.14   0.01   0.48
    14   1     0.14   0.08   0.13    -0.06   0.05   0.25     0.43   0.00  -0.37
    15   1     0.24  -0.02  -0.16    -0.08  -0.03   0.29     0.39  -0.15  -0.25
                     22                     23                     24
                      A                      A                      A
 Frequencies --   1202.0747              1240.1495              1286.4832
 Red. masses --      1.7611                 1.2386                 3.9651
 Frc consts  --      1.4993                 1.1224                 3.8664
 IR Inten    --      6.1805                63.4484               772.6386
  Atom  AN      X      Y      Z        X      Y      Z        X      Y      Z
     1   8     0.01  -0.00   0.01    -0.08   0.01  -0.06     0.03  -0.00   0.02
     2   1    -0.08  -0.01  -0.04     0.63   0.10   0.34    -0.21  -0.03  -0.11
     3   6     0.02  -0.00   0.00     0.03  -0.00  -0.01    -0.10   0.02  -0.00
     4   1    -0.02   0.01  -0.09     0.16  -0.20   0.62    -0.03   0.09  -0.17
     5   6     0.00  -0.00   0.00     0.03  -0.02   0.00    -0.04   0.00  -0.01
     6   6    -0.06  -0.01  -0.01     0.03   0.02   0.01     0.39   0.15   0.06
     7   8     0.01   0.03   0.01    -0.01   0.01   0.00    -0.05  -0.01  -0.00
     8   8     0.01  -0.07  -0.01    -0.03  -0.02  -0.01    -0.18  -0.09  -0.02
     9   6     0.03   0.18   0.01     0.02   0.01  -0.00     0.10  -0.01  -0.04
    10   6    -0.03  -0.14  -0.01    -0.00  -0.02  -0.00    -0.02  -0.06  -0.01
    11   1     0.30  -0.14   0.35    -0.04   0.00   0.05    -0.67   0.12   0.28
    12   1    -0.27  -0.10  -0.34    -0.00  -0.02  -0.05     0.00  -0.08  -0.15
    13   1     0.02   0.28   0.04    -0.00   0.03   0.01    -0.01   0.10   0.07
    14   1    -0.02   0.14   0.39     0.00   0.02   0.05    -0.01   0.09   0.23
    15   1     0.11   0.08  -0.45     0.01   0.00  -0.04     0.02  -0.02  -0.09
                     25                     26                     27
                      A                      A                      A
 Frequencies --   1346.9889              1401.1827              1430.7178
 Red. masses --      1.2101                 1.2733                 1.3779
 Frc consts  --      1.2936                 1.4729                 1.6618
 IR Inten    --    105.5410                34.4578                 9.7819
  Atom  AN      X      Y      Z        X      Y      Z        X      Y      Z
     1   8    -0.00  -0.00  -0.00    -0.00   0.00  -0.00     0.00  -0.00   0.00
     2   1     0.00  -0.00   0.00     0.01   0.00   0.00    -0.01  -0.00  -0.00
     3   6     0.01  -0.00   0.00     0.01  -0.00   0.00    -0.01   0.00  -0.00
     4   1    -0.00   0.00   0.00    -0.00  -0.01   0.00     0.00   0.01  -0.00
     5   6     0.00   0.00   0.00     0.00   0.00   0.00    -0.00  -0.00   0.00
     6   6    -0.05  -0.03  -0.01    -0.05  -0.01  -0.01     0.05   0.01   0.01
     7   8     0.01  -0.02  -0.00     0.01  -0.01  -0.00    -0.01   0.01   0.00
     8   8     0.04   0.08   0.00     0.04   0.02   0.02    -0.04  -0.02  -0.02
     9   6    -0.03  -0.00   0.01     0.04  -0.01  -0.04    -0.09   0.01   0.09
    10   6    -0.00  -0.06   0.01     0.03  -0.01  -0.12     0.08  -0.01  -0.07
    11   1    -0.54   0.08   0.24    -0.33   0.00   0.23     0.48  -0.01  -0.29
    12   1     0.70  -0.07  -0.28    -0.26   0.10   0.21     0.45  -0.13  -0.28
    13   1     0.01   0.06  -0.04    -0.03   0.01   0.53     0.04  -0.03   0.32
    14   1    -0.03   0.01   0.13    -0.22   0.22   0.34    -0.33   0.06   0.17
    15   1     0.03   0.04  -0.18    -0.25  -0.15   0.34    -0.29   0.02   0.17
                     28                     29                     30
                      A                      A                      A
 Frequencies --   1492.6668              1501.5489              1513.9622
 Red. masses --      1.0412                 1.0676                 1.0780
 Frc consts  --      1.3669                 1.4182                 1.4558
 IR Inten    --     11.6363                 4.4485                18.9518
  Atom  AN      X      Y      Z        X      Y      Z        X      Y      Z
     1   8    -0.00  -0.00  -0.00     0.00  -0.00   0.00    -0.00   0.00  -0.00
     2   1    -0.00  -0.00  -0.00    -0.00  -0.00  -0.00     0.00   0.00   0.00
     3   6     0.00  -0.00   0.00    -0.00   0.00  -0.00     0.00  -0.00   0.00
     4   1     0.00   0.00   0.00     0.00   0.00   0.00    -0.00  -0.00  -0.00
     5   6     0.00  -0.00  -0.00     0.00  -0.00   0.00     0.00   0.00  -0.00
     6   6    -0.00   0.00  -0.00     0.02  -0.00   0.00    -0.02   0.00  -0.00
     7   8     0.00  -0.01  -0.00    -0.00   0.01   0.00     0.01  -0.01  -0.00
     8   8     0.00   0.00   0.00    -0.02  -0.01  -0.01     0.01   0.01   0.01
     9   6    -0.01  -0.02   0.01    -0.01  -0.01  -0.06     0.05  -0.01   0.04
    10   6    -0.01  -0.04  -0.01     0.02  -0.02   0.02     0.03  -0.01   0.02
    11   1     0.00   0.06  -0.13     0.18  -0.35   0.38    -0.23   0.28  -0.23
    12   1    -0.00  -0.06  -0.04     0.25   0.32   0.39    -0.29  -0.21  -0.19
    13   1     0.07   0.64  -0.13     0.02   0.22   0.17     0.01   0.14   0.28
    14   1     0.56   0.11   0.01    -0.06  -0.20  -0.25    -0.20  -0.29  -0.33
    15   1    -0.36  -0.04   0.28    -0.31   0.25  -0.18    -0.33   0.34  -0.30
                     31                     32                     33
                      A                      A                      A
 Frequencies --   1754.3574              1838.1042              2275.7959
 Red. masses --      1.1094                11.6858                 9.3303
 Frc consts  --      2.0117                23.2620                28.4716
 IR Inten    --    547.4635               373.7515                20.3974
  Atom  AN      X      Y      Z        X      Y      Z        X      Y      Z
     1   8    -0.04  -0.03  -0.01    -0.01  -0.01  -0.00     0.03   0.02   0.01
     2   1    -0.22  -0.07  -0.10    -0.03  -0.02  -0.01     0.08   0.02   0.02
     3   6    -0.00  -0.01  -0.01     0.06  -0.02   0.00    -0.55   0.15  -0.02
     4   1     0.29   0.85   0.34     0.06   0.18   0.08    -0.18  -0.39  -0.22
     5   6     0.06  -0.02   0.00    -0.01  -0.01  -0.00     0.62  -0.16   0.03
     6   6    -0.00  -0.01  -0.00    -0.26   0.73   0.08    -0.11   0.02  -0.01
     7   8    -0.01   0.01   0.00     0.17  -0.48  -0.05     0.00  -0.00   0.00
     8   8    -0.00  -0.00  -0.00    -0.01  -0.07  -0.01    -0.00  -0.00  -0.00
     9   6     0.00  -0.00  -0.00    -0.03   0.02   0.00     0.00   0.00  -0.00
    10   6    -0.00   0.00  -0.00     0.01  -0.00   0.01    -0.00   0.00   0.00
    11   1    -0.01   0.00   0.00     0.17  -0.10   0.06     0.00   0.00   0.00
    12   1    -0.01  -0.00   0.00     0.13   0.09   0.03    -0.00  -0.00   0.00
    13   1    -0.00  -0.00   0.00     0.01  -0.04  -0.06     0.00  -0.00   0.00
    14   1     0.00   0.00  -0.00    -0.03  -0.01   0.00     0.00  -0.00  -0.00
    15   1     0.00  -0.00  -0.00     0.05   0.02  -0.05     0.00   0.00  -0.00
                     34                     35                     36
                      A                      A                      A
 Frequencies --   3076.0389              3108.4271              3151.5841
 Red. masses --      1.0354                 1.0608                 1.1014
 Frc consts  --      5.7719                 6.0390                 6.4456
 IR Inten    --     10.3341                18.4007                15.3543
  Atom  AN      X      Y      Z        X      Y      Z        X      Y      Z
     1   8     0.00   0.00  -0.00    -0.00  -0.00  -0.00     0.00   0.00   0.00
     2   1     0.00  -0.00   0.00    -0.00   0.00  -0.00     0.00  -0.00   0.00
     3   6     0.00   0.00   0.00    -0.00   0.00  -0.00     0.00  -0.00   0.00
     4   1    -0.00  -0.00  -0.00     0.00   0.00   0.00    -0.00  -0.00  -0.00
     5   6    -0.00   0.00  -0.00     0.00  -0.00   0.00    -0.00   0.00  -0.00
     6   6     0.00   0.00   0.00    -0.00  -0.00  -0.00     0.00   0.00  -0.00
     7   8     0.00  -0.00  -0.00    -0.00   0.00  -0.00    -0.00  -0.00  -0.00
     8   8    -0.00  -0.00  -0.00     0.00   0.00  -0.00     0.00  -0.00   0.00
     9   6    -0.00   0.00  -0.00     0.03  -0.02   0.06    -0.01  -0.02  -0.01
    10   6    -0.03  -0.00   0.04    -0.01   0.00  -0.01    -0.06   0.05  -0.03
    11   1     0.00   0.01   0.01    -0.20  -0.44  -0.26     0.11   0.24   0.15
    12   1     0.00  -0.02   0.02    -0.11   0.68  -0.43    -0.01   0.02  -0.02
    13   1     0.61  -0.06   0.06     0.13  -0.01   0.02     0.65  -0.06   0.05
    14   1    -0.12   0.49  -0.31     0.01  -0.06   0.03     0.12  -0.57   0.37
    15   1    -0.19  -0.42  -0.24     0.01   0.02   0.01    -0.02   0.00  -0.01
                     37                     38                     39
                      A                      A                      A
 Frequencies --   3155.3878              3176.1637              3837.3339
 Red. masses --      1.1049                 1.1074                 1.0666
 Frc consts  --      6.4813                 6.5820                 9.2537
 IR Inten    --      2.0059                14.7592               152.6129
  Atom  AN      X      Y      Z        X      Y      Z        X      Y      Z
     1   8    -0.00   0.00   0.00     0.00   0.00   0.00    -0.01  -0.06   0.02
     2   1     0.00  -0.00   0.00     0.00  -0.00   0.00     0.06   0.93  -0.36
     3   6     0.00  -0.00   0.00    -0.00   0.00   0.00    -0.00  -0.00  -0.00
     4   1    -0.00  -0.00  -0.00    -0.00  -0.00  -0.00     0.03   0.00   0.02
     5   6    -0.00   0.00  -0.00    -0.00   0.00   0.00     0.00   0.00   0.00
     6   6    -0.00   0.00  -0.00     0.00  -0.00  -0.00    -0.00   0.00  -0.00
     7   8     0.00  -0.00   0.00    -0.00   0.00   0.00     0.00  -0.00   0.00
     8   8     0.00  -0.00  -0.00    -0.00   0.00   0.00     0.00   0.00   0.00
     9   6     0.01   0.05   0.00    -0.01  -0.07  -0.01    -0.00   0.00  -0.00
    10   6    -0.05  -0.05  -0.02    -0.02  -0.06  -0.00     0.00  -0.00   0.00
    11   1    -0.16  -0.35  -0.21     0.22   0.51   0.32     0.00   0.00   0.00
    12   1     0.05  -0.30   0.20    -0.06   0.35  -0.24     0.00  -0.00   0.00
    13   1     0.40  -0.05   0.03     0.08  -0.02   0.01     0.00  -0.00  -0.00
    14   1    -0.04   0.13  -0.09    -0.07   0.30  -0.20    -0.00   0.00  -0.00
    15   1     0.25   0.55   0.33     0.18   0.40   0.24    -0.00   0.00   0.00

 -------------------
 - Thermochemistry -
 -------------------
 Temperature   298.150 Kelvin.  Pressure   1.00000 Atm.
 Atom     1 has atomic number  8 and mass  15.99491
 Atom     2 has atomic number  1 and mass   1.00783
 Atom     3 has atomic number  6 and mass  12.00000
 Atom     4 has atomic number  1 and mass   1.00783
 Atom     5 has atomic number  6 and mass  12.00000
 Atom     6 has atomic number  6 and mass  12.00000
 Atom     7 has atomic number  8 and mass  15.99491
 Atom     8 has atomic number  8 and mass  15.99491
 Atom     9 has atomic number  6 and mass  12.00000
 Atom    10 has atomic number  6 and mass  12.00000
 Atom    11 has atomic number  1 and mass   1.00783
 Atom    12 has atomic number  1 and mass   1.00783
 Atom    13 has atomic number  1 and mass   1.00783
 Atom    14 has atomic number  1 and mass   1.00783
 Atom    15 has atomic number  1 and mass   1.00783
 Molecular mass:   115.03952 amu.
 Principal axes and moments of inertia in atomic units:
                           1         2         3
     Eigenvalues --   287.019962619.311602731.91812
           X            0.99993   0.00846  -0.00847
           Y           -0.00854   0.99992  -0.00936
           Z            0.00839   0.00943   0.99992
 This molecule is an asymmetric top.
 Rotational symmetry number  1.
 Rotational temperatures (Kelvin)      0.30177     0.03307     0.03170
 Rotational constants (GHZ):           6.28786     0.68901     0.66061
    1 imaginary frequencies ignored.
 Zero-point vibrational energy     282858.5 (Joules/Mol)
                                   67.60481 (Kcal/Mol)
 Warning -- explicit consideration of  14 degrees of freedom as
           vibrations may cause significant error
 Vibrational temperatures:     54.14    75.59   118.56   167.47   208.56
          (Kelvin)            238.12   320.93   368.17   466.96   483.93
                              609.82   805.75   827.42   868.92  1115.90
                             1148.60  1286.08  1336.06  1547.22  1622.03
                             1729.52  1784.30  1850.96  1938.02  2015.99
                             2058.48  2147.61  2160.39  2178.25  2524.13
                             2644.62  3274.36  4425.73  4472.33  4534.43
                             4539.90  4569.79  5521.07
 
 Zero-point correction=                           0.107735 (Hartree/Particle)
 Thermal correction to Energy=                    0.117974
 Thermal correction to Enthalpy=                  0.118919
 Thermal correction to Gibbs Free Energy=         0.070242
 Sum of electronic and zero-point Energies=           -420.066726
 Sum of electronic and thermal Energies=              -420.056486
 Sum of electronic and thermal Enthalpies=            -420.055542
 Sum of electronic and thermal Free Energies=         -420.104219
 
                     E (Thermal)             CV                S
                      KCal/Mol        Cal/Mol-Kelvin    Cal/Mol-Kelvin
 Total                   74.030             33.063            102.450
 Electronic               0.000              0.000              1.377
 Translational            0.889              2.981             40.136
 Rotational               0.889              2.981             29.109
 Vibrational             72.253             27.101             31.828
 Vibration     1          0.594              1.982              5.380
 Vibration     2          0.596              1.977              4.720
 Vibration     3          0.600              1.961              3.833
 Vibration     4          0.608              1.936              3.159
 Vibration     5          0.616              1.908              2.737
 Vibration     6          0.624              1.885              2.486
 Vibration     7          0.649              1.806              1.934
 Vibration     8          0.666              1.753              1.690
 Vibration     9          0.709              1.626              1.287
 Vibration    10          0.717              1.603              1.229
 Vibration    11          0.786              1.418              0.879
 Vibration    12          0.916              1.118              0.524
 Vibration    13          0.931              1.085              0.495
 Vibration    14          0.962              1.023              0.443
                       Q            Log10(Q)             Ln(Q)
 Total Bot       0.491104D-32        -32.308827        -74.393823
 Total V=0       0.176134D+18         17.245844         39.710024
 Vib (Bot)       0.986938D-46        -46.005710       -105.932063
 Vib (Bot)    1  0.549939D+01          0.740315          1.704638
 Vib (Bot)    2  0.393389D+01          0.594823          1.369630
 Vib (Bot)    3  0.249824D+01          0.397634          0.915586
 Vib (Bot)    4  0.175709D+01          0.244794          0.563659
 Vib (Bot)    5  0.140086D+01          0.146395          0.337086
 Vib (Bot)    6  0.121942D+01          0.086153          0.198375
 Vib (Bot)    7  0.885652D+00         -0.052737         -0.121431
 Vib (Bot)    8  0.760575D+00         -0.118858         -0.273681
 Vib (Bot)    9  0.577616D+00         -0.238361         -0.548847
 Vib (Bot)   10  0.553337D+00         -0.257010         -0.591788
 Vib (Bot)   11  0.413054D+00         -0.383993         -0.884176
 Vib (Bot)   12  0.277519D+00         -0.556708         -1.281867
 Vib (Bot)   13  0.266277D+00         -0.574666         -1.323216
 Vib (Bot)   14  0.246246D+00         -0.608631         -1.401424
 Vib (V=0)       0.353965D+04          3.548961          8.171784
 Vib (V=0)    1  0.602208D+01          0.779746          1.795432
 Vib (V=0)    2  0.446554D+01          0.649874          1.496391
 Vib (V=0)    3  0.304778D+01          0.483984          1.114414
 Vib (V=0)    4  0.232685D+01          0.366768          0.844514
 Vib (V=0)    5  0.198742D+01          0.298289          0.686836
 Vib (V=0)    6  0.181795D+01          0.259581          0.597708
 Vib (V=0)    7  0.151704D+01          0.180998          0.416764
 Vib (V=0)    8  0.141021D+01          0.149282          0.343735
 Vib (V=0)    9  0.126396D+01          0.101734          0.234252
 Vib (V=0)   10  0.124578D+01          0.095440          0.219759
 Vib (V=0)   11  0.114855D+01          0.060149          0.138498
 Vib (V=0)   12  0.107185D+01          0.030135          0.069390
 Vib (V=0)   13  0.106648D+01          0.027954          0.064367
 Vib (V=0)   14  0.105735D+01          0.024218          0.055764
 Electronic      0.200000D+01          0.301030          0.693147
 Translational   0.484981D+08          7.685724         17.697035
 Rotational      0.513014D+06          5.710129         13.148058
 ***** Axes restored to original set *****
 -------------------------------------------------------------------
 Center     Atomic                   Forces (Hartrees/Bohr)
 Number     Number              X              Y              Z
 -------------------------------------------------------------------
      1        8           0.000106186    0.000057318   -0.000252399
      2        1           0.000090549    0.000081152    0.000129336
      3        6           0.000699791   -0.000119733   -0.000115248
      4        1          -0.001905791    0.000322150    0.000244127
      5        6           0.000585115   -0.000344316   -0.000106103
      6        6           0.000266728    0.000002044    0.000087448
      7        8           0.000029357   -0.000029006   -0.000014584
      8        8           0.000068138    0.000011159    0.000019425
      9        6           0.000049488    0.000011799    0.000007052
     10        6           0.000003566    0.000003655   -0.000001984
     11        1           0.000003595    0.000000019    0.000001910
     12        1           0.000001875   -0.000000050    0.000000720
     13        1           0.000000103    0.000001012   -0.000000324
     14        1           0.000000642    0.000001475    0.000001636
     15        1           0.000000658    0.000001323   -0.000001013
 -------------------------------------------------------------------
 Cartesian Forces:  Max     0.001905791 RMS     0.000332774

 GradGradGradGradGradGradGradGradGradGradGradGradGradGradGradGradGradGrad
 Berny optimization.
 Search for a local minimum.
 Step number   1 out of a maximum of    2
 All quantities printed in internal units (Hartrees-Bohrs-Radians)
 Second derivative matrix not updated -- analytic derivatives used.
 ITU=  0
     Eigenvalues ---   -0.04971   0.00022   0.00073   0.00091   0.00186
     Eigenvalues ---    0.00316   0.00474   0.00547   0.01417   0.01981
     Eigenvalues ---    0.02911   0.03059   0.03444   0.04229   0.06249
     Eigenvalues ---    0.07395   0.07904   0.08797   0.10251   0.11009
     Eigenvalues ---    0.11534   0.14139   0.16826   0.17053   0.20007
     Eigenvalues ---    0.28718   0.29417   0.32620   0.49114   0.51246
     Eigenvalues ---    0.64690   0.76674   0.79084   0.86116   0.87731
     Eigenvalues ---    0.93170   0.95535   1.72026   2.32669
 Eigenvalue     1 is  -4.97D-02 should be greater than     0.000000 Eigenvector:
                          X4        Y4        X3        Z4        X5
   1                    0.93234  -0.21755  -0.13519  -0.13217  -0.10775
                          Y5        Y2        X6        Z2        X7
   1                    0.08208  -0.08026  -0.06617  -0.05615  -0.04961
 Angle between quadratic step and forces=  20.23 degrees.
 Linear search not attempted -- first point.
 B after Tr=     0.002166   -0.000846   -0.000309
         Rot=    1.000000   -0.000006   -0.000052    0.000031 Ang=  -0.01 deg.
 Variable       Old X    -DE/DX   Delta X   Delta X   Delta X     New X
                                 (Linear)    (Quad)   (Total)
    X1        8.49743   0.00011   0.00000  -0.00004   0.00216   8.49959
    Y1       -0.50591   0.00006   0.00000   0.00442   0.00304  -0.50288
    Z1        0.62952  -0.00025   0.00000  -0.00180  -0.00300   0.62653
    X2        8.58054   0.00009   0.00000  -0.00535  -0.00311   8.57743
    Y2        1.19450   0.00008   0.00000   0.00775   0.00637   1.20087
    Z2       -0.04259   0.00013   0.00000   0.00357   0.00238  -0.04021
    X3        4.15719   0.00070   0.00000   0.00880   0.01091   4.16810
    Y3       -0.61229  -0.00012   0.00000  -0.00431  -0.00541  -0.61770
    Z3       -0.12174  -0.00012   0.00000  -0.00344  -0.00419  -0.12592
    X4        6.73753  -0.00191   0.00000  -0.03881  -0.03673   6.70080
    Y4       -1.22739   0.00032   0.00000   0.00652   0.00526  -1.22213
    Z4       -0.07974   0.00024   0.00000   0.00363   0.00261  -0.07713
    X5        1.96803   0.00059   0.00000   0.00713   0.00928   1.97731
    Y5        0.02531  -0.00034   0.00000  -0.00700  -0.00797   0.01734
    Z5       -0.17712  -0.00011   0.00000  -0.00189  -0.00241  -0.17953
    X6       -0.69139   0.00027   0.00000   0.00447   0.00664  -0.68475
    Y6        0.73678   0.00000   0.00000  -0.00220  -0.00300   0.73378
    Z6       -0.33521   0.00009   0.00000   0.00158   0.00135  -0.33386
    X7       -1.42100   0.00003   0.00000   0.00400   0.00633  -1.41467
    Y7        2.86961  -0.00003   0.00000  -0.00216  -0.00292   2.86669
    Z7       -0.09581  -0.00001   0.00000   0.00160   0.00147  -0.09433
    X8       -2.14405   0.00007   0.00000   0.00010   0.00211  -2.14194
    Y8       -1.26662   0.00001   0.00000  -0.00012  -0.00082  -1.26745
    Z8       -0.77941   0.00002   0.00000   0.00154   0.00144  -0.77797
    X9       -4.82545   0.00005   0.00000  -0.00039   0.00163  -4.82382
    Y9       -0.79315   0.00001   0.00000   0.00138   0.00084  -0.79230
    Z9       -0.94051   0.00001   0.00000   0.00036   0.00055  -0.93997
   X10       -5.98695   0.00000   0.00000  -0.00267  -0.00036  -5.98731
   Y10       -0.56195   0.00000   0.00000   0.00129   0.00080  -0.56116
   Z10        1.66780  -0.00000   0.00000  -0.00047  -0.00016   1.66764
   X11       -5.55646   0.00000   0.00000  -0.00081   0.00100  -5.55546
   Y11       -2.42341   0.00000   0.00000   0.00151   0.00103  -2.42238
   Z11       -1.95932   0.00000   0.00000   0.00006   0.00031  -1.95902
   X12       -5.12779   0.00000   0.00000  -0.00025   0.00176  -5.12603
   Y12        0.91150  -0.00000   0.00000   0.00120   0.00070   0.91220
   Z12       -2.05850   0.00000   0.00000   0.00004   0.00027  -2.05823
   X13       -8.03142   0.00000   0.00000  -0.00260  -0.00030  -8.03172
   Y13       -0.34718   0.00000   0.00000   0.00122   0.00086  -0.34632
   Z13        1.49509  -0.00000   0.00000  -0.00138  -0.00085   1.49424
   X14       -5.59921   0.00000   0.00000  -0.00321  -0.00089  -5.60010
   Y14       -2.25388   0.00000   0.00000   0.00121   0.00068  -2.25319
   Z14        2.78001   0.00000   0.00000  -0.00030  -0.00005   2.77996
   X15       -5.24181   0.00000   0.00000  -0.00295  -0.00044  -5.24225
   Y15        1.08578   0.00000   0.00000   0.00110   0.00055   1.08633
   Z15        2.65440  -0.00000   0.00000   0.00003   0.00028   2.65468
         Item               Value     Threshold  Converged?
 Maximum Force            0.001906     0.000450     NO 
 RMS     Force            0.000333     0.000300     NO 
 Maximum Displacement     0.036729     0.001800     NO 
 RMS     Displacement     0.006515     0.001200     NO 
 Predicted change in Energy=-1.382112D-04
 GradGradGradGradGradGradGradGradGradGradGradGradGradGradGradGradGradGrad


 ----------------------------------------------------------------------

 Electric dipole moment (input orientation):
 (Debye = 10**-18 statcoulomb cm , SI units = C m)
                  (au)            (Debye)         (10**-30 SI)
   Tot        0.594408D+00      0.151083D+01      0.503960D+01
   x         -0.447309D+00     -0.113695D+01     -0.379245D+01
   y         -0.125839D+00     -0.319850D+00     -0.106691D+01
   z         -0.370675D+00     -0.942161D+00     -0.314271D+01

 Dipole polarizability, Alpha (input orientation).
 (esu units = cm**3 , SI units = C**2 m**2 J**-1)
 Alpha(0;0):
               (au)            (10**-24 esu)      (10**-40 SI)
   iso        0.843413D+02      0.124981D+02      0.139060D+02
   aniso      0.866085D+02      0.128340D+02      0.142798D+02
   xx         0.140936D+03      0.208846D+02      0.232372D+02
   yx        -0.791396D+01     -0.117273D+01     -0.130483D+01
   yy         0.614029D+02      0.909896D+01      0.101240D+02
   zx         0.255010D+01      0.377886D+00      0.420455D+00
   zy         0.520001D+00      0.770561D-01      0.857365D-01
   zz         0.506850D+02      0.751074D+01      0.835683D+01

 ----------------------------------------------------------------------

 Dipole orientation:
     8          5.10950099          1.45901783         -6.68003633
     1          5.50255718         -0.32859073         -6.68343209
     6          2.85888453          0.97753377         -2.92286436
     1          4.56797371          1.83773696         -4.76061299
     6          1.41239654          0.13100485         -1.37590495
     6         -0.27028403         -0.85525119          0.57334766
     8         -1.13484524         -2.95011373          0.52158061
     8         -0.68540545          0.85627307          2.36765609
     6         -2.35678167          0.09865023          4.38571529
     6         -5.09867408          0.31206062          3.58427728
     1         -1.90616968          1.39649899          5.91628714
     1         -1.87961471         -1.82528870          4.94952930
     1         -6.32115988         -0.13395861          5.18503212
     1         -5.51713445          2.23078566          2.95710104
     1         -5.51755986         -1.00820662          2.05945830

 Electric dipole moment (dipole orientation):
 (Debye = 10**-18 statcoulomb cm , SI units = C m)
                  (au)            (Debye)         (10**-30 SI)
   Tot        0.594408D+00      0.151083D+01      0.503960D+01
   x          0.000000D+00      0.000000D+00      0.000000D+00
   y          0.000000D+00      0.000000D+00      0.000000D+00
   z          0.594408D+00      0.151083D+01      0.503960D+01

 Dipole polarizability, Alpha (dipole orientation).
 (esu units = cm**3 , SI units = C**2 m**2 J**-1)
 Alpha(0;0):
               (au)            (10**-24 esu)      (10**-40 SI)
   iso        0.843413D+02      0.124981D+02      0.139060D+02
   aniso      0.866085D+02      0.128340D+02      0.142798D+02
   xx         0.876499D+02      0.129884D+02      0.144515D+02
   yx         0.124101D+02      0.183899D+01      0.204615D+01
   yy         0.630903D+02      0.934902D+01      0.104022D+02
   zx        -0.429752D+02     -0.636827D+01     -0.708566D+01
   zy        -0.103548D+02     -0.153442D+01     -0.170728D+01
   zz         0.102284D+03      0.151569D+02      0.168643D+02

 ----------------------------------------------------------------------
 1\1\GINC-AJ\Freq\UM062X\6-311++G(d,p)\C5H7O3(2)\AAYUSH\16-Aug-2025\0\\
 # freq 6-311++g(d,p) m062x\\Title Card Required\\0,2\O,4.496648,-0.267
 717,0.33313\H,4.540628,0.632103,-0.022537\C,2.199889,-0.32401,-0.06442
 1\H,3.565345,-0.649507,-0.042198\C,1.041435,0.013392,-0.093726\C,-0.36
 5869,0.389889,-0.177383\O,-0.751961,1.518533,-0.050699\O,-1.134583,-0.
 670269,-0.412448\C,-2.55352,-0.419715,-0.497699\C,-3.168157,-0.297373,
 0.882561\H,-2.940353,-1.282415,-1.036829\H,-2.713509,0.482345,-1.08931
 1\H,-4.250045,-0.183719,0.79117\H,-2.962976,-1.1927,1.47112\H,-2.77384
 6,0.574571,1.404647\\Version=ES64L-G16RevA.03\State=2-A\HF=-420.174460
 8\S2=0.765744\S2-1=0.\S2A=0.750187\RMSD=6.004e-09\RMSF=3.328e-04\ZeroP
 oint=0.1077351\Thermal=0.1179745\Dipole=-0.4473092,-0.1258387,-0.37067
 47\DipoleDeriv=-0.1683717,-0.0462971,0.0816483,0.0246501,-0.3025678,-0
 .055972,0.3960138,-0.0902626,-0.3526228,0.4175354,0.0631257,-0.0323543
 ,0.3192569,0.2425762,0.0684314,-0.1204999,0.0693148,0.3132531,0.308219
 8,0.133936,0.1242466,0.1453537,-0.2440304,-0.0059967,0.1737656,0.00380
 61,-0.1509788,-0.7436277,0.0089488,-0.1430727,-0.3321936,0.2541262,-0.
 0068824,-0.3943332,0.0251373,0.187996,-0.5919617,-0.0412584,-0.0531903
 ,-0.1652437,-0.0078686,-0.0069343,-0.169301,-0.0024361,-0.0420178,2.74
 92453,-0.0342801,0.1181084,0.5368419,1.7526021,0.1608967,0.3462262,0.1
 882753,0.4035511,-1.0819854,0.2950215,-0.0010013,0.1511393,-1.145855,-
 0.0598531,-0.0501912,-0.0692027,-0.3503506,-1.8578681,-0.3897644,-0.03
 82029,-0.6501744,-0.8599778,-0.0969766,-0.1980209,-0.1355057,-0.354381
 1,1.0931749,0.0986544,-0.0439951,-0.0352305,0.2552196,0.0016111,-0.015
 8068,0.0459492,0.3546816,-0.0898296,-0.0343211,0.0151054,0.0085798,0.0
 356026,-0.0181661,0.0448823,-0.050363,-0.0822971,-0.0363802,-0.0235137
 ,-0.000189,-0.0616974,-0.0212403,-0.0907951,-0.0189673,-0.0647474,0.00
 70122,-0.0288832,-0.0376111,0.0294901,0.0614494,-0.0045122,0.0885503,0
 .0107378,0.042435,-0.0087326,-0.1323509,0.0120122,-0.0012112,0.0172871
 ,0.0956733,0.0028727,-0.0031395,0.0159796,0.059122,0.0771762,0.0513005
 ,-0.0184473,0.0209296,-0.0413416,0.0832864,0.0190244,0.0487648,-0.0014
 486,0.085907,-0.0559532,-0.0369346,-0.0409482,-0.0084063,-0.0640722,-0
 .0203904,-0.0271445,0.0172134\Polar=140.935955,-7.9139551,61.4028538,2
 .550104,0.5200006,50.6849919\Quadrupole=6.3568674,-4.6542275,-1.702639
 9,5.9041004,-2.357383,-0.2573563\PG=C01 [X(C5H7O3)]\NImag=1\\0.1771717
 5,0.06913169,0.49658398,0.06579276,-0.16444543,0.11108262,-0.03167649,
 -0.00609741,-0.01082650,0.03312289,-0.04212319,-0.45221074,0.16579297,
 0.03269366,0.45867913,0.00082604,0.18667020,-0.07916524,0.00141366,-0.
 17460114,0.07583032,-0.10019001,-0.03437475,-0.04025295,-0.00569814,-0
 .00587754,0.00186467,1.03198869,0.01859365,0.01259162,0.00633625,-0.00
 131044,0.00150356,0.00122498,-0.26476676,0.09283846,-0.00469204,0.0029
 7813,0.00134059,0.00230835,-0.00076156,0.00030952,0.03772816,-0.008397
 20,0.02067220,-0.03435982,-0.03230894,-0.01495586,0.00068499,0.0149890
 4,-0.00368012,0.04653767,-0.01381445,-0.00465266,-0.02663673,-0.050481
 34,-0.05460737,-0.00873611,-0.02386688,-0.00819128,-0.01305647,0.03991
 966,-0.02328901,-0.00170643,0.03616779,0.08305685,-0.06233519,-0.02487
 171,-0.03286482,0.00725547,0.00934797,0.00322495,0.03252750,-0.0071453
 5,-0.00957217,0.02307970,0.02314927,0.03654019,-0.01105074,0.00409599,
 0.00102969,0.00420611,0.00132869,-0.00050599,-0.97411759,0.26011278,-0
 .02986364,0.01116127,-0.00363499,-0.00154895,1.30145564,0.00692128,-0.
 00345118,0.00200345,-0.00248557,0.00068401,-0.00023515,0.25522884,-0.0
 8625581,0.00730588,-0.00895674,0.00102665,-0.00174632,-0.31246412,0.17
 430770,0.00135169,0.00026323,-0.00061738,0.00012439,0.00059919,-0.0002
 3640,-0.03533628,0.00877266,-0.01771013,-0.00256864,-0.00052601,0.0011
 4344,0.05641321,-0.00634890,0.05173248,0.00039020,-0.00028556,-0.00321
 884,-0.00201394,-0.00364861,0.00091823,0.00718915,-0.00279169,-0.00217
 188,0.00777251,0.00465564,0.00388519,-0.25399603,0.05080136,-0.0095132
 9,0.66276225,-0.00206285,0.00106631,-0.00072758,0.00116407,0.00028838,
 0.00003907,0.01045609,-0.00026920,0.00039776,0.00268528,0.00172992,0.0
 0074324,0.02178030,-0.05747853,0.00376490,-0.14585037,0.94435515,-0.00
 114517,-0.00093462,0.00023738,-0.00057004,-0.00064422,0.00024438,0.005
 16014,-0.00200826,0.00491707,0.00405699,0.00138649,0.00205903,-0.02008
 343,0.00835851,-0.06955218,0.02320226,0.09253679,0.22339461,0.00045194
 ,-0.00041310,0.00150993,0.00040686,0.00156997,-0.00040427,-0.00529332,
 0.00172804,0.00044002,-0.00388242,-0.00194651,-0.00190304,-0.02100249,
 0.04617333,0.00215517,-0.18434278,0.21874295,0.02163402,0.18422216,0.0
 0011736,-0.00002869,-0.00075880,-0.00040698,-0.00119336,0.00015839,-0.
 00138258,0.00192407,-0.00012009,0.00242348,0.00111402,0.00114770,0.043
 56010,-0.03048301,-0.00324794,0.20355271,-0.67468622,-0.06662699,-0.23
 409486,0.80893190,0.00020366,0.00021261,-0.00013944,0.00009641,0.00007
 016,-0.00014658,-0.00158649,0.00079881,-0.00009749,-0.00074838,-0.0002
 4550,-0.00010949,0.00349648,-0.00355011,0.02065741,0.01957242,-0.06340
 239,-0.08749283,-0.01929030,0.09002685,0.04579491,-0.00079440,0.000194
 59,0.00127842,0.00121041,0.00147071,-0.00053707,-0.00103334,0.00279020
 ,0.00101555,-0.00204525,-0.00121596,-0.00138096,-0.05749595,-0.0335731
 5,-0.01242756,-0.18657411,-0.09666306,-0.02352433,0.02863808,-0.024292
 22,-0.00571596,0.49004411,-0.00002304,0.00002990,0.00051877,0.00025684
 ,0.00040308,-0.00018329,0.00110842,0.00042162,0.00018614,-0.00119663,-
 0.00087946,-0.00063476,-0.01146583,0.00473019,-0.00175229,-0.07023998,
 -0.22484468,-0.02891760,-0.02653060,-0.10365699,-0.02344073,0.08796703
 ,0.41423344,-0.00002147,0.00006909,0.00018060,0.00017545,0.00020786,-0
 .00010808,-0.00007267,0.00040256,0.00038923,-0.00052148,-0.00029921,-0
 .00032673,-0.00780909,-0.00415055,0.00945478,-0.02170451,-0.03266035,-
 0.07358091,-0.00470166,-0.02256740,0.02690526,0.04942371,0.05680572,0.
 09660467,0.00018675,0.00001042,-0.00055374,-0.00044266,-0.00065426,0.0
 0018156,0.00092213,-0.00083422,-0.00028128,0.00113494,0.00064091,0.000
 64549,0.00342478,-0.00002582,0.00081479,-0.05138521,-0.03429560,-0.012
 28799,-0.00088185,0.01973710,0.00302328,-0.17587589,0.02100118,-0.0116
 0990,0.44274918,-0.00007685,0.00001920,0.00004800,0.00005370,0.0000406
 2,-0.00003180,-0.00032717,0.00056248,0.00014649,0.00001335,0.00004909,
 -0.00000787,-0.00406703,-0.00330428,-0.00193292,-0.03490218,0.01436583
 ,-0.00226822,-0.00023700,-0.00383529,-0.00002301,0.04271965,-0.0999465
 7,0.00149995,0.04276035,0.65141756,0.00003288,0.00005402,-0.00005253,0
 .00001201,-0.00001595,0.00004758,-0.00008816,0.00008526,-0.00036430,-0
 .00002999,0.00004585,-0.00008666,-0.00146401,-0.00185788,0.00556722,-0
 .01162213,-0.00499270,-0.00176173,-0.00206755,0.00244127,-0.00553602,-
 0.00842567,0.00038421,-0.06657302,0.03502051,0.00081239,0.54955516,-0.
 00006402,-0.00000074,0.00011005,0.00008806,0.00012070,-0.00004287,-0.0
 0007126,0.00012885,0.00013401,-0.00016678,-0.00011869,-0.00008222,-0.0
 0075779,-0.00023951,-0.00171982,0.00175878,0.00762445,0.00388234,0.000
 53175,-0.00299729,0.00073807,-0.03973822,0.00218786,0.03560588,-0.0859
 9074,0.00034096,0.03373894,0.56920138,0.00000222,-0.00000373,-0.000033
 01,-0.00001132,-0.00001887,0.00001830,0.00007294,-0.00007838,-0.000095
 18,0.00005353,0.00003839,0.00002602,0.00015028,0.00001149,0.00050906,-
 0.00158500,0.00063875,0.00096069,0.00090991,0.00061233,-0.00112267,0.0
 0627437,0.00157671,-0.00454248,0.00011990,-0.08606266,-0.00855917,0.00
 398231,0.58883161,-0.00001406,0.00000465,0.00001314,0.00002113,0.00003
 041,-0.00001041,-0.00009943,0.00003124,0.00006770,-0.00003088,-0.00003
 818,-0.00001085,0.00019213,-0.00005371,-0.00049620,0.00001944,0.004379
 44,0.00180788,0.00167203,-0.00155443,-0.00131787,0.00056158,-0.0024802
 6,0.00688422,0.04585921,-0.00948703,-0.20354455,0.03941885,-0.00577276
 ,0.51078936,-0.00004361,0.00002491,0.00007537,0.00007346,0.00008602,-0
 .00003157,-0.00025071,0.00026108,0.00004698,-0.00013888,-0.00008707,-0
 .00009658,-0.00136073,-0.00120223,0.00011431,-0.00382790,0.00626937,-0
 .00142075,0.00154061,-0.00141684,0.00008865,-0.03260041,-0.03163107,-0
 .01758320,-0.07413861,-0.06826246,-0.04308671,0.00694725,0.01224594,0.
 00690372,0.10030022,0.00000284,-0.00001485,0.00003245,0.00000544,0.000
 01915,-0.00001331,0.00000787,-0.00000296,0.00005792,-0.00004023,-0.000
 02076,-0.00002864,0.00026805,0.00026094,-0.00030412,0.00236462,-0.0019
 1549,0.00011880,-0.00199484,0.00117855,-0.00034221,0.00559629,0.007995
 25,0.00515543,-0.08071368,-0.23388111,-0.10851108,0.00059913,0.0003505
 8,0.00051453,0.08171174,0.24198672,-0.00000495,0.00001090,-0.00000262,
 0.00000710,0.00000175,-0.00000068,0.00001873,0.00000098,0.00001444,-0.
 00000843,-0.00001303,-0.00000184,-0.00017000,-0.00003637,0.00004857,0.
 00059144,0.00240475,0.00035889,0.00108697,-0.00024400,0.00047387,-0.00
 301707,-0.00187065,0.00032796,-0.04813685,-0.10637471,-0.11764958,-0.0
 0959025,-0.02536772,-0.01538403,0.04954679,0.11724246,0.12414420,-0.00
 003028,0.00002536,0.00003566,0.00005455,0.00006025,-0.00001394,0.00005
 087,-0.00006959,-0.00001735,-0.00008136,-0.00005799,-0.00006476,-0.000
 45810,-0.00022605,0.00075584,0.00236863,0.00906574,0.00030297,0.000655
 77,-0.00374651,-0.00055591,-0.02630380,0.02974418,-0.02194577,-0.05262
 409,0.02017692,-0.01497376,0.00389465,-0.01249438,0.00786372,0.0034443
 6,-0.00861593,0.00711803,0.06936494,0.00000637,0.00002154,-0.00005889,
 -0.00000823,-0.00002706,0.00001846,0.00003126,0.00000041,-0.00007207,0
 .00003557,0.00001153,0.00005017,0.00032131,-0.00016153,0.00060383,-0.0
 0270273,-0.00098320,-0.00107290,-0.00196103,-0.00008755,-0.00107416,0.
 00809280,-0.00179640,0.00077955,0.03071305,-0.24015832,0.12315397,-0.0
 0157568,0.00490411,-0.00311810,0.00272599,-0.01797188,0.01337062,-0.03
 526748,0.25473169,-0.00000465,0.00000298,-0.00002442,-0.00000835,-0.00
 002521,0.00000905,0.00012744,-0.00008931,0.00003739,0.00007442,0.00004
 001,0.00002260,-0.00001886,-0.00014235,-0.00013485,-0.00051999,0.00356
 835,0.00125834,0.00157386,-0.00139524,-0.00020221,-0.00367864,-0.00039
 143,0.00020128,-0.01966142,0.11922698,-0.12980520,-0.00299711,0.025633
 70,-0.01668659,0.00333982,-0.01349913,0.01052098,0.01957735,-0.1317578
 2,0.13763803,-0.00002033,0.00000195,0.00005010,0.00004284,0.00005883,-
 0.00001805,-0.00000486,0.00002842,0.00006618,-0.00010206,-0.00006198,-
 0.00006054,-0.00018058,0.00002827,-0.00027496,0.00153139,0.00166496,0.
 00026367,-0.00007912,-0.00062440,0.00020974,-0.00135754,-0.00084601,0.
 00319271,-0.01244661,0.00095183,-0.00444937,-0.31416168,0.02807685,-0.
 02279557,0.00035286,0.00031310,0.00020017,0.00023584,-0.00036572,0.000
 26114,0.34050484,-0.00000063,0.00000033,0.00000378,0.00000007,0.000003
 05,-0.00000114,-0.00002520,0.00000952,0.00004470,-0.00000635,-0.000005
 05,-0.00000618,0.00003962,0.00006138,-0.00016976,0.00012333,-0.0013669
 6,-0.00055179,-0.00053593,0.00036402,0.00065904,0.00129337,0.00147499,
 -0.00068458,0.00199958,-0.00240138,0.00086362,0.02769427,-0.04847132,0
 .00226979,-0.00012466,-0.00006003,0.00015109,0.00003817,0.00001238,-0.
 00006294,-0.03102045,0.04819143,0.00001233,-0.00000018,-0.00001889,-0.
 00002095,-0.00003289,0.00000883,0.00006957,-0.00006027,-0.00003512,0.0
 0004611,0.00003281,0.00001548,0.00024512,0.00018677,0.00044342,-0.0006
 9312,-0.00334245,-0.00138551,-0.00051334,0.00129638,0.00033544,0.00763
 040,0.00062129,-0.00599986,0.02798218,-0.00274921,0.00710798,-0.024978
 29,0.00272613,-0.05013482,-0.00078421,-0.00060926,0.00104768,-0.000692
 15,0.00084836,0.00082820,0.02425898,-0.00228717,0.05123787,0.00001144,
 0.00000010,-0.00002672,-0.00002075,-0.00002422,0.00001185,-0.00003952,
 0.00001224,-0.00004309,0.00003619,0.00002053,0.00003190,0.00005945,0.0
 0001271,0.00005060,-0.00047374,-0.00153768,-0.00024742,-0.00043889,0.0
 0060759,0.00021883,0.00246422,-0.00005360,-0.00085937,0.00067644,-0.01
 232844,0.00918330,-0.05689597,0.04328668,-0.02971704,0.00021024,0.0002
 8127,-0.00085942,-0.00066387,0.00023558,0.00286418,-0.00423539,0.02685
 061,-0.01745660,0.05732675,0.00000405,-0.00000240,-0.00000159,0.000000
 25,0.00000628,0.00000451,-0.00006482,0.00003673,0.00000450,-0.00002158
 ,-0.00001093,-0.00000110,-0.00005780,0.00004698,-0.00011752,0.00024890
 ,-0.00087348,0.00023652,-0.00057326,0.00039805,0.00035476,-0.00103480,
 0.00032841,-0.00019632,-0.00073154,0.00393027,-0.00281973,0.04292629,-
 0.23549357,0.11990484,-0.00047197,0.00073677,0.00040939,0.00088573,0.0
 0099683,-0.00111782,-0.00000181,-0.00196270,-0.00002541,-0.04740728,0.
 25070182,0.00000173,-0.00000759,-0.00000076,-0.00000545,-0.00000354,0.
 00000034,0.00002869,-0.00002966,0.00000585,0.00001235,0.00001475,0.000
 00314,0.00003088,0.00006242,-0.00007015,0.00016777,0.00037525,0.000055
 03,-0.00009292,-0.00023822,0.00020294,-0.00152181,-0.00100425,0.002880
 07,-0.00696875,0.02805833,-0.01963503,-0.02746391,0.11761670,-0.123811
 14,-0.00051311,-0.00019740,0.00107771,0.00308100,-0.00175967,-0.004837
 86,-0.00034291,0.00062378,-0.00171702,0.02895638,-0.13066789,0.1365246
 9,0.00001761,-0.00000448,-0.00004738,-0.00003818,-0.00005007,0.0000178
 6,0.00001024,-0.00006812,-0.00001733,0.00008575,0.00006689,0.00004698,
 0.00011275,0.00000740,0.00006055,-0.00115919,0.00095635,0.00077672,-0.
 00052628,-0.00103666,0.00024950,0.00146209,-0.00027877,-0.00156863,0.0
 0469144,0.01318438,0.00821973,-0.08457541,-0.08108423,-0.04985484,-0.0
 0050815,0.00021433,0.00321773,0.00009190,-0.00028105,-0.00092917,-0.01
 007960,-0.02632578,-0.01510605,0.00198343,0.00629963,0.00463008,0.0884
 3160,-0.00001157,0.00000607,0.00002574,0.00001280,0.00001405,-0.000011
 61,-0.00000626,0.00000689,0.00003102,-0.00002311,-0.00002259,-0.000022
 43,0.00003265,0.00000501,-0.00011340,0.00025957,-0.00002660,-0.0005731
 9,-0.00083707,-0.00055183,0.00107854,0.00038019,-0.00006949,0.00018073
 ,0.00027264,-0.00079544,-0.00108408,-0.08067291,-0.22683543,-0.1046304
 4,-0.00012876,0.00133913,0.00031454,0.00048159,0.00050745,0.00000923,0
 .00179616,0.00415035,0.00339511,-0.00995611,-0.01883906,-0.01284301,0.
 08840018,0.24111148,-0.00000357,-0.00000627,0.00003179,0.00001733,0.00
 003421,-0.00000757,-0.00008893,0.00007732,0.00002521,-0.00007313,-0.00
 004825,-0.00003628,0.00005645,0.00020431,-0.00023004,0.00108700,-0.003
 08407,-0.00055946,-0.00109892,0.00168252,0.00067208,0.00031942,0.00215
 912,0.00276052,-0.01402711,-0.02691738,-0.01726932,-0.04675366,-0.1019
 9762,-0.10816583,0.00340048,0.00038356,-0.00497555,-0.00047093,0.00008
 865,0.00117527,-0.00056130,-0.00085221,-0.00173369,0.00789261,0.014032
 87,0.00932217,0.05030425,0.11424323,0.11899071\\-0.00010619,-0.0000573
 2,0.00025240,-0.00009055,-0.00008115,-0.00012934,-0.00069979,0.0001197
 3,0.00011525,0.00190579,-0.00032215,-0.00024413,-0.00058512,0.00034432
 ,0.00010610,-0.00026673,-0.00000204,-0.00008745,-0.00002936,0.00002901
 ,0.00001458,-0.00006814,-0.00001116,-0.00001942,-0.00004949,-0.0000118
 0,-0.00000705,-0.00000357,-0.00000366,0.00000198,-0.00000359,-0.000000
 02,-0.00000191,-0.00000188,0.00000005,-0.00000072,-0.00000010,-0.00000
 101,0.00000032,-0.00000064,-0.00000147,-0.00000164,-0.00000066,-0.0000
 0132,0.00000101\\\@


 PERICLES, SOPHOCLES,
 PELOPONESIAN WAR,
 FRENCH VERBS, LATIN VERBS
 H2SO4.
 Job cpu time:       0 days  0 hours 48 minutes 36.5 seconds.
 Elapsed time:       0 days  0 hours  2 minutes  1.6 seconds.
 File lengths (MBytes):  RWF=    153 Int=      0 D2E=      0 Chk=      5 Scr=      1
 Normal termination of Gaussian 16 at Sat Aug 16 14:21:19 2025.
