 Entering Gaussian System, Link 0=g16
 Initial command:
 /opt/g16/l1.exe "/home/aayush/scratches/g16/Gau-14922.inp" -scrdir="/home/aayush/scratches/g16/"
 Entering Link 1 = /opt/g16/l1.exe PID=     14925.
  
 Copyright (c) 1988,1990,1992,1993,1995,1998,2003,2009,2016,
            Gaussian, Inc.  All Rights Reserved.
  
 This is part of the Gaussian(R) 16 program.  It is based on
 the Gaussian(R) 09 system (copyright 2009, Gaussian, Inc.),
 the Gaussian(R) 03 system (copyright 2003, Gaussian, Inc.),
 the Gaussian(R) 98 system (copyright 1998, Gaussian, Inc.),
 the Gaussian(R) 94 system (copyright 1995, Gaussian, Inc.),
 the Gaussian 92(TM) system (copyright 1992, Gaussian, Inc.),
 the Gaussian 90(TM) system (copyright 1990, Gaussian, Inc.),
 the Gaussian 88(TM) system (copyright 1988, Gaussian, Inc.),
 the Gaussian 86(TM) system (copyright 1986, Carnegie Mellon
 University), and the Gaussian 82(TM) system (copyright 1983,
 Carnegie Mellon University). Gaussian is a federally registered
 trademark of Gaussian, Inc.
  
 This software contains proprietary and confidential information,
 including trade secrets, belonging to Gaussian, Inc.
  
 This software is provided under written license and may be
 used, copied, transmitted, or stored only in accord with that
 written license.
  
 The following legend is applicable only to US Government
 contracts under FAR:
  
                    RESTRICTED RIGHTS LEGEND
  
 Use, reproduction and disclosure by the US Government is
 subject to restrictions as set forth in subparagraphs (a)
 and (c) of the Commercial Computer Software - Restricted
 Rights clause in FAR 52.227-19.
  
 Gaussian, Inc.
 340 Quinnipiac St., Bldg. 40, Wallingford CT 06492
  
  
 ---------------------------------------------------------------
 Warning -- This program may not be used in any manner that
 competes with the business of Gaussian, Inc. or will provide
 assistance to any competitor of Gaussian, Inc.  The licensee
 of this program is prohibited from giving any competitor of
 Gaussian, Inc. access to this program.  By using this program,
 the user acknowledges that Gaussian, Inc. is engaged in the
 business of creating and licensing software in the field of
 computational chemistry and represents and warrants to the
 licensee that it is not a competitor of Gaussian, Inc. and that
 it will not use this program in any manner prohibited above.
 ---------------------------------------------------------------
  

 Cite this work as:
 Gaussian 16, Revision A.03,
 M. J. Frisch, G. W. Trucks, H. B. Schlegel, G. E. Scuseria, 
 M. A. Robb, J. R. Cheeseman, G. Scalmani, V. Barone, 
 G. A. Petersson, H. Nakatsuji, X. Li, M. Caricato, A. V. Marenich, 
 J. Bloino, B. G. Janesko, R. Gomperts, B. Mennucci, H. P. Hratchian, 
 J. V. Ortiz, A. F. Izmaylov, J. L. Sonnenberg, D. Williams-Young, 
 F. Ding, F. Lipparini, F. Egidi, J. Goings, B. Peng, A. Petrone, 
 T. Henderson, D. Ranasinghe, V. G. Zakrzewski, J. Gao, N. Rega, 
 G. Zheng, W. Liang, M. Hada, M. Ehara, K. Toyota, R. Fukuda, 
 J. Hasegawa, M. Ishida, T. Nakajima, Y. Honda, O. Kitao, H. Nakai, 
 T. Vreven, K. Throssell, J. A. Montgomery, Jr., J. E. Peralta, 
 F. Ogliaro, M. J. Bearpark, J. J. Heyd, E. N. Brothers, K. N. Kudin, 
 V. N. Staroverov, T. A. Keith, R. Kobayashi, J. Normand, 
 K. Raghavachari, A. P. Rendell, J. C. Burant, S. S. Iyengar, 
 J. Tomasi, M. Cossi, J. M. Millam, M. Klene, C. Adamo, R. Cammi, 
 J. W. Ochterski, R. L. Martin, K. Morokuma, O. Farkas, 
 J. B. Foresman, and D. J. Fox, Gaussian, Inc., Wallingford CT, 2016.
 
 ******************************************
 Gaussian 16:  ES64L-G16RevA.03 25-Dec-2016
                20-Jun-2025 
 ******************************************
 %nprocshared=24
 Will use up to   24 processors via shared memory.
 %mem=12GB
 %chk=ethyl_propiolate_ts1.chk
 -------------------
 # freq 6-31+g m062x
 -------------------
 1/10=4,30=1,38=1/1,3;
 2/12=2,17=6,18=5,40=1/2;
 3/5=1,6=6,7=10,11=2,25=1,30=1,71=2,74=-55,140=1/1,2,3;
 4//1;
 5/5=2,38=5,98=1/2;
 8/6=4,10=90,11=11/1;
 11/6=1,8=1,9=11,15=111,16=1/1,2,10;
 10/6=1/2;
 6/7=2,8=2,9=2,10=2,28=1/1;
 7/8=1,10=1,25=1/1,2,3,16;
 1/10=4,30=1/3;
 99//99;
 -------------------
 Title Card Required
 -------------------
 Symbolic Z-matrix:
 Charge =  0 Multiplicity = 2
 O                     4.5014   -0.26652   0.33343 
 H                     4.54833   0.64045  -0.01486 
 C                     2.20419  -0.32531  -0.06536 
 H                     3.35521  -0.63518  -0.04286 
 C                     1.04527   0.01092  -0.0944 
 C                    -0.3639    0.39011  -0.17674 
 O                    -0.75206   1.51851  -0.05078 
 O                    -1.1344   -0.67026  -0.4124 
 C                    -2.5532   -0.41965  -0.49766 
 C                    -3.16816  -0.29735   0.88255 
 H                    -2.94024  -1.28237  -1.03677 
 H                    -2.71347   0.48243  -1.08918 
 H                    -4.25009  -0.18371   0.79119 
 H                    -2.96291  -1.19266   1.47115 
 H                    -2.77373   0.57458   1.40456 
 

 GradGradGradGradGradGradGradGradGradGradGradGradGradGradGradGradGradGrad
 Berny optimization.
 Initialization pass.
 Trust Radius=3.00D-01 FncErr=1.00D-07 GrdErr=1.00D-07 EigMax=2.50D+02 EigMin=1.00D-04
 Number of steps in this run=      2 maximum allowed number of steps=      2.
 GradGradGradGradGradGradGradGradGradGradGradGradGradGradGradGradGradGrad

                          Input orientation:                          
 ---------------------------------------------------------------------
 Center     Atomic      Atomic             Coordinates (Angstroms)
 Number     Number       Type             X           Y           Z
 ---------------------------------------------------------------------
      1          8           0        4.501404   -0.266522    0.333432
      2          1           0        4.548328    0.640446   -0.014857
      3          6           0        2.204195   -0.325306   -0.065360
      4          1           0        3.355208   -0.635177   -0.042860
      5          6           0        1.045265    0.010922   -0.094401
      6          6           0       -0.363904    0.390111   -0.176736
      7          8           0       -0.752059    1.518511   -0.050778
      8          8           0       -1.134404   -0.670261   -0.412395
      9          6           0       -2.553195   -0.419654   -0.497664
     10          6           0       -3.168157   -0.297352    0.882549
     11          1           0       -2.940242   -1.282366   -1.036767
     12          1           0       -2.713469    0.482434   -1.089182
     13          1           0       -4.250088   -0.183713    0.791193
     14          1           0       -2.962912   -1.192664    1.471148
     15          1           0       -2.773731    0.574581    1.404556
 ---------------------------------------------------------------------
                    Distance matrix (angstroms):
                    1          2          3          4          5
     1  O    0.000000
     2  H    0.972676   0.000000
     3  C    2.332308   2.535781   0.000000
     4  H    1.261454   1.746864   1.192207   0.000000
     5  C    3.493553   3.560067   1.207067   2.399153   0.000000
     6  C    4.935855   4.921270   2.668213   3.860173   1.461616
     7  O    5.561729   5.372745   3.484151   4.637680   2.346295
     8  O    5.699263   5.845463   3.374266   4.504931   2.305664
     9  C    7.105036   7.196426   4.777923   5.929800   3.646496
    10  C    7.689255   7.824893   5.455408   6.597333   4.336172
    11  H    7.634624   7.798730   5.322107   6.406200   4.294754
    12  H    7.391830   7.342536   5.087639   6.258809   3.916630
    13  H    8.763847   8.873617   6.512411   7.664202   5.372422
    14  H    7.607112   7.873197   5.460051   6.520863   4.468226
    15  H    7.401510   7.458661   5.267846   6.412677   4.141173
                    6          7          8          9         10
     6  C    0.000000
     7  O    1.199923   0.000000
     8  O    1.331764   2.251150   0.000000
     9  C    2.356207   2.683334   1.443275   0.000000
    10  C    3.075472   3.163224   2.439691   1.515956   0.000000
    11  H    3.189726   3.688527   2.006381   1.088444   2.169325
    12  H    2.522209   2.449259   2.068863   1.090571   2.168532
    13  H    4.045811   3.980288   3.375328   2.143890   1.091712
    14  H    3.460569   3.815049   2.676580   2.154445   1.090944
    15  H    2.888214   2.663862   2.745603   2.157679   1.090106
                   11         12         13         14         15
    11  H    0.000000
    12  H    1.780082   0.000000
    13  H    2.502833   2.518087   0.000000
    14  H    2.509621   3.069766   1.771198   0.000000
    15  H    3.071813   2.496167   1.769422   1.778589   0.000000
 Stoichiometry    C5H7O3(2)
 Framework group  C1[X(C5H7O3)]
 Deg. of freedom    39
 Full point group                 C1      NOp   1
 Largest Abelian subgroup         C1      NOp   1
 Largest concise Abelian subgroup C1      NOp   1
                         Standard orientation:                         
 ---------------------------------------------------------------------
 Center     Atomic      Atomic             Coordinates (Angstroms)
 Number     Number       Type             X           Y           Z
 ---------------------------------------------------------------------
      1          8           0        4.564090   -0.256626    0.320871
      2          1           0        4.611609    0.650114   -0.027930
      3          6           0        2.266784   -0.314002   -0.077565
      4          1           0        3.417580   -0.624677   -0.055054
      5          6           0        1.108089    0.023032   -0.106630
      6          6           0       -0.300822    0.403175   -0.188978
      7          8           0       -0.688159    1.531920   -0.063594
      8          8           0       -1.072108   -0.656781   -0.423937
      9          6           0       -2.490733   -0.405214   -0.509146
     10          6           0       -3.105413   -0.281707    0.871085
     11          1           0       -2.878468   -1.267952   -1.047714
     12          1           0       -2.650450    0.496657   -1.101144
     13          1           0       -4.187276   -0.167351    0.779818
     14          1           0       -2.900720   -1.176836    1.460154
     15          1           0       -2.710294    0.590237    1.392551
 ---------------------------------------------------------------------
 Rotational constants (GHZ):           6.2882090           0.6894199           0.6609914
 Standard basis: 6-31+G (6D, 7F)
 There are   118 symmetry adapted cartesian basis functions of A   symmetry.
 There are   118 symmetry adapted basis functions of A   symmetry.
   118 basis functions,   236 primitive gaussians,   118 cartesian basis functions
    31 alpha electrons       30 beta electrons
       nuclear repulsion energy       334.9179914693 Hartrees.
 NAtoms=   15 NActive=   15 NUniq=   15 SFac= 1.00D+00 NAtFMM=   60 NAOKFM=F Big=F
 Integral buffers will be    131072 words long.
 Raffenetti 2 integral format.
 Two-electron integral symmetry is turned on.
 One-electron integrals computed using PRISM.
 NBasis=   118 RedAO= T EigKep=  1.04D-06  NBF=   118
 NBsUse=   118 1.00D-06 EigRej= -1.00D+00 NBFU=   118
 ExpMin= 4.38D-02 ExpMax= 5.48D+03 ExpMxC= 8.25D+02 IAcc=3 IRadAn=         5 AccDes= 0.00D+00
 Harris functional with IExCor= 1009 and IRadAn=       5 diagonalized for initial guess.
 HarFok:  IExCor= 1009 AccDes= 0.00D+00 IRadAn=         5 IDoV= 1 UseB2=F ITyADJ=14
 ICtDFT=  3500011 ScaDFX=  1.000000  1.000000  1.000000  1.000000
 FoFCou: FMM=F IPFlag=           0 FMFlag=      100000 FMFlg1=           0
         NFxFlg=           0 DoJE=T BraDBF=F KetDBF=T FulRan=T
         wScrn=  0.000000 ICntrl=       500 IOpCl=  0 I1Cent=   200000004 NGrid=           0
         NMat0=    1 NMatS0=      1 NMatT0=    0 NMatD0=    1 NMtDS0=    0 NMtDT0=    0
 Petite list used in FoFCou.
 Initial guess <Sx>= 0.0000 <Sy>= 0.0000 <Sz>= 0.5000 <S**2>= 0.7500 S= 0.5000
 Requested convergence on RMS density matrix=1.00D-08 within 128 cycles.
 Requested convergence on MAX density matrix=1.00D-06.
 Requested convergence on             energy=1.00D-06.
 No special actions if energy rises.
 Restarting incremental Fock formation.
 SCF Done:  E(UM062X) =  -419.931938993     A.U. after   24 cycles
            NFock= 24  Conv=0.49D-08     -V/T= 2.0049
 <Sx>= 0.0000 <Sy>= 0.0000 <Sz>= 0.5000 <S**2>= 0.7574 S= 0.5037
 <L.S>=  0.00000000000    
 Annihilation of the first spin contaminant:
 S**2 before annihilation     0.7574,   after     0.7500
 DoSCS=F DFT=T ScalE2(SS,OS)=  1.000000  1.000000
 Range of M.O.s used for correlation:     1   118
 NBasis=   118 NAE=    31 NBE=    30 NFC=     0 NFV=     0
 NROrb=    118 NOA=    31 NOB=    30 NVA=    87 NVB=    88

 **** Warning!!: The largest alpha MO coefficient is  0.29283572D+03


 **** Warning!!: The largest beta MO coefficient is  0.26752517D+03

 Symmetrizing basis deriv contribution to polar:
 IMax=3 JMax=2 DiffMx= 0.00D+00
 G2DrvN: will do    16 centers at a time, making    1 passes.
 Calling FoFCou, ICntrl=  3107 FMM=F I1Cent=   0 AccDes= 0.00D+00.
 End of G2Drv F.D. properties file   721 does not exist.
 End of G2Drv F.D. properties file   722 does not exist.
 End of G2Drv F.D. properties file   788 does not exist.
          IDoAtm=111111111111111
          Differentiating once with respect to electric field.
                with respect to dipole field.
          Differentiating once with respect to nuclear coordinates.
 Keep R1 and R2 ints in memory in canonical form, NReq=71861356.
          There are    48 degrees of freedom in the 1st order CPHF.  IDoFFX=6 NUNeed=     3.
     45 vectors produced by pass  0 Test12= 1.11D-14 2.08D-09 XBig12= 1.20D+02 4.03D+00.
 AX will form    45 AO Fock derivatives at one time.
     45 vectors produced by pass  1 Test12= 1.11D-14 2.08D-09 XBig12= 2.62D+01 8.43D-01.
     45 vectors produced by pass  2 Test12= 1.11D-14 2.08D-09 XBig12= 9.12D-01 1.72D-01.
     45 vectors produced by pass  3 Test12= 1.11D-14 2.08D-09 XBig12= 7.73D-03 1.24D-02.
     45 vectors produced by pass  4 Test12= 1.11D-14 2.08D-09 XBig12= 6.91D-05 1.46D-03.
     45 vectors produced by pass  5 Test12= 1.11D-14 2.08D-09 XBig12= 7.13D-07 1.05D-04.
     32 vectors produced by pass  6 Test12= 1.11D-14 2.08D-09 XBig12= 4.89D-09 6.39D-06.
     12 vectors produced by pass  7 Test12= 1.11D-14 2.08D-09 XBig12= 3.95D-11 6.70D-07.
      3 vectors produced by pass  8 Test12= 1.11D-14 2.08D-09 XBig12= 2.59D-13 4.35D-08.
      1 vectors produced by pass  9 Test12= 1.11D-14 2.08D-09 XBig12= 4.99D-15 1.26D-08.
 InvSVY:  IOpt=1 It=  1 EMax= 3.55D-15
 Solved reduced A of dimension   318 with    48 vectors.
 Isotropic polarizability for W=    0.000000       75.00 Bohr**3.
 End of Minotr F.D. properties file   721 does not exist.
 End of Minotr F.D. properties file   722 does not exist.
 End of Minotr F.D. properties file   788 does not exist.

 **********************************************************************

            Population analysis using the SCF density.

 **********************************************************************

 Orbital symmetries:
 Alpha Orbitals:
       Occupied  (A) (A) (A) (A) (A) (A) (A) (A) (A) (A) (A) (A)
                 (A) (A) (A) (A) (A) (A) (A) (A) (A) (A) (A) (A)
                 (A) (A) (A) (A) (A) (A) (A)
       Virtual   (A) (A) (A) (A) (A) (A) (A) (A) (A) (A) (A) (A)
                 (A) (A) (A) (A) (A) (A) (A) (A) (A) (A) (A) (A)
                 (A) (A) (A) (A) (A) (A) (A) (A) (A) (A) (A) (A)
                 (A) (A) (A) (A) (A) (A) (A) (A) (A) (A) (A) (A)
                 (A) (A) (A) (A) (A) (A) (A) (A) (A) (A) (A) (A)
                 (A) (A) (A) (A) (A) (A) (A) (A) (A) (A) (A) (A)
                 (A) (A) (A) (A) (A) (A) (A) (A) (A) (A) (A) (A)
                 (A) (A) (A)
 Beta  Orbitals:
       Occupied  (A) (A) (A) (A) (A) (A) (A) (A) (A) (A) (A) (A)
                 (A) (A) (A) (A) (A) (A) (A) (A) (A) (A) (A) (A)
                 (A) (A) (A) (A) (A) (A)
       Virtual   (A) (A) (A) (A) (A) (A) (A) (A) (A) (A) (A) (A)
                 (A) (A) (A) (A) (A) (A) (A) (A) (A) (A) (A) (A)
                 (A) (A) (A) (A) (A) (A) (A) (A) (A) (A) (A) (A)
                 (A) (A) (A) (A) (A) (A) (A) (A) (A) (A) (A) (A)
                 (A) (A) (A) (A) (A) (A) (A) (A) (A) (A) (A) (A)
                 (A) (A) (A) (A) (A) (A) (A) (A) (A) (A) (A) (A)
                 (A) (A) (A) (A) (A) (A) (A) (A) (A) (A) (A) (A)
                 (A) (A) (A) (A)
 The electronic state is 2-A.
 Alpha  occ. eigenvalues --  -19.74142 -19.70823 -19.66437 -10.73132 -10.61749
 Alpha  occ. eigenvalues --  -10.59309 -10.58601 -10.54750  -1.28153  -1.20292
 Alpha  occ. eigenvalues --   -1.18778  -0.91103  -0.87695  -0.78650  -0.71670
 Alpha  occ. eigenvalues --   -0.67697  -0.64464  -0.58579  -0.58281  -0.56900
 Alpha  occ. eigenvalues --   -0.54296  -0.49710  -0.47695  -0.47090  -0.45645
 Alpha  occ. eigenvalues --   -0.44584  -0.42185  -0.39492  -0.38483  -0.37414
 Alpha  occ. eigenvalues --   -0.36524
 Alpha virt. eigenvalues --   -0.01725   0.01136   0.02218   0.03494   0.04260
 Alpha virt. eigenvalues --    0.04782   0.05060   0.06625   0.07560   0.08457
 Alpha virt. eigenvalues --    0.08899   0.09097   0.09414   0.10753   0.12486
 Alpha virt. eigenvalues --    0.13235   0.14339   0.15621   0.16535   0.16962
 Alpha virt. eigenvalues --    0.18601   0.19395   0.20165   0.21534   0.22045
 Alpha virt. eigenvalues --    0.23672   0.24712   0.25270   0.26089   0.26477
 Alpha virt. eigenvalues --    0.27349   0.28320   0.28949   0.29825   0.30652
 Alpha virt. eigenvalues --    0.31136   0.32704   0.33158   0.34215   0.35390
 Alpha virt. eigenvalues --    0.36304   0.38512   0.39817   0.41890   0.43740
 Alpha virt. eigenvalues --    0.47292   0.57953   0.63859   0.68769   0.69582
 Alpha virt. eigenvalues --    0.70906   0.73212   0.74857   0.75828   0.76741
 Alpha virt. eigenvalues --    0.78874   0.82129   0.85948   0.90066   0.92404
 Alpha virt. eigenvalues --    0.94624   0.97846   1.02107   1.04801   1.08472
 Alpha virt. eigenvalues --    1.09806   1.11078   1.14483   1.16031   1.20289
 Alpha virt. eigenvalues --    1.21581   1.22634   1.24865   1.27282   1.27858
 Alpha virt. eigenvalues --    1.34963   1.35733   1.37420   1.42826   1.44216
 Alpha virt. eigenvalues --    1.47543   1.63644   1.68935   1.75663   1.79114
 Alpha virt. eigenvalues --    2.00827   2.03002
  Beta  occ. eigenvalues --  -19.72665 -19.70827 -19.66436 -10.73124 -10.61749
  Beta  occ. eigenvalues --  -10.58839 -10.58517 -10.54750  -1.28153  -1.18778
  Beta  occ. eigenvalues --   -1.14506  -0.90860  -0.87196  -0.78389  -0.70882
  Beta  occ. eigenvalues --   -0.64811  -0.63253  -0.58580  -0.56924  -0.54486
  Beta  occ. eigenvalues --   -0.52891  -0.49695  -0.47092  -0.45519  -0.43637
  Beta  occ. eigenvalues --   -0.42200  -0.39262  -0.38487  -0.36809  -0.36258
  Beta virt. eigenvalues --   -0.15206  -0.01361   0.01624   0.02266   0.03509
  Beta virt. eigenvalues --    0.04691   0.04882   0.05093   0.06728   0.07697
  Beta virt. eigenvalues --    0.08508   0.09009   0.09122   0.09522   0.10960
  Beta virt. eigenvalues --    0.12584   0.13283   0.14434   0.15656   0.16463
  Beta virt. eigenvalues --    0.17236   0.18773   0.19824   0.20251   0.21237
  Beta virt. eigenvalues --    0.22244   0.23819   0.24812   0.25433   0.26381
  Beta virt. eigenvalues --    0.26499   0.27543   0.28438   0.28936   0.29802
  Beta virt. eigenvalues --    0.30781   0.31145   0.32722   0.33211   0.34486
  Beta virt. eigenvalues --    0.35455   0.36387   0.38621   0.40564   0.42134
  Beta virt. eigenvalues --    0.43897   0.47666   0.58118   0.64328   0.68865
  Beta virt. eigenvalues --    0.69733   0.71345   0.73366   0.75129   0.75897
  Beta virt. eigenvalues --    0.76874   0.79028   0.82294   0.85927   0.90815
  Beta virt. eigenvalues --    0.92519   0.95580   0.98719   1.02322   1.06536
  Beta virt. eigenvalues --    1.08498   1.09824   1.11097   1.14891   1.16532
  Beta virt. eigenvalues --    1.20399   1.22848   1.23373   1.25036   1.27538
  Beta virt. eigenvalues --    1.30298   1.35608   1.37203   1.38057   1.42851
  Beta virt. eigenvalues --    1.44244   1.47640   1.63678   1.69022   1.77813
  Beta virt. eigenvalues --    1.79597   2.00854   2.03036
          Condensed to atoms (all electrons):
               1          2          3          4          5          6
     1  O    8.241426   0.183770   0.233714   0.033165  -0.281377  -0.000434
     2  H    0.183770   0.397410   0.155274  -0.024992  -0.115309  -0.011927
     3  C    0.233714   0.155274  63.973562   0.847331 -29.679000 -28.230859
     4  H    0.033165  -0.024992   0.847331   0.327632  -0.509208  -0.154646
     5  C   -0.281377  -0.115309 -29.679000  -0.509208  36.590277   2.449468
     6  C   -0.000434  -0.011927 -28.230859  -0.154646   2.449468  29.494847
     7  O    0.000268   0.000008  -0.646689  -0.000303  -0.019927   0.797147
     8  O    0.000384  -0.000003  -1.187003  -0.001214  -1.472478   1.952302
     9  C    0.000097   0.000012  -0.410996  -0.000705  -0.472478   0.534354
    10  C    0.000012   0.000007  -0.085380  -0.000141  -0.253275   0.171138
    11  H   -0.000000   0.000000   0.010494   0.000000   0.014110  -0.009121
    12  H    0.000000  -0.000000  -0.002615  -0.000000   0.007825  -0.005722
    13  H   -0.000000   0.000000   0.001379   0.000000   0.007992  -0.000776
    14  H   -0.000000  -0.000000   0.004541  -0.000000   0.013645  -0.009467
    15  H   -0.000000   0.000000   0.000811   0.000000  -0.010732   0.004283
               7          8          9         10         11         12
     1  O    0.000268   0.000384   0.000097   0.000012  -0.000000   0.000000
     2  H    0.000008  -0.000003   0.000012   0.000007   0.000000  -0.000000
     3  C   -0.646689  -1.187003  -0.410996  -0.085380   0.010494  -0.002615
     4  H   -0.000303  -0.001214  -0.000705  -0.000141   0.000000  -0.000000
     5  C   -0.019927  -1.472478  -0.472478  -0.253275   0.014110   0.007825
     6  C    0.797147   1.952302   0.534354   0.171138  -0.009121  -0.005722
     7  O    8.498640  -0.245385   0.010690  -0.043405  -0.000642   0.001770
     8  O   -0.245385   9.131911   0.118590   0.019142  -0.068921  -0.034759
     9  C    0.010690   0.118590   5.855015  -0.054008   0.423114   0.422421
    10  C   -0.043405   0.019142  -0.054008   5.742173  -0.056447  -0.076688
    11  H   -0.000642  -0.068921   0.423114  -0.056447   0.500146  -0.032221
    12  H    0.001770  -0.034759   0.422421  -0.076688  -0.032221   0.488776
    13  H   -0.000204   0.007230  -0.075165   0.401014  -0.000773  -0.000733
    14  H   -0.000379  -0.002326  -0.054487   0.391185  -0.004485   0.003762
    15  H    0.001319  -0.008083  -0.046427   0.405710   0.003588  -0.004713
              13         14         15
     1  O   -0.000000  -0.000000  -0.000000
     2  H    0.000000  -0.000000   0.000000
     3  C    0.001379   0.004541   0.000811
     4  H    0.000000  -0.000000   0.000000
     5  C    0.007992   0.013645  -0.010732
     6  C   -0.000776  -0.009467   0.004283
     7  O   -0.000204  -0.000379   0.001319
     8  O    0.007230  -0.002326  -0.008083
     9  C   -0.075165  -0.054487  -0.046427
    10  C    0.401014   0.391185   0.405710
    11  H   -0.000773  -0.004485   0.003588
    12  H   -0.000733   0.003762  -0.004713
    13  H    0.499826  -0.025244  -0.023151
    14  H   -0.025244   0.489033  -0.026891
    15  H   -0.023151  -0.026891   0.467823
          Atomic-Atomic Spin Densities.
               1          2          3          4          5          6
     1  O    0.936767   0.001939   0.258129  -0.057037  -0.315960  -0.026985
     2  H    0.001939  -0.029958  -0.008500   0.002006   0.006333   0.000247
     3  C    0.258129  -0.008500   8.549867  -0.174960  -5.979246  -2.484366
     4  H   -0.057037   0.002006  -0.174960  -0.018273   0.177951   0.025992
     5  C   -0.315960   0.006333  -5.979246   0.177951   4.806109   1.395627
     6  C   -0.026985   0.000247  -2.484366   0.025992   1.395627   1.109466
     7  O   -0.000005  -0.000003  -0.003427   0.000007   0.000901   0.002959
     8  O    0.000075  -0.000000   0.016113  -0.000038  -0.002186  -0.011075
     9  C   -0.000026  -0.000000  -0.018255   0.000055   0.012891   0.005858
    10  C    0.000015   0.000000  -0.004330  -0.000002  -0.001505   0.006393
    11  H   -0.000000  -0.000000   0.000104  -0.000000   0.000085  -0.000217
    12  H    0.000000   0.000000   0.000302  -0.000000   0.000086  -0.000386
    13  H    0.000000  -0.000000   0.000016  -0.000000   0.000039  -0.000066
    14  H   -0.000000   0.000000   0.000065  -0.000000   0.000055  -0.000120
    15  H   -0.000000  -0.000000   0.000216  -0.000000   0.000262  -0.000524
               7          8          9         10         11         12
     1  O   -0.000005   0.000075  -0.000026   0.000015  -0.000000   0.000000
     2  H   -0.000003  -0.000000  -0.000000   0.000000  -0.000000   0.000000
     3  C   -0.003427   0.016113  -0.018255  -0.004330   0.000104   0.000302
     4  H    0.000007  -0.000038   0.000055  -0.000002  -0.000000  -0.000000
     5  C    0.000901  -0.002186   0.012891  -0.001505   0.000085   0.000086
     6  C    0.002959  -0.011075   0.005858   0.006393  -0.000217  -0.000386
     7  O   -0.001647   0.000724   0.000251  -0.000025   0.000005  -0.000015
     8  O    0.000724  -0.003739   0.000040  -0.000136  -0.000016  -0.000018
     9  C    0.000251   0.000040  -0.001309   0.000552   0.000056   0.000006
    10  C   -0.000025  -0.000136   0.000552  -0.001229   0.000004   0.000012
    11  H    0.000005  -0.000016   0.000056   0.000004  -0.000031  -0.000003
    12  H   -0.000015  -0.000018   0.000006   0.000012  -0.000003   0.000000
    13  H   -0.000001   0.000005  -0.000075   0.000118  -0.000000  -0.000002
    14  H   -0.000002  -0.000011   0.000007   0.000006  -0.000001  -0.000000
    15  H    0.000008  -0.000007   0.000026   0.000004  -0.000000   0.000001
              13         14         15
     1  O    0.000000  -0.000000  -0.000000
     2  H   -0.000000   0.000000  -0.000000
     3  C    0.000016   0.000065   0.000216
     4  H   -0.000000  -0.000000  -0.000000
     5  C    0.000039   0.000055   0.000262
     6  C   -0.000066  -0.000120  -0.000524
     7  O   -0.000001  -0.000002   0.000008
     8  O    0.000005  -0.000011  -0.000007
     9  C   -0.000075   0.000007   0.000026
    10  C    0.000118   0.000006   0.000004
    11  H   -0.000000  -0.000001  -0.000000
    12  H   -0.000002  -0.000000   0.000001
    13  H   -0.000068  -0.000005   0.000001
    14  H   -0.000005   0.000002   0.000002
    15  H    0.000001   0.000002   0.000017
 Mulliken charges and spin densities:
               1          2
     1  O   -0.411025   0.796913
     2  H    0.415750  -0.027938
     3  C    1.015437   0.151727
     4  H    0.483080  -0.044299
     5  C   -0.269534   0.101443
     6  C   -0.980586   0.022803
     7  O   -0.352908  -0.000269
     8  O   -0.209387  -0.000269
     9  C   -0.250026   0.000077
    10  C   -0.561038  -0.000122
    11  H    0.221158  -0.000015
    12  H    0.232897  -0.000016
    13  H    0.208606  -0.000039
    14  H    0.221113  -0.000002
    15  H    0.236463   0.000005
 Sum of Mulliken charges =  -0.00000   1.00000
 Mulliken charges and spin densities with hydrogens summed into heavy atoms:
               1          2
     1  O    0.004724   0.768976
     3  C    1.498516   0.107429
     5  C   -0.269534   0.101443
     6  C   -0.980586   0.022803
     7  O   -0.352908  -0.000269
     8  O   -0.209387  -0.000269
     9  C    0.204029   0.000046
    10  C    0.105144  -0.000158
 APT charges:
               1
     1  O   -0.173468
     2  H    0.360040
     3  C   -0.220949
     4  H    0.078893
     5  C   -0.338357
     6  C    1.567983
     7  O   -0.802843
     8  O   -0.995955
     9  C    0.523596
    10  C   -0.061818
    11  H   -0.006173
    12  H   -0.006218
    13  H    0.013816
    14  H    0.020736
    15  H    0.040718
 Sum of APT charges =  -0.00000
 APT charges with hydrogens summed into heavy atoms:
               1
     1  O    0.186571
     3  C   -0.142056
     5  C   -0.338357
     6  C    1.567983
     7  O   -0.802843
     8  O   -0.995955
     9  C    0.511205
    10  C    0.013451
 Electronic spatial extent (au):  <R**2>=           1675.1671
 Charge=             -0.0000 electrons
 Dipole moment (field-independent basis, Debye):
    X=             -0.4526    Y=             -0.0168    Z=             -0.9420  Tot=              1.0452
 Quadrupole moment (field-independent basis, Debye-Ang):
   XX=            -33.2949   YY=            -53.5505   ZZ=            -48.4276
   XY=              9.2066   XZ=             -3.1809   YZ=             -0.4387
 Traceless Quadrupole moment (field-independent basis, Debye-Ang):
   XX=             11.7961   YY=             -8.4595   ZZ=             -3.3366
   XY=              9.2066   XZ=             -3.1809   YZ=             -0.4387
 Octapole moment (field-independent basis, Debye-Ang**2):
  XXX=             13.4160  YYY=             -6.2460  ZZZ=             -1.8462  XYY=              8.0311
  XXY=             30.5312  XXZ=            -20.8309  XZZ=             -5.4545  YZZ=              1.5396
  YYZ=              0.2519  XYZ=             -0.1615
 Hexadecapole moment (field-independent basis, Debye-Ang**3):
 XXXX=          -1602.4461 YYYY=           -195.3643 ZZZZ=           -125.0901 XXXY=            179.4589
 XXXZ=            -65.1164 YYYX=             11.6040 YYYZ=              0.6484 ZZZX=              5.8366
 ZZZY=             -0.0601 XXYY=           -317.7082 XXZZ=           -342.4937 YYZZ=            -48.5328
 XXYZ=              3.4199 YYXZ=              3.2487 ZZXY=              1.6750
 N-N= 3.349179914693D+02 E-N=-1.652165361829D+03  KE= 4.178681959734D+02
  Exact polarizability: 120.919  -5.763  58.288   2.649   0.399  45.787
 Approx polarizability: 108.309 -12.416  73.940   3.563   1.651  47.323
                          Isotropic Fermi Contact Couplings
        Atom                 a.u.       MegaHertz       Gauss      10(-4) cm-1
     1  O(17)              0.09919     -60.12667     -21.45469     -20.05610
     2  H(1)              -0.01391     -62.16094     -22.18057     -20.73466
     3  C(13)              0.31030     348.83707     124.47374     116.35952
     4  H(1)              -0.02734    -122.18940     -43.60022     -40.75800
     5  C(13)              0.04631      52.06578      18.57836      17.36727
     6  C(13)              0.00355       3.98670       1.42255       1.32982
     7  O(17)             -0.00001       0.00691       0.00247       0.00230
     8  O(17)             -0.00260       1.57846       0.56323       0.52652
     9  C(13)             -0.00017      -0.19582      -0.06987      -0.06532
    10  C(13)             -0.00010      -0.11621      -0.04147      -0.03876
    11  H(1)              -0.00000      -0.01907      -0.00681      -0.00636
    12  H(1)              -0.00001      -0.05853      -0.02088      -0.01952
    13  H(1)              -0.00001      -0.06033      -0.02153      -0.02012
    14  H(1)              -0.00000      -0.00394      -0.00141      -0.00132
    15  H(1)               0.00000       0.00492       0.00176       0.00164
 --------------------------------------------------------
       Center         ----  Spin Dipole Couplings  ----
                      3XX-RR        3YY-RR        3ZZ-RR
 --------------------------------------------------------
     1   Atom        2.922715     -1.471172     -1.451542
     2   Atom       -0.043372      0.115695     -0.072323
     3   Atom        0.222650     -0.115779     -0.106871
     4   Atom        0.165499     -0.078928     -0.086572
     5   Atom        0.050831     -0.001376     -0.049455
     6   Atom        0.007355     -0.004448     -0.002907
     7   Atom        0.025515     -0.001475     -0.024040
     8   Atom        0.002846      0.001197     -0.004043
     9   Atom        0.000721     -0.000340     -0.000382
    10   Atom        0.000795     -0.000373     -0.000422
    11   Atom        0.000829     -0.000429     -0.000400
    12   Atom        0.000930     -0.000486     -0.000443
    13   Atom        0.000537     -0.000268     -0.000269
    14   Atom        0.000808     -0.000417     -0.000390
    15   Atom        0.000871     -0.000450     -0.000421
 --------------------------------------------------------
                        XY            XZ            YZ
 --------------------------------------------------------
     1   Atom       -0.272180      0.387339     -0.023974
     2   Atom        0.016336     -0.001608     -0.086452
     3   Atom       -0.033516      0.036347     -0.009176
     4   Atom        0.040521      0.067976      0.023918
     5   Atom       -0.060845     -0.012971      0.021429
     6   Atom       -0.003420      0.001090     -0.000945
     7   Atom       -0.005883      0.016747      0.003234
     8   Atom       -0.000391      0.000934      0.003098
     9   Atom        0.000049      0.000151     -0.000001
    10   Atom       -0.000028     -0.000044      0.000044
    11   Atom        0.000169      0.000218      0.000009
    12   Atom       -0.000165      0.000278     -0.000005
    13   Atom       -0.000016     -0.000064      0.000002
    14   Atom        0.000158     -0.000247     -0.000024
    15   Atom       -0.000204     -0.000271      0.000024
 --------------------------------------------------------


 ---------------------------------------------------------------------------------
              Anisotropic Spin Dipole Couplings in Principal Axis System
 ---------------------------------------------------------------------------------

       Atom             a.u.   MegaHertz   Gauss  10(-4) cm-1        Axes

              Baa    -1.4880   107.668    38.419    35.914  0.0590  0.9978  0.0296
     1 O(17)  Bbb    -1.4856   107.495    38.357    35.857 -0.0890 -0.0242  0.9957
              Bcc     2.9735  -215.164   -76.776   -71.771  0.9943 -0.0614  0.0874
 
              Baa    -0.1063   -56.742   -20.247   -18.927 -0.0714  0.3664  0.9277
     2 H(1)   Bbb    -0.0443   -23.659    -8.442    -7.892  0.9941 -0.0496  0.0961
              Bcc     0.1507    80.401    28.689    26.819  0.0812  0.9291 -0.3608
 
              Baa    -0.1219   -16.356    -5.836    -5.456  0.0393  0.8921  0.4501
     3 C(13)  Bbb    -0.1081   -14.510    -5.178    -4.840 -0.1421 -0.4409  0.8863
              Bcc     0.2300    30.866    11.014    10.296  0.9891 -0.0988  0.1094
 
              Baa    -0.1108   -59.117   -21.094   -19.719 -0.1456 -0.4687  0.8713
     4 H(1)   Bbb    -0.0795   -42.391   -15.126   -14.140 -0.2610  0.8677  0.4232
              Bcc     0.1902   101.508    36.221    33.859  0.9543  0.1658  0.2487
 
              Baa    -0.0593    -7.962    -2.841    -2.656 -0.1748 -0.4976  0.8496
     5 C(13)  Bbb    -0.0352    -4.720    -1.684    -1.574  0.5482  0.6676  0.5038
              Bcc     0.0945    12.683     4.525     4.230  0.8178 -0.5539 -0.1561
 
              Baa    -0.0055    -0.741    -0.265    -0.247  0.2294  0.9421  0.2444
     6 C(13)  Bbb    -0.0029    -0.389    -0.139    -0.130 -0.1718 -0.2079  0.9629
              Bcc     0.0084     1.130     0.403     0.377  0.9580 -0.2629  0.1141
 
              Baa    -0.0300     2.170     0.774     0.724 -0.3010 -0.1686  0.9386
     7 O(17)  Bbb    -0.0013     0.096     0.034     0.032  0.0870  0.9753  0.2031
              Bcc     0.0313    -2.266    -0.809    -0.756  0.9496 -0.1428  0.2789
 
              Baa    -0.0056     0.405     0.145     0.135 -0.1190 -0.4173  0.9009
     8 O(17)  Bbb     0.0026    -0.190    -0.068    -0.063 -0.1111  0.9073  0.4056
              Bcc     0.0030    -0.215    -0.077    -0.072  0.9867  0.0519  0.1543
 
              Baa    -0.0004    -0.054    -0.019    -0.018 -0.1370  0.1147  0.9839
     9 C(13)  Bbb    -0.0003    -0.046    -0.016    -0.015 -0.0285  0.9924 -0.1196
              Bcc     0.0007     0.100     0.036     0.033  0.9902  0.0444  0.1326
 
              Baa    -0.0004    -0.060    -0.021    -0.020  0.0190 -0.5016  0.8649
    10 C(13)  Bbb    -0.0003    -0.047    -0.017    -0.016  0.0406  0.8647  0.5006
              Bcc     0.0008     0.107     0.038     0.036  0.9990 -0.0256 -0.0368
 
              Baa    -0.0005    -0.248    -0.088    -0.083 -0.1997  0.8026  0.5621
    11 H(1)   Bbb    -0.0004    -0.226    -0.081    -0.075 -0.0625 -0.5830  0.8101
              Bcc     0.0009     0.474     0.169     0.158  0.9779  0.1266  0.1666
 
              Baa    -0.0005    -0.282    -0.100    -0.094  0.2053  0.7435 -0.6364
    12 H(1)   Bbb    -0.0005    -0.253    -0.090    -0.084 -0.0708  0.6598  0.7481
              Bcc     0.0010     0.534     0.191     0.178  0.9761 -0.1085  0.1881
 
              Baa    -0.0003    -0.146    -0.052    -0.049  0.0772 -0.0754  0.9942
    13 H(1)   Bbb    -0.0003    -0.143    -0.051    -0.048  0.0258  0.9970  0.0736
              Bcc     0.0005     0.290     0.103     0.097  0.9967 -0.0200 -0.0789
 
              Baa    -0.0004    -0.237    -0.085    -0.079  0.2253 -0.6409  0.7338
    14 H(1)   Bbb    -0.0004    -0.230    -0.082    -0.077  0.0332  0.7578  0.6516
              Bcc     0.0009     0.468     0.167     0.156  0.9737  0.1224 -0.1920
 
              Baa    -0.0005    -0.264    -0.094    -0.088  0.2348  0.7476  0.6212
    15 H(1)   Bbb    -0.0005    -0.246    -0.088    -0.082  0.0548 -0.6483  0.7594
              Bcc     0.0010     0.510     0.182     0.170  0.9705 -0.1443 -0.1932
 

 ---------------------------------------------------------------------------------

 Calling FoFJK, ICntrl=    100127 FMM=F ISym2X=0 I1Cent= 0 IOpClX= 1 NMat=1 NMatS=1 NMatT=0.
 Full mass-weighted force constant matrix:
 Low frequencies --- -651.3871 -475.2825 -214.3405 -162.1201 -138.9869  -73.4624
 Low frequencies ---  -48.8923   -0.0008    0.0007
 ******    5 imaginary frequencies (negative Signs) ****** 
 Diagonal vibrational polarizability:
       79.1248518      25.6606111     114.7928836
 Harmonic frequencies (cm**-1), IR intensities (KM/Mole), Raman scattering
 activities (A**4/AMU), depolarization ratios for plane and unpolarized
 incident light, reduced masses (AMU), force constants (mDyne/A),
 and normal coordinates:
                      1                      2                      3
                      A                      A                      A
 Frequencies --   -651.3560              -471.4536              -209.3605
 Red. masses --      1.5324                 1.0547                 3.1350
 Frc consts  --      0.3830                 0.1381                 0.0810
 IR Inten    --    108.0028               134.3704                47.2998
  Atom  AN      X      Y      Z        X      Y      Z        X      Y      Z
     1   8    -0.15  -0.02  -0.05     0.00  -0.02  -0.02    -0.01  -0.16   0.16
     2   1     0.06  -0.01   0.06    -0.23   0.33   0.87     0.69  -0.26  -0.02
     3   6     0.07   0.05   0.05     0.01   0.01  -0.04     0.04   0.23  -0.22
     4   1     0.90   0.14   0.35     0.03   0.07  -0.25     0.10   0.31  -0.38
     5   6     0.03  -0.00  -0.00     0.00  -0.01   0.00    -0.00   0.08  -0.07
     6   6     0.01  -0.01  -0.01     0.00  -0.00   0.00    -0.02   0.01  -0.00
     7   8     0.01  -0.01   0.00     0.00  -0.00  -0.02    -0.06  -0.00  -0.01
     8   8     0.00  -0.00  -0.00    -0.00  -0.01   0.01     0.01  -0.02   0.03
     9   6     0.00   0.00  -0.00    -0.00  -0.01   0.01    -0.00  -0.05   0.04
    10   6     0.00  -0.00  -0.00     0.00   0.01   0.01     0.01  -0.02   0.03
    11   1     0.00   0.00  -0.00    -0.00  -0.01   0.02     0.01  -0.08   0.07
    12   1     0.00   0.00  -0.00     0.00  -0.01  -0.00    -0.02  -0.08   0.01
    13   1     0.00  -0.00  -0.00     0.00   0.01   0.01     0.00  -0.04   0.04
    14   1    -0.00  -0.00  -0.00     0.00   0.02   0.02     0.03   0.01   0.06
    15   1    -0.00  -0.00  -0.00     0.00   0.02  -0.01    -0.01   0.01   0.00
                      4                      5                      6
                      A                      A                      A
 Frequencies --   -159.0574               -32.3494                42.7658
 Red. masses --      6.8036                 3.0523                 3.8388
 Frc consts  --      0.1014                 0.0019                 0.0041
 IR Inten    --     10.5549                 0.2211                 5.8447
  Atom  AN      X      Y      Z        X      Y      Z        X      Y      Z
     1   8     0.27  -0.24  -0.25     0.01   0.02  -0.01     0.01   0.03  -0.10
     2   1     0.38  -0.08   0.20    -0.01   0.03   0.03     0.04   0.00  -0.18
     3   6    -0.04   0.23   0.34    -0.01   0.02   0.02     0.05  -0.00  -0.12
     4   1    -0.12   0.25   0.46    -0.01   0.03   0.06     0.06   0.00  -0.24
     5   6    -0.06   0.13   0.15    -0.01  -0.00  -0.03     0.04  -0.00   0.06
     6   6    -0.06   0.05   0.02    -0.03  -0.05  -0.00     0.03  -0.02   0.15
     7   8    -0.13   0.04  -0.08    -0.09  -0.09   0.19     0.01  -0.02   0.10
     8   8     0.01   0.00   0.01     0.02  -0.05  -0.14     0.04  -0.05   0.23
     9   6    -0.00  -0.07  -0.05     0.00  -0.10  -0.03     0.06  -0.04  -0.06
    10   6    -0.04  -0.05  -0.07     0.11   0.24  -0.01    -0.22   0.10  -0.20
    11   1     0.06  -0.11  -0.03    -0.03  -0.24   0.21     0.15  -0.09  -0.06
    12   1    -0.03  -0.10  -0.08    -0.08  -0.25  -0.25     0.19  -0.09  -0.18
    13   1    -0.04  -0.10  -0.09     0.08   0.07   0.03    -0.20   0.09  -0.44
    14   1    -0.02  -0.02  -0.03     0.26   0.43   0.23    -0.35   0.16  -0.07
    15   1    -0.09  -0.02  -0.09     0.03   0.44  -0.30    -0.33   0.15  -0.21
                      7                      8                      9
                      A                      A                      A
 Frequencies --    108.5759               186.0791               264.4637
 Red. masses --      3.3224                 1.2907                 4.1242
 Frc consts  --      0.0231                 0.0263                 0.1700
 IR Inten    --      5.2726                 1.0377                11.6352
  Atom  AN      X      Y      Z        X      Y      Z        X      Y      Z
     1   8     0.14   0.09   0.01    -0.04  -0.01  -0.01    -0.08   0.03  -0.05
     2   1     0.32   0.10   0.06    -0.08  -0.01  -0.02     0.17  -0.03  -0.18
     3   6     0.06   0.15   0.03    -0.02  -0.01  -0.01    -0.02   0.04  -0.08
     4   1     0.12   0.29   0.06    -0.04  -0.05  -0.03    -0.02   0.11  -0.48
     5   6    -0.02  -0.15  -0.03     0.00   0.05   0.02    -0.06  -0.07   0.37
     6   6    -0.02  -0.15  -0.02    -0.00   0.01   0.01    -0.03  -0.07   0.18
     7   8     0.08  -0.12   0.02    -0.08  -0.01  -0.00    -0.02  -0.03  -0.12
     8   8    -0.12  -0.07  -0.03     0.04  -0.03   0.00    -0.01  -0.04  -0.04
     9   6    -0.10   0.13  -0.00     0.05  -0.02  -0.01     0.02   0.10  -0.10
    10   6    -0.07   0.07   0.02     0.06   0.03  -0.01     0.17   0.02  -0.03
    11   1    -0.22   0.24  -0.09     0.03  -0.02   0.00    -0.07   0.18  -0.16
    12   1     0.03   0.22   0.10     0.06  -0.03  -0.02     0.10   0.17  -0.01
    13   1    -0.03   0.43   0.03     0.12   0.62  -0.02     0.13  -0.19   0.18
    14   1    -0.35  -0.09  -0.13    -0.42  -0.17  -0.15     0.45   0.06  -0.07
    15   1     0.20  -0.14   0.17     0.49  -0.26   0.15     0.10   0.09  -0.09
                     10                     11                     12
                      A                      A                      A
 Frequencies --    316.6682               421.0756               486.1269
 Red. masses --      3.1459                 4.0441                 2.7483
 Frc consts  --      0.1859                 0.4225                 0.3827
 IR Inten    --      8.2119                 2.5710                26.7931
  Atom  AN      X      Y      Z        X      Y      Z        X      Y      Z
     1   8    -0.01   0.01  -0.01    -0.04  -0.01  -0.00    -0.13  -0.06  -0.02
     2   1     0.16  -0.00  -0.04    -0.07   0.01   0.05    -0.67  -0.08  -0.18
     3   6    -0.01   0.02  -0.02    -0.10   0.09   0.05    -0.02   0.24   0.06
     4   1     0.02   0.11  -0.15    -0.18   0.08   0.21    -0.47  -0.18  -0.13
     5   6    -0.05  -0.10   0.11    -0.12  -0.07  -0.18    -0.04   0.05   0.01
     6   6    -0.02   0.04   0.05    -0.06  -0.00   0.00     0.04  -0.07  -0.04
     7   8     0.21   0.12   0.01     0.11   0.05   0.06     0.15  -0.04   0.01
     8   8    -0.05   0.10  -0.09    -0.07  -0.03   0.25     0.06  -0.07  -0.06
     9   6    -0.09  -0.21  -0.01    -0.00  -0.02  -0.15     0.07   0.00   0.06
    10   6    -0.03  -0.03   0.00     0.21  -0.02  -0.10    -0.04   0.01   0.02
    11   1     0.06  -0.43   0.22     0.03  -0.02  -0.18    -0.01   0.06   0.01
    12   1    -0.35  -0.40  -0.23     0.12  -0.01  -0.17     0.11   0.04   0.10
    13   1    -0.00   0.27   0.02     0.19  -0.01   0.29    -0.03  -0.03  -0.16
    14   1    -0.26  -0.05   0.05     0.44  -0.03  -0.20    -0.12   0.02   0.08
    15   1     0.21  -0.10  -0.05     0.43  -0.05  -0.21    -0.15   0.03   0.06
                     13                     14                     15
                      A                      A                      A
 Frequencies --    558.1661               639.9367               730.0689
 Red. masses --      2.3603                 4.6445                 2.3756
 Frc consts  --      0.4333                 1.1206                 0.7460
 IR Inten    --     99.8606                24.0908               151.6731
  Atom  AN      X      Y      Z        X      Y      Z        X      Y      Z
     1   8    -0.06   0.04  -0.03    -0.06   0.03  -0.03     0.09  -0.01   0.03
     2   1     0.71   0.07   0.18     0.71   0.06   0.18    -0.26   0.02   0.07
     3   6    -0.16  -0.05   0.04    -0.09  -0.15   0.05    -0.08  -0.02  -0.17
     4   1    -0.07   0.33  -0.04    -0.10   0.11  -0.19     0.19  -0.00   0.83
     5   6    -0.15  -0.11  -0.03     0.08   0.42   0.05    -0.07   0.08  -0.01
     6   6    -0.00   0.03  -0.04     0.01  -0.09  -0.07    -0.09  -0.02   0.17
     7   8     0.03   0.03   0.02     0.18  -0.05   0.03     0.06   0.05  -0.04
     8   8     0.10  -0.03  -0.03    -0.05  -0.13   0.00     0.01  -0.08  -0.06
     9   6     0.16   0.02   0.07    -0.12  -0.01  -0.04     0.03  -0.02   0.02
    10   6    -0.00   0.01   0.01    -0.02   0.00   0.00     0.01   0.00   0.01
    11   1     0.08   0.10   0.00    -0.18   0.05  -0.10    -0.08   0.09  -0.08
    12   1     0.20   0.07   0.14     0.00   0.04   0.00     0.11   0.07   0.13
    13   1     0.02  -0.02  -0.27    -0.04   0.02   0.18     0.01   0.02  -0.09
    14   1    -0.14   0.02   0.08     0.08   0.02  -0.01    -0.06   0.05   0.10
    15   1    -0.17   0.04   0.08     0.09   0.00  -0.08    -0.04   0.05  -0.02
                     16                     17                     18
                      A                      A                      A
 Frequencies --    802.1932               832.3788               892.8201
 Red. masses --      1.8805                 2.4271                 2.8631
 Frc consts  --      0.7130                 0.9908                 1.3447
 IR Inten    --     34.9239                23.0393                29.3103
  Atom  AN      X      Y      Z        X      Y      Z        X      Y      Z
     1   8    -0.03   0.00  -0.01    -0.05   0.01  -0.01    -0.02   0.00  -0.01
     2   1     0.15   0.02   0.07     0.17   0.00   0.01     0.08   0.03   0.10
     3   6    -0.03   0.00   0.03     0.05  -0.00   0.12    -0.06   0.02  -0.08
     4   1    -0.15   0.01   0.10    -0.13  -0.03  -0.31    -0.17   0.01   0.45
     5   6     0.01   0.04  -0.10     0.06  -0.01  -0.17    -0.02   0.04   0.06
     6   6     0.04  -0.07   0.17     0.00  -0.02   0.24     0.10  -0.09  -0.06
     7   8     0.01  -0.08  -0.05    -0.02   0.02  -0.06     0.00  -0.17  -0.01
     8   8    -0.01   0.07  -0.02     0.01   0.02  -0.05    -0.07   0.22   0.05
     9   6     0.03   0.08   0.00    -0.03  -0.07  -0.01     0.05  -0.03   0.04
    10   6     0.01   0.03  -0.00    -0.02  -0.03   0.01     0.05  -0.06  -0.04
    11   1     0.11  -0.24   0.45    -0.00   0.16  -0.40     0.26   0.02  -0.19
    12   1    -0.16  -0.24  -0.42     0.01   0.19   0.36    -0.20   0.10   0.29
    13   1    -0.01  -0.15  -0.05    -0.00   0.17   0.06     0.08   0.15  -0.21
    14   1     0.07  -0.18  -0.33    -0.09   0.19   0.35    -0.13   0.15   0.33
    15   1    -0.14  -0.13   0.36     0.14   0.13  -0.37     0.10   0.12  -0.36
                     19                     20                     21
                      A                      A                      A
 Frequencies --    928.8246              1042.9512              1118.2020
 Red. masses --      2.1786                 1.6599                 3.4909
 Frc consts  --      1.1074                 1.0638                 2.5717
 IR Inten    --     24.0802                90.4529                20.2966
  Atom  AN      X      Y      Z        X      Y      Z        X      Y      Z
     1   8    -0.03   0.00  -0.01     0.08  -0.01   0.03    -0.03   0.01  -0.02
     2   1     0.13   0.03   0.10    -0.39  -0.07  -0.21     0.22   0.03   0.11
     3   6    -0.03   0.03  -0.05    -0.09  -0.03   0.04     0.09   0.00  -0.01
     4   1    -0.22  -0.01   0.38     0.51   0.34  -0.47    -0.24  -0.30   0.16
     5   6    -0.02  -0.05   0.02    -0.09   0.06  -0.03     0.07   0.00   0.01
     6   6     0.12   0.02  -0.01    -0.03  -0.04   0.00    -0.12  -0.02  -0.02
     7   8    -0.01  -0.03  -0.00     0.02  -0.05  -0.01     0.00   0.03   0.01
     8   8     0.15   0.00   0.00     0.01   0.06  -0.00    -0.17   0.02  -0.00
     9   6    -0.07   0.01  -0.11     0.08   0.00  -0.05     0.24  -0.06  -0.21
    10   6    -0.16   0.02   0.10    -0.06   0.00   0.06    -0.03   0.02   0.21
    11   1     0.14  -0.04  -0.18     0.23  -0.04  -0.10     0.17   0.00  -0.28
    12   1     0.05  -0.00  -0.16     0.07  -0.02  -0.08     0.34  -0.05  -0.25
    13   1    -0.19   0.07   0.70    -0.06   0.04   0.22    -0.02  -0.03   0.00
    14   1     0.18   0.02   0.00     0.03   0.03   0.07    -0.17   0.01   0.26
    15   1     0.19  -0.05  -0.04     0.05  -0.01  -0.00    -0.20   0.02   0.36
                     22                     23                     24
                      A                      A                      A
 Frequencies --   1157.9116              1226.9392              1324.1381
 Red. masses --      2.0912                 1.7525                 2.1398
 Frc consts  --      1.6519                 1.5543                 2.2105
 IR Inten    --     34.6028                 1.8743               412.1450
  Atom  AN      X      Y      Z        X      Y      Z        X      Y      Z
     1   8    -0.01   0.00  -0.00    -0.00   0.00  -0.00     0.00  -0.01   0.00
     2   1     0.07   0.01   0.03     0.05   0.01   0.02    -0.10  -0.01  -0.04
     3   6     0.03   0.00  -0.00     0.03  -0.00   0.00    -0.05   0.00  -0.00
     4   1    -0.06  -0.12   0.04    -0.03  -0.10   0.01     0.03   0.25   0.01
     5   6     0.02   0.00   0.01     0.01  -0.00   0.00    -0.01  -0.00  -0.00
     6   6    -0.06  -0.01  -0.00    -0.07  -0.01  -0.01     0.23   0.09   0.04
     7   8     0.00   0.01  -0.00     0.00   0.03   0.01    -0.03   0.01  -0.00
     8   8    -0.08   0.02  -0.05    -0.01  -0.07  -0.01    -0.12  -0.04  -0.02
     9   6     0.14  -0.05   0.17     0.05   0.18   0.02     0.08  -0.00  -0.03
    10   6    -0.11   0.03  -0.13    -0.03  -0.13  -0.01    -0.02  -0.07   0.00
    11   1     0.11   0.05   0.05     0.38  -0.15   0.31    -0.69   0.12   0.32
    12   1     0.32  -0.04   0.14    -0.27  -0.10  -0.31     0.27  -0.10  -0.24
    13   1    -0.14  -0.01   0.54     0.01   0.26   0.07    -0.01   0.10   0.04
    14   1     0.39  -0.01  -0.35    -0.03   0.15   0.39    -0.00   0.07   0.22
    15   1     0.33  -0.14  -0.15     0.14   0.07  -0.45     0.06   0.00  -0.17
                     25                     26                     27
                      A                      A                      A
 Frequencies --   1369.0567              1440.4111              1455.4098
 Red. masses --      1.5682                 1.3197                 1.2523
 Frc consts  --      1.7318                 1.6133                 1.5629
 IR Inten    --    265.4761                17.4354                22.5717
  Atom  AN      X      Y      Z        X      Y      Z        X      Y      Z
     1   8     0.00   0.00  -0.00    -0.01  -0.00  -0.00    -0.00  -0.00  -0.00
     2   1     0.05   0.00   0.02    -0.05  -0.01  -0.02    -0.02  -0.00  -0.01
     3   6     0.02   0.00   0.00    -0.01  -0.01  -0.00    -0.00  -0.00  -0.00
     4   1    -0.00  -0.13  -0.01    -0.05   0.21   0.03    -0.02   0.08   0.01
     5   6    -0.00   0.00   0.00     0.02  -0.00   0.00     0.01  -0.00   0.00
     6   6    -0.12  -0.05  -0.02     0.07   0.02   0.01     0.01   0.01   0.00
     7   8     0.01  -0.03  -0.00    -0.01   0.02   0.00    -0.00   0.00   0.00
     8   8     0.09   0.10   0.01    -0.05  -0.03  -0.03    -0.01  -0.00  -0.01
     9   6    -0.06   0.01   0.02    -0.09   0.01   0.08    -0.03   0.00   0.03
    10   6     0.01  -0.06   0.01     0.02   0.00   0.05     0.07  -0.01  -0.12
    11   1    -0.45   0.06   0.21     0.54  -0.03  -0.34     0.15   0.01  -0.11
    12   1     0.73  -0.07  -0.30     0.50  -0.14  -0.32     0.15  -0.06  -0.11
    13   1     0.02   0.05  -0.04     0.05  -0.02  -0.26     0.01  -0.01   0.55
    14   1    -0.06   0.01   0.13     0.01  -0.13  -0.15    -0.37   0.20   0.37
    15   1     0.02   0.04  -0.17     0.04   0.11  -0.15    -0.37  -0.10   0.38
                     28                     29                     30
                      A                      A                      A
 Frequencies --   1492.1538              1528.0152              1535.9594
 Red. masses --      1.2539                 1.0423                 1.0795
 Frc consts  --      1.6449                 1.4338                 1.5005
 IR Inten    --    164.1665                14.2743                10.7025
  Atom  AN      X      Y      Z        X      Y      Z        X      Y      Z
     1   8    -0.03  -0.02  -0.00     0.00   0.00   0.00     0.00   0.00   0.00
     2   1    -0.19  -0.02  -0.07     0.00   0.00   0.00     0.01   0.00   0.00
     3   6     0.04  -0.04  -0.01    -0.00   0.00   0.00    -0.01   0.00   0.00
     4   1    -0.33   0.88   0.16     0.00  -0.00  -0.00     0.03  -0.05  -0.01
     5   6     0.10  -0.02   0.01    -0.00   0.00  -0.00    -0.01   0.00  -0.00
     6   6    -0.07  -0.02  -0.01    -0.00   0.00   0.00     0.03  -0.00   0.00
     7   8    -0.00   0.01   0.00     0.00  -0.01  -0.00    -0.00   0.01   0.00
     8   8     0.02   0.01   0.01     0.00   0.00   0.00    -0.02  -0.01  -0.01
     9   6     0.01   0.00  -0.02    -0.01  -0.02   0.01    -0.02  -0.01  -0.06
    10   6    -0.01   0.00  -0.00    -0.02  -0.05  -0.01     0.02  -0.02   0.01
    11   1    -0.06  -0.04   0.11    -0.01   0.06  -0.12     0.20  -0.39   0.42
    12   1    -0.04   0.07   0.10    -0.01  -0.05  -0.04     0.30   0.34   0.41
    13   1    -0.01   0.02   0.00     0.07   0.65  -0.13     0.02   0.19   0.15
    14   1     0.04   0.01   0.00     0.57   0.12   0.01    -0.06  -0.14  -0.18
    15   1     0.02  -0.01   0.00    -0.36  -0.03   0.26    -0.28   0.20  -0.12
                     31                     32                     33
                      A                      A                      A
 Frequencies --   1544.8709              1905.5500              2415.5265
 Red. masses --      1.0678                12.2789                 9.0519
 Frc consts  --      1.5015                26.2693                31.1180
 IR Inten    --     26.2299               329.8411                48.2623
  Atom  AN      X      Y      Z        X      Y      Z        X      Y      Z
     1   8    -0.00  -0.00  -0.00    -0.01  -0.00  -0.00     0.03   0.01   0.01
     2   1    -0.01  -0.00  -0.00     0.00  -0.00   0.00     0.04  -0.01   0.01
     3   6     0.00  -0.00  -0.00     0.06  -0.01   0.00    -0.57   0.16  -0.02
     4   1    -0.02   0.03   0.01    -0.07   0.08   0.02     0.37  -0.35  -0.10
     5   6     0.00  -0.00   0.00    -0.01  -0.02  -0.00     0.59  -0.16   0.02
     6   6    -0.02   0.00  -0.00    -0.25   0.75   0.08    -0.09   0.03  -0.00
     7   8     0.00  -0.01  -0.00     0.18  -0.49  -0.05     0.00  -0.00  -0.00
     8   8     0.01   0.00   0.00    -0.03  -0.07  -0.01    -0.00  -0.00  -0.00
     9   6     0.04  -0.01   0.03    -0.02   0.02  -0.00     0.00   0.00  -0.00
    10   6     0.04  -0.01   0.03     0.01  -0.00   0.01    -0.00  -0.00   0.00
    11   1    -0.17   0.22  -0.19     0.15  -0.09   0.05     0.01   0.00   0.00
    12   1    -0.23  -0.17  -0.15     0.12   0.08   0.03     0.00   0.00   0.00
    13   1     0.02   0.17   0.29     0.01  -0.03  -0.05     0.00  -0.00   0.00
    14   1    -0.23  -0.31  -0.36    -0.03  -0.01   0.00    -0.00  -0.00  -0.00
    15   1    -0.37   0.38  -0.32     0.04   0.02  -0.04     0.00   0.00  -0.00
                     34                     35                     36
                      A                      A                      A
 Frequencies --   3107.8757              3137.8014              3187.6405
 Red. masses --      1.0351                 1.0601                 1.1008
 Frc consts  --      5.8906                 6.1495                 6.5903
 IR Inten    --     13.6700                20.6624                12.8093
  Atom  AN      X      Y      Z        X      Y      Z        X      Y      Z
     1   8     0.00   0.00  -0.00    -0.00  -0.00  -0.00    -0.00  -0.00   0.00
     2   1     0.00  -0.00   0.00    -0.00   0.00  -0.00    -0.00   0.00  -0.00
     3   6     0.00  -0.00   0.00    -0.00   0.00  -0.00    -0.00   0.00  -0.00
     4   1    -0.00  -0.00  -0.00     0.00   0.00   0.00     0.00   0.00   0.00
     5   6    -0.00   0.00  -0.00     0.00  -0.00   0.00     0.00  -0.00  -0.00
     6   6     0.00   0.00   0.00    -0.00  -0.00  -0.00    -0.00  -0.00   0.00
     7   8     0.00  -0.00  -0.00    -0.00   0.00  -0.00     0.00   0.00   0.00
     8   8    -0.00  -0.00  -0.00     0.00   0.00   0.00    -0.00   0.00  -0.00
     9   6     0.00   0.00  -0.00     0.03  -0.02   0.06     0.01   0.04   0.01
    10   6    -0.03  -0.00   0.04    -0.01   0.00  -0.01     0.04  -0.06   0.03
    11   1     0.00   0.01   0.00    -0.20  -0.45  -0.26    -0.17  -0.38  -0.23
    12   1     0.00  -0.02   0.01    -0.11   0.68  -0.43     0.03  -0.16   0.11
    13   1     0.61  -0.07   0.06     0.12  -0.01   0.01    -0.49   0.04  -0.04
    14   1    -0.12   0.49  -0.31     0.01  -0.06   0.03    -0.12   0.56  -0.36
    15   1    -0.20  -0.42  -0.24     0.01   0.02   0.01     0.08   0.13   0.09
                     37                     38                     39
                      A                      A                      A
 Frequencies --   3190.7935              3211.7246              3799.4189
 Red. masses --      1.1022                 1.1052                 1.0658
 Frc consts  --      6.6114                 6.7170                 9.0652
 IR Inten    --      8.0910                17.7043                51.0220
  Atom  AN      X      Y      Z        X      Y      Z        X      Y      Z
     1   8     0.00  -0.00  -0.00     0.00   0.00  -0.00    -0.00  -0.06   0.02
     2   1     0.00  -0.00   0.00     0.00  -0.00   0.00     0.06   0.93  -0.35
     3   6     0.00  -0.00   0.00     0.00   0.00   0.00    -0.00   0.00  -0.00
     4   1    -0.00  -0.00  -0.00    -0.00  -0.00  -0.00     0.01  -0.01   0.01
     5   6    -0.00  -0.00  -0.00    -0.00   0.00  -0.00     0.00  -0.00   0.00
     6   6    -0.00   0.00  -0.00     0.00  -0.00  -0.00    -0.00   0.00  -0.00
     7   8     0.00  -0.00   0.00    -0.00   0.00   0.00     0.00  -0.00  -0.00
     8   8     0.00   0.00  -0.00     0.00  -0.00   0.00     0.00   0.00   0.00
     9   6     0.01   0.05  -0.00    -0.01  -0.06  -0.01    -0.00  -0.00   0.00
    10   6    -0.07  -0.03  -0.03    -0.02  -0.07  -0.01     0.00   0.00   0.00
    11   1    -0.14  -0.31  -0.19     0.20   0.44   0.28     0.00   0.00   0.00
    12   1     0.05  -0.31   0.21    -0.05   0.31  -0.21     0.00  -0.00   0.00
    13   1     0.58  -0.07   0.04     0.10  -0.03   0.01     0.00  -0.00  -0.00
    14   1     0.00  -0.10   0.05    -0.09   0.34  -0.23    -0.00   0.00   0.00
    15   1     0.21   0.48   0.28     0.22   0.47   0.29    -0.00   0.00   0.00

 -------------------
 - Thermochemistry -
 -------------------
 Temperature   298.150 Kelvin.  Pressure   1.00000 Atm.
 Atom     1 has atomic number  8 and mass  15.99491
 Atom     2 has atomic number  1 and mass   1.00783
 Atom     3 has atomic number  6 and mass  12.00000
 Atom     4 has atomic number  1 and mass   1.00783
 Atom     5 has atomic number  6 and mass  12.00000
 Atom     6 has atomic number  6 and mass  12.00000
 Atom     7 has atomic number  8 and mass  15.99491
 Atom     8 has atomic number  8 and mass  15.99491
 Atom     9 has atomic number  6 and mass  12.00000
 Atom    10 has atomic number  6 and mass  12.00000
 Atom    11 has atomic number  1 and mass   1.00783
 Atom    12 has atomic number  1 and mass   1.00783
 Atom    13 has atomic number  1 and mass   1.00783
 Atom    14 has atomic number  1 and mass   1.00783
 Atom    15 has atomic number  1 and mass   1.00783
 Molecular mass:   115.03952 amu.
 Principal axes and moments of inertia in atomic units:
                           1         2         3
     Eigenvalues --   287.004012617.767892730.35497
           X            0.99993   0.00873  -0.00840
           Y           -0.00881   0.99992  -0.00928
           Z            0.00831   0.00935   0.99992
 This molecule is an asymmetric top.
 Rotational symmetry number  1.
 Rotational temperatures (Kelvin)      0.30179     0.03309     0.03172
 Rotational constants (GHZ):           6.28821     0.68942     0.66099
    5 imaginary frequencies ignored.
 Zero-point vibrational energy     283529.9 (Joules/Mol)
                                   67.76527 (Kcal/Mol)
 Warning -- explicit consideration of   8 degrees of freedom as
           vibrations may cause significant error
 Vibrational temperatures:     61.53   156.22   267.73   380.50   455.61
          (Kelvin)            605.83   699.43   803.08   920.73  1050.41
                             1154.18  1197.61  1284.57  1336.37  1500.57
                             1608.84  1665.98  1765.29  1905.14  1969.77
                             2072.43  2094.01  2146.88  2198.47  2209.90
                             2222.72  2741.66  3475.40  4471.54  4514.60
                             4586.30  4590.84  4620.96  5466.52
 
 Zero-point correction=                           0.107991 (Hartree/Particle)
 Thermal correction to Energy=                    0.115180
 Thermal correction to Enthalpy=                  0.116124
 Thermal correction to Gibbs Free Energy=         0.074297
 Sum of electronic and zero-point Energies=           -419.823948
 Sum of electronic and thermal Energies=              -419.816759
 Sum of electronic and thermal Enthalpies=            -419.815815
 Sum of electronic and thermal Free Energies=         -419.857642
 
                     E (Thermal)             CV                S
                      KCal/Mol        Cal/Mol-Kelvin    Cal/Mol-Kelvin
 Total                   72.276             24.637             88.033
 Electronic               0.000              0.000              1.377
 Translational            0.889              2.981             40.136
 Rotational               0.889              2.981             29.107
 Vibrational             70.499             18.675             17.413
 Vibration     1          0.595              1.980              5.127
 Vibration     2          0.606              1.942              3.294
 Vibration     3          0.632              1.859              2.267
 Vibration     4          0.671              1.738              1.632
 Vibration     5          0.704              1.642              1.327
 Vibration     6          0.784              1.424              0.888
 Vibration     7          0.842              1.281              0.694
 Vibration     8          0.914              1.122              0.528
                       Q            Log10(Q)             Ln(Q)
 Total Bot       0.669855D-34        -34.174019        -78.688587
 Total V=0       0.314970D+16         15.498269         35.686082
 Vib (Bot)       0.134698D-47        -47.870638       -110.226218
 Vib (Bot)    1  0.483698D+01          0.684574          1.576291
 Vib (Bot)    2  0.188691D+01          0.275752          0.634942
 Vib (Bot)    3  0.107708D+01          0.032250          0.074257
 Vib (Bot)    4  0.732812D+00         -0.135008         -0.310866
 Vib (Bot)    5  0.594803D+00         -0.225627         -0.519525
 Vib (Bot)    6  0.416658D+00         -0.380220         -0.875489
 Vib (Bot)    7  0.342226D+00         -0.465687         -1.072285
 Vib (Bot)    8  0.278949D+00         -0.554476         -1.276728
 Vib (V=0)       0.633358D+02          1.801649          4.148451
 Vib (V=0)    1  0.536275D+01          0.729388          1.679478
 Vib (V=0)    2  0.245203D+01          0.389526          0.896918
 Vib (V=0)    3  0.168748D+01          0.227239          0.523237
 Vib (V=0)    4  0.138714D+01          0.142120          0.327242
 Vib (V=0)    5  0.127704D+01          0.106204          0.244544
 Vib (V=0)    6  0.115085D+01          0.061018          0.140500
 Vib (V=0)    7  0.110590D+01          0.043717          0.100662
 Vib (V=0)    8  0.107255D+01          0.030417          0.070038
 Electronic      0.200000D+01          0.301030          0.693147
 Translational   0.484981D+08          7.685724         17.697035
 Rotational      0.512702D+06          5.709865         13.147449
 ***** Axes restored to original set *****
 -------------------------------------------------------------------
 Center     Atomic                   Forces (Hartrees/Bohr)
 Number     Number              X              Y              Z
 -------------------------------------------------------------------
      1        8           0.025174179   -0.004621422    0.009194860
      2        1           0.006025403    0.017027260   -0.002980504
      3        6           0.020110124   -0.004403157   -0.001919176
      4        1          -0.039183330   -0.009043658   -0.003275589
      5        6          -0.018701020    0.000101938   -0.002982820
      6        6           0.048094571   -0.029491374    0.002117369
      7        8          -0.020512238    0.046245952    0.004310047
      8        8          -0.002251965   -0.014705230   -0.002512741
      9        6          -0.016627347   -0.002620678   -0.003390008
     10        6          -0.000359108    0.000055565    0.000183335
     11        1          -0.000328489   -0.000618557   -0.000476704
     12        1          -0.000458363    0.001493817   -0.000654223
     13        1          -0.001458722    0.000284514    0.000407623
     14        1           0.000269660   -0.000921481    0.000784191
     15        1           0.000206646    0.001216511    0.001194339
 -------------------------------------------------------------------
 Cartesian Forces:  Max     0.048094571 RMS     0.014747605

 GradGradGradGradGradGradGradGradGradGradGradGradGradGradGradGradGradGrad
 Berny optimization.
 Search for a local minimum.
 Step number   1 out of a maximum of    2
 All quantities printed in internal units (Hartrees-Bohrs-Radians)
 Second derivative matrix not updated -- analytic derivatives used.
 ITU=  0
     Eigenvalues ---   -0.04204  -0.01166  -0.00971  -0.00612  -0.00254
     Eigenvalues ---    0.00056   0.00134   0.00350   0.01280   0.01926
     Eigenvalues ---    0.03345   0.03439   0.03804   0.06085   0.06822
     Eigenvalues ---    0.07612   0.08627   0.09949   0.10594   0.10736
     Eigenvalues ---    0.11932   0.14781   0.15560   0.18118   0.21469
     Eigenvalues ---    0.27413   0.31165   0.33146   0.49659   0.52360
     Eigenvalues ---    0.67908   0.77874   0.80395   0.88482   0.91971
     Eigenvalues ---    0.94866   0.94964   1.84912   2.59650
 Eigenvalue     1 is  -4.20D-02 should be greater than     0.000000 Eigenvector:
                          X4        X1        Z4        Z1        Y3
   1                    0.81020  -0.46237   0.20044  -0.17372   0.11964
                          Y1        Z3        Y4        Z2        Y2
   1                   -0.10492   0.08388   0.06370   0.06211  -0.05420
 Eigenvalue     2 is  -1.17D-02 should be greater than     0.000000 Eigenvector:
                          Z2        Z1        X1        Y1        Z3
   1                    0.64001  -0.46774   0.26390  -0.23543   0.22981
                          Y2        Z5        Z7        Y4        X4
   1                    0.20498   0.16351  -0.15578   0.11010  -0.10713
 Eigenvalue     3 is  -9.71D-03 should be greater than     0.000000 Eigenvector:
                          Z4        Z2        Z3        Z1        Z5
   1                    0.57207  -0.53021   0.39029  -0.30436   0.17030
                          X1        Y4        X2        Y1        Y3
   1                    0.16555  -0.09846  -0.09313   0.08851  -0.08751
 Eigenvalue     4 is  -6.12D-03 should be greater than     0.000000 Eigenvector:
                          X2        Y2        Y3        Y1        Y4
   1                    0.60454  -0.40519   0.31701  -0.31110   0.25206
                          Y5        X7        Z2        Y11       Y6
   1                    0.21944  -0.18901  -0.16181  -0.10205   0.10025
 Eigenvalue     5 is  -2.54D-03 should be greater than     0.000000 Eigenvector:
                          Z7        Y15       Y14       Z15       Z8
   1                    0.47566   0.33050   0.32972  -0.27256  -0.26890
                          Z12       Y12       Y11       Y10       X14
   1                   -0.24442  -0.21470  -0.20750   0.18698   0.18261
 Quadratic step=2.126D+00 exceeds max=3.000D-01 adjusted using Lamda=-1.271D-01.
 Angle between NR and scaled steps=  52.91 degrees.
 Angle between quadratic step and forces=  49.00 degrees.
 Linear search not attempted -- first point.
 B after Tr=     0.011880    0.000834    0.001084
         Rot=    1.000000    0.000264    0.000158   -0.000257 Ang=   0.05 deg.
 Variable       Old X    -DE/DX   Delta X   Delta X   Delta X     New X
                                 (Linear)    (Quad)   (Total)
    X1        8.50642   0.02517   0.00000   0.14754   0.15946   8.66588
    Y1       -0.50365  -0.00462   0.00000   0.01699   0.02262  -0.48104
    Z1        0.63010   0.00919   0.00000   0.02427   0.02835   0.65844
    X2        8.59509   0.00603   0.00000   0.02485   0.03610   8.63119
    Y2        1.21027   0.01703   0.00000   0.04251   0.04776   1.25803
    Z2       -0.02808  -0.00298   0.00000   0.00434   0.00749  -0.02059
    X3        4.16532   0.02011   0.00000   0.00945   0.02170   4.18703
    Y3       -0.61474  -0.00440   0.00000  -0.01813  -0.01523  -0.62997
    Z3       -0.12351  -0.00192   0.00000  -0.01382  -0.01108  -0.13460
    X4        6.34042  -0.03918   0.00000  -0.23317  -0.22061   6.11981
    Y4       -1.20031  -0.00904   0.00000  -0.05207  -0.04815  -1.24846
    Z4       -0.08099  -0.00328   0.00000  -0.02045  -0.01677  -0.09777
    X5        1.97526  -0.01870   0.00000   0.00051   0.01244   1.98771
    Y5        0.02064   0.00010   0.00000  -0.01478  -0.01303   0.00761
    Z5       -0.17839  -0.00298   0.00000  -0.01209  -0.01038  -0.18878
    X6       -0.68768   0.04809   0.00000   0.03651   0.04812  -0.63956
    Y6        0.73720  -0.02949   0.00000  -0.00258  -0.00225   0.73495
    Z6       -0.33398   0.00212   0.00000   0.00707   0.00756  -0.32642
    X7       -1.42119  -0.02051   0.00000  -0.02993  -0.01950  -1.44069
    Y7        2.86957   0.04625   0.00000   0.02775   0.02779   2.89736
    Z7       -0.09596   0.00431   0.00000   0.00380   0.00289  -0.09307
    X8       -2.14371  -0.00225   0.00000  -0.00942   0.00337  -2.14034
    Y8       -1.26661  -0.01471   0.00000  -0.01483  -0.01552  -1.28213
    Z8       -0.77931  -0.00251   0.00000  -0.00314  -0.00206  -0.78137
    X9       -4.82484  -0.01663   0.00000  -0.04098  -0.02839  -4.85323
    Y9       -0.79303  -0.00262   0.00000  -0.00011  -0.00228  -0.79531
    Z9       -0.94045  -0.00339   0.00000  -0.00635  -0.00639  -0.94684
   X10       -5.98695  -0.00036   0.00000  -0.01849  -0.00685  -5.99380
   Y10       -0.56191   0.00006   0.00000   0.00206   0.00070  -0.56122
   Z10        1.66778   0.00018   0.00000   0.00279   0.00227   1.67004
   X11       -5.55625  -0.00033   0.00000  -0.01827  -0.00452  -5.56077
   Y11       -2.42332  -0.00062   0.00000  -0.00607  -0.00914  -2.43246
   Z11       -1.95921  -0.00048   0.00000  -0.00707  -0.00647  -1.96567
   X12       -5.12771  -0.00046   0.00000  -0.01398  -0.00192  -5.12963
   Y12        0.91167   0.00149   0.00000   0.00736   0.00447   0.91614
   Z12       -2.05826  -0.00065   0.00000  -0.00336  -0.00439  -2.06265
   X13       -8.03150  -0.00146   0.00000  -0.01859  -0.00701  -8.03851
   Y13       -0.34717   0.00028   0.00000   0.00388   0.00137  -0.34580
   Z13        1.49514   0.00041   0.00000   0.00906   0.00778   1.50292
   X14       -5.59909   0.00027   0.00000  -0.00813   0.00403  -5.59507
   Y14       -2.25381  -0.00092   0.00000  -0.00048  -0.00105  -2.25486
   Z14        2.78007   0.00078   0.00000   0.00087   0.00137   2.78144
   X15       -5.24159   0.00021   0.00000  -0.00689   0.00359  -5.23800
   Y15        1.08580   0.00122   0.00000   0.00240   0.00194   1.08774
   Z15        2.65423   0.00119   0.00000   0.00099  -0.00016   2.65407
         Item               Value     Threshold  Converged?
 Maximum Force            0.048095     0.000450     NO 
 RMS     Force            0.014748     0.000300     NO 
 Maximum Displacement     0.220612     0.001800     NO 
 RMS     Displacement     0.044209     0.001200     NO 
 Predicted change in Energy=-1.885786D-02
 GradGradGradGradGradGradGradGradGradGradGradGradGradGradGradGradGradGrad


 ----------------------------------------------------------------------

 Electric dipole moment (input orientation):
 (Debye = 10**-18 statcoulomb cm , SI units = C m)
                  (au)            (Debye)         (10**-30 SI)
   Tot        0.411228D+00      0.104524D+01      0.348653D+01
   x         -0.178011D+00     -0.452460D+00     -0.150924D+01
   y         -0.652696D-02     -0.165899D-01     -0.553379D-01
   z         -0.370645D+00     -0.942085D+00     -0.314246D+01

 Dipole polarizability, Alpha (input orientation).
 (esu units = cm**3 , SI units = C**2 m**2 J**-1)
 Alpha(0;0):
               (au)            (10**-24 esu)      (10**-40 SI)
   iso        0.749983D+02      0.111136D+02      0.123656D+02
   aniso      0.705907D+02      0.104605D+02      0.116388D+02
   xx         0.120927D+03      0.179195D+02      0.199381D+02
   yx        -0.572053D+01     -0.847695D+00     -0.943187D+00
   yy         0.582799D+02      0.863618D+01      0.960905D+01
   zx         0.265575D+01      0.393541D+00      0.437873D+00
   zy         0.406948D+00      0.603034D-01      0.670966D-01
   zz         0.457884D+02      0.678514D+01      0.754949D+01

 ----------------------------------------------------------------------

 Dipole orientation:
     8          7.39713967          0.54432650         -4.24215912
     1          7.75578806         -1.17949353         -3.71452924
     6          3.81050018          0.62774925         -1.68199592
     1          5.75494403          1.22177779         -2.65257665
     6          1.85774052         -0.01633045         -0.69458861
     6         -0.47799529         -0.74489121          0.58700293
     8         -1.24995322         -2.87584831          0.65614090
     8         -1.59051557          1.24632618          1.65047449
     6         -3.93936419          0.76056429          2.94879094
     6         -6.11682020          0.56667570          1.09734766
     1         -4.15180446          2.37182504          4.20949791
     1         -3.73467487         -0.96274529          4.06033541
     1         -7.88591828          0.34182927          2.13458152
     1         -6.24256057          2.27740174         -0.04621549
     1         -5.87788800         -1.06247029         -0.14055355

 Electric dipole moment (dipole orientation):
 (Debye = 10**-18 statcoulomb cm , SI units = C m)
                  (au)            (Debye)         (10**-30 SI)
   Tot        0.411228D+00      0.104524D+01      0.348653D+01
   x          0.000000D+00      0.000000D+00      0.000000D+00
   y          0.000000D+00      0.000000D+00      0.000000D+00
   z          0.411228D+00      0.104524D+01      0.348653D+01

 Dipole polarizability, Alpha (dipole orientation).
 (esu units = cm**3 , SI units = C**2 m**2 J**-1)
 Alpha(0;0):
               (au)            (10**-24 esu)      (10**-40 SI)
   iso        0.749983D+02      0.111136D+02      0.123656D+02
   aniso      0.705907D+02      0.104605D+02      0.116388D+02
   xx         0.104812D+03      0.155316D+02      0.172812D+02
   yx         0.565598D+01      0.838130D+00      0.932546D+00
   yy         0.583063D+02      0.864010D+01      0.961340D+01
   zx        -0.309025D+02     -0.457928D+01     -0.509514D+01
   zy        -0.205519D+01     -0.304548D+00     -0.338855D+00
   zz         0.618765D+02      0.916916D+01      0.102021D+02

 ----------------------------------------------------------------------
 1\1\GINC-AJ\Freq\UM062X\6-31+G\C5H7O3(2)\AAYUSH\20-Jun-2025\0\\# freq 
 6-31+g m062x\\Title Card Required\\0,2\O,4.501404,-0.266522,0.333432\H
 ,4.548328,0.640446,-0.014857\C,2.204195,-0.325306,-0.06536\H,3.355208,
 -0.635177,-0.04286\C,1.045265,0.010922,-0.094401\C,-0.363904,0.390111,
 -0.176736\O,-0.752059,1.518511,-0.050778\O,-1.134404,-0.670261,-0.4123
 95\C,-2.553195,-0.419654,-0.497664\C,-3.168157,-0.297352,0.882549\H,-2
 .940242,-1.282366,-1.036767\H,-2.713469,0.482434,-1.089182\H,-4.250088
 ,-0.183713,0.791193\H,-2.962912,-1.192664,1.471148\H,-2.773731,0.57458
 1,1.404556\\Version=ES64L-G16RevA.03\State=2-A\HF=-419.931939\S2=0.757
 415\S2-1=0.\S2A=0.75004\RMSD=4.895e-09\RMSF=1.475e-02\ZeroPoint=0.1079
 908\Thermal=0.1151798\Dipole=-0.1780113,-0.006527,-0.3706448\DipoleDer
 iv=0.0437521,-0.0011619,0.0658715,0.0295184,-0.1875138,-0.0984226,0.24
 448,-0.1136617,-0.3766434,0.5323841,0.0125188,-0.0038103,0.1575406,0.1
 719142,0.1139644,-0.0558409,0.1118298,0.3758211,-0.1721248,0.0286598,0
 .0520152,-0.082057,-0.2372965,-0.0057487,0.0591585,0.0194673,-0.253426
 7,-0.3072346,-0.0028004,-0.110024,-0.1087789,0.2823318,-0.0053243,-0.2
 156639,-0.0027661,0.2615826,-0.8444273,0.0764109,-0.0311625,0.110552,-
 0.1286055,-0.0070079,-0.1022991,-0.0204471,-0.042038,2.5275097,0.00981
 47,0.1095343,0.432806,1.732031,0.1439176,0.2550077,0.1894161,0.4444088
 ,-0.9416681,0.2351911,0.0011428,0.078522,-1.0956704,-0.058548,-0.02880
 58,-0.0666029,-0.3711905,-1.7104252,-0.3902187,-0.0358777,-0.6134597,-
 0.8593529,-0.0837399,-0.167098,-0.1270603,-0.4180863,0.9580456,0.12615
 46,-0.0243931,-0.0014302,0.2584847,-0.0108417,0.0092782,0.0420874,0.35
 42566,-0.1118996,-0.0342898,0.0206864,0.0055948,0.0315442,-0.0170443,0
 .0523422,-0.0517894,-0.1050985,-0.0181536,-0.0266544,-0.0021709,-0.069
 9348,-0.0198985,-0.0998472,-0.0251744,-0.0719526,0.0195331,-0.0156611,
 -0.0387516,0.0290471,0.0644225,-0.0028287,0.101946,0.0052621,0.0516304
 ,-0.0001639,-0.146513,0.014116,-0.0005506,0.0233929,0.1111611,0.002426
 7,-0.0200089,0.0164865,0.0767988,0.1025638,0.0589562,-0.0246827,0.0209
 453,-0.0455462,0.1002954,0.0144449,0.057175,0.00519,0.103852,-0.067945
 4,-0.0456256,-0.0476339,-0.0107545,-0.0760254,-0.0250825,-0.0338124,0.
 0290562\Polar=120.9266997,-5.7205262,58.279856,2.6557468,0.4069478,45.
 7883909\Quadrupole=8.7610252,-6.2793349,-2.4816904,6.8568937,-2.359290
 9,-0.3289901\PG=C01 [X(C5H7O3)]\NImag=5\\0.05832686,0.03202638,0.45084
 239,0.00749610,-0.17088444,0.05841811,-0.01514389,-0.01489245,0.000632
 08,0.01662157,-0.03648792,-0.44688536,0.16553195,0.03319966,0.45245962
 ,0.00838903,0.17572458,-0.06237098,-0.00440876,-0.17071593,0.05932095,
 -0.10076234,-0.02377662,-0.03022433,-0.00252116,-0.00156968,0.00037281
 ,1.26266366,0.02004084,0.01268447,0.00563617,0.00082811,0.00302029,0.0
 0064268,-0.32223968,0.14937322,-0.01157285,0.00453610,0.00206965,0.003
 17530,-0.00296994,-0.00025993,0.03927118,-0.01194509,0.07265993,0.0678
 4728,0.00490196,0.02346125,-0.00225256,0.00437050,-0.00459022,-0.09726
 139,0.01225244,-0.00403927,0.01278514,-0.01960307,-0.01475645,-0.00129
 134,-0.01699724,-0.00802794,-0.00531676,0.05651503,-0.05567820,0.00087
 646,-0.01934910,0.06702268,-0.00562646,-0.00788324,0.00186790,0.001132
 70,0.00707105,0.00342857,0.02035006,-0.00455836,-0.03628876,-0.0148769
 6,0.00579855,0.01842027,-0.00951734,0.00239630,-0.00086895,0.00411817,
 0.00109658,0.00032344,-1.06600843,0.28848301,-0.02487110,0.01732069,-0
 .00300642,-0.00185514,1.39227123,0.00540530,-0.00220767,0.00131142,-0.
 00275835,-0.00056365,-0.00032248,0.28512045,-0.12032749,0.00989917,-0.
 00489458,0.00912246,-0.00096819,-0.34680719,0.22414252,0.00186805,-0.0
 0150727,0.00006516,-0.00041806,0.00132045,-0.00016830,-0.03148260,0.01
 203809,-0.05461351,-0.00112520,-0.00053376,0.01140056,0.04785279,-0.00
 992585,0.10222822,-0.00221379,-0.00075297,-0.00178276,-0.00288173,-0.0
 0204721,0.00028342,0.01135416,0.00067050,-0.00259587,0.00425408,0.0033
 0222,0.00221010,-0.25591368,0.04590104,-0.00589732,0.68087733,-0.00127
 602,0.00029197,-0.00034825,0.00067896,0.00046653,0.00017594,0.00601542
 ,0.00939305,-0.00081082,0.00179231,0.00219412,0.00015193,0.03047505,-0
 .08035605,0.00656026,-0.14655758,1.02293964,-0.00066162,-0.00015697,-0
 .00019862,-0.00039338,-0.00027841,0.00026567,0.00264108,-0.00277679,0.
 01983460,0.00156383,0.00041546,0.00201026,-0.01247859,0.01007322,-0.10
 417399,0.02529525,0.10429584,0.22171633,0.00118823,-0.00003653,0.00071
 869,0.00087168,0.00079110,-0.00014404,-0.00530851,-0.00112859,0.000254
 32,-0.00237221,-0.00133049,-0.00089942,-0.02582645,0.05600177,0.001940
 43,-0.17600741,0.24250206,0.02428939,0.17956669,-0.00045311,-0.0001787
 9,-0.00031058,-0.00059475,-0.00068677,-0.00006183,-0.00170922,0.001442
 80,0.00030721,0.00144331,0.00086552,0.00075252,0.04045415,-0.02991595,
 -0.00486791,0.23112860,-0.72584273,-0.07301580,-0.26177803,0.85827359,
 0.00000300,0.00010809,0.00001789,0.00005710,-0.00004708,-0.00018066,-0
 .00092670,0.00053098,-0.00198813,-0.00023955,0.00006872,-0.00040059,0.
 00104339,-0.00312572,0.02657918,0.02223034,-0.07079468,-0.07078532,-0.
 02127594,0.09708941,0.02521414,0.00044689,0.00010670,0.00072387,0.0014
 9567,0.00084050,-0.00025624,-0.00317303,0.00200754,0.00058784,-0.00073
 099,0.00021991,-0.00060530,-0.05891236,-0.03633768,-0.01307339,-0.2014
 0297,-0.13049358,-0.03151866,0.02627120,-0.01784819,-0.00460806,0.5345
 2460,0.00037494,0.00019988,0.00035302,0.00050283,0.00020223,-0.0001210
 7,0.00196167,0.00000999,0.00011801,-0.00057381,-0.00091464,-0.00041184
 ,-0.01056768,0.00269510,-0.00176518,-0.08896143,-0.23341063,-0.0332862
 6,-0.02961479,-0.10328065,-0.02358099,0.11403657,0.41685674,0.00008645
 ,0.00007233,0.00016063,0.00023140,0.00008415,-0.00009364,0.00006962,0.
 00032354,-0.00080586,-0.00018916,-0.00013053,-0.00024827,-0.00824601,-
 0.00493903,0.01215653,-0.02699162,-0.03819569,-0.06857363,-0.00535964,
 -0.02189615,0.02634937,0.05902253,0.06078759,0.08768260,-0.00024827,-0
 .00002213,-0.00026133,-0.00055414,-0.00034096,0.00006028,0.00170319,-0
 .00118480,-0.00035599,0.00051480,0.00035198,0.00030016,0.00473017,0.00
 024247,0.00144290,-0.05711620,-0.02595174,-0.01170881,-0.00051173,0.01
 766922,0.00263211,-0.19913854,0.01139983,-0.01610574,0.47580367,-0.000
 02113,0.00000292,0.00002422,0.00002838,0.00001062,-0.00002082,-0.00036
 403,0.00024395,0.00010616,0.00006177,0.00017138,0.00004506,-0.00309998
 ,-0.00315509,-0.00185799,-0.04230411,0.00837845,-0.00453659,-0.0007048
 0,-0.00253061,0.00021322,0.04588213,-0.09064814,0.00330951,0.04733681,
 0.65550227,0.00002702,-0.00001712,-0.00003838,-0.00003625,-0.00001026,
 0.00005858,-0.00005018,0.00015144,-0.00086439,0.00002053,0.00013734,-0
 .00015927,-0.00115168,-0.00216750,0.00741932,-0.01390833,-0.00626459,-
 0.00205285,-0.00218508,0.00269510,-0.00493264,-0.00965139,0.00135720,-
 0.06315661,0.03817418,0.00135366,0.55507508,0.00003113,0.00002193,0.00
 005715,0.00014240,0.00008383,-0.00002107,-0.00027671,0.00002278,0.0000
 8193,-0.00007936,-0.00007244,0.00001299,-0.00074006,-0.00017050,-0.001
 81446,0.00215102,0.00748025,0.00360096,0.00041526,-0.00298034,0.000707
 23,-0.04036816,0.00286230,0.03729454,-0.08928760,0.00011601,0.03230805
 ,0.58186113,-0.00001410,-0.00000204,-0.00002312,-0.00001812,-0.0000054
 4,0.00001586,0.00009784,-0.00014016,-0.00017822,0.00003347,0.00002250,
 0.00002030,0.00022248,0.00007891,0.00073944,-0.00150732,0.00049488,0.0
 0065639,0.00084912,0.00066653,-0.00097078,0.00677025,0.00260717,-0.004
 66859,-0.00035594,-0.08992163,-0.00834567,0.00408115,0.60230253,0.0000
 0492,0.00000902,0.00000810,0.00002966,0.00001727,-0.00000587,-0.000175
 01,-0.00002861,0.00015428,0.00000426,-0.00002207,-0.00001155,0.0002395
 1,0.00007387,-0.00071300,-0.00017689,0.00451946,0.00189730,0.00171886,
 -0.00127506,-0.00128739,-0.00044337,-0.00300006,0.00592705,0.04509232,
 -0.00897925,-0.20375217,0.04019358,-0.00579667,0.52212938,0.00003219,0
 .00001811,0.00004729,0.00008426,0.00004589,-0.00001589,-0.00040325,0.0
 0026601,0.00005980,-0.00004487,-0.00002578,-0.00007237,-0.00123645,-0.
 00125255,0.00004694,-0.00444516,0.00572698,-0.00167998,0.00161131,-0.0
 0099745,0.00020388,-0.03396296,-0.03189145,-0.01771565,-0.07485655,-0.
 07008232,-0.04440178,0.00698123,0.01222579,0.00832995,0.10240238,0.000
 01057,-0.00000768,0.00001901,0.00002533,0.00001279,-0.00001180,-0.0000
 2965,-0.00005165,0.00010074,-0.00003548,0.00000082,-0.00001777,0.00004
 521,0.00043223,-0.00042310,0.00309256,-0.00152868,0.00018599,-0.001971
 07,0.00092608,-0.00030714,0.00725905,0.00697756,0.00504397,-0.08317102
 ,-0.23671817,-0.10981881,0.00008826,0.00035562,0.00111420,0.08357368,0
 .24717665,-0.00000418,0.00000343,-0.00000025,0.00000936,0.00000313,-0.
 00000097,-0.00000480,0.00004768,0.00001211,-0.00001283,-0.00000231,-0.
 00000051,-0.00027334,-0.00014398,0.00003954,0.00087279,0.00256390,0.00
 042995,0.00099769,-0.00026791,0.00042910,-0.00240807,-0.00263546,0.000
 43146,-0.04965401,-0.10748098,-0.11931212,-0.00926541,-0.02673738,-0.0
 1730909,0.05036788,0.11896998,0.12768071,0.00001712,0.00001645,0.00002
 799,0.00005342,0.00003376,-0.00000444,-0.00003451,-0.00003198,0.000031
 33,0.00000122,-0.00002405,-0.00008629,-0.00028177,-0.00038026,0.000640
 68,0.00191836,0.00891556,0.00051054,0.00084036,-0.00353315,-0.00050713
 ,-0.02810468,0.03137061,-0.02264627,-0.05324544,0.02094474,-0.01617430
 ,0.00414775,-0.01253137,0.00914749,0.00380769,-0.00955376,0.00708654,0
 .07131005,-0.00001515,0.00000990,-0.00003442,-0.00002587,-0.00001718,0
 .00001600,0.00011031,0.00000539,-0.00014731,0.00003169,0.00000139,0.00
 001511,0.00034414,-0.00015949,0.00079078,-0.00282371,-0.00098554,-0.00
 086059,-0.00187044,0.00006416,-0.00114311,0.00708016,-0.00246032,0.001
 04592,0.03203078,-0.24313840,0.12459534,-0.00104827,0.00454128,-0.0042
 6180,0.00304137,-0.01949037,0.01490719,-0.03653882,0.26023921,-0.00002
 155,0.00000200,-0.00000994,-0.00001757,-0.00001214,0.00000550,0.000158
 32,-0.00004251,0.00006108,0.00005292,0.00001678,0.00000171,0.00011835,
 -0.00030375,-0.00021478,-0.00078518,0.00358270,0.00140264,0.00191915,-
 0.00138026,-0.00021132,-0.00278055,0.00075491,0.00038773,-0.02121903,0
 .12025302,-0.13153531,-0.00241373,0.02676787,-0.01847231,0.00284533,-0
 .01465337,0.01018861,0.02017376,-0.13401681,0.14099635,0.00001899,0.00
 000558,0.00003036,0.00006545,0.00003701,-0.00000914,-0.00009439,-0.000
 00474,0.00005332,-0.00004946,-0.00002480,-0.00003739,-0.00028129,0.000
 05137,-0.00029995,0.00172811,0.00162636,0.00015709,-0.00011245,-0.0006
 4986,0.00024892,-0.00106743,-0.00090290,0.00337561,-0.01363828,0.00126
 278,-0.00524629,-0.31851527,0.02831475,-0.02278688,0.00036534,0.000387
 23,0.00012172,0.00018698,-0.00044884,0.00025835,0.34841988,0.00000027,
 -0.00000032,0.00000114,-0.00000124,0.00000135,0.00000009,-0.00002168,-
 0.00000285,0.00006800,-0.00000224,0.00000123,-0.00000559,0.00004186,0.
 00007798,-0.00026708,0.00010160,-0.00117431,-0.00038825,-0.00045597,0.
 00026263,0.00062937,0.00112955,0.00116134,-0.00076027,0.00244892,-0.00
 127280,0.00087989,0.02792956,-0.05046115,0.00220468,-0.00009090,-0.000
 18677,0.00004812,-0.00002434,-0.00004555,0.00008123,-0.03169404,0.0504
 8638,-0.00001095,-0.00000205,-0.00000486,-0.00002313,-0.00001604,0.000
 00183,0.00010813,-0.00000625,-0.00004129,0.00001145,0.00000550,-0.0000
 0822,0.00021178,0.00012917,0.00050674,-0.00044533,-0.00298329,-0.00141
 072,-0.00056754,0.00114091,0.00029742,0.00684994,0.00044090,-0.0061103
 2,0.03130214,-0.00321346,0.00475527,-0.02564114,0.00283959,-0.05159500
 ,-0.00076624,-0.00058528,0.00117743,-0.00068385,0.00086364,0.00093051,
 0.02462114,-0.00231676,0.05405262,-0.00000652,-0.00000418,-0.00002255,
 -0.00003923,-0.00002033,0.00000919,0.00002007,0.00002432,-0.00003416,0
 .00002053,0.00000787,0.00002849,0.00009450,0.00001318,0.00005827,-0.00
 072479,-0.00168907,-0.00010692,-0.00037374,0.00065504,0.00021961,0.002
 50945,0.00004021,-0.00120527,0.00100857,-0.01243824,0.01150298,-0.0593
 4167,0.04378866,-0.03049767,0.00019056,0.00012263,-0.00099081,-0.00070
 265,0.00028628,0.00277728,-0.00549130,0.02873111,-0.01863168,0.0602991
 7,0.00001378,-0.00000230,-0.00000637,0.00000811,0.00000782,0.00000867,
 -0.00008398,0.00001264,0.00000482,-0.00002130,-0.00000667,0.00000722,-
 0.00010908,0.00011425,-0.00016637,0.00036959,-0.00075133,0.00034907,-0
 .00061089,0.00027997,0.00035824,-0.00140021,0.00014360,-0.00034949,0.0
 0073170,0.00379372,-0.00392624,0.04318821,-0.23948540,0.12152439,-0.00
 047695,0.00076125,0.00033598,0.00083408,0.00096200,-0.00117898,-0.0008
 4563,-0.00252501,0.00076324,-0.04844995,0.25719452,-0.00000173,-0.0000
 0532,-0.00000108,-0.00000524,-0.00000029,0.00000024,0.00002116,-0.0000
 6355,0.00004124,0.00000809,0.00001665,-0.00000241,0.00005318,0.0001167
 8,-0.00017924,0.00010758,0.00046471,0.00013741,-0.00003966,-0.00036647
 ,0.00013450,-0.00197111,-0.00105033,0.00316711,-0.00605522,0.02964369,
 -0.02204874,-0.02780763,0.11871247,-0.12629783,-0.00051274,-0.00015653
 ,0.00114124,0.00291739,-0.00180560,-0.00473953,0.00001592,0.00163646,-
 0.00135062,0.02946519,-0.13314907,0.14078914,-0.00001654,-0.00000851,-
 0.00003484,-0.00005992,-0.00003271,0.00001161,0.00010265,-0.00000576,-
 0.00004579,0.00004712,0.00003640,0.00002483,0.00018306,-0.00013446,0.0
 0026094,-0.00157733,0.00075505,0.00048983,-0.00025222,-0.00080624,0.00
 021179,0.00161332,-0.00003690,-0.00162080,0.00483633,0.01338199,0.0107
 7251,-0.08712109,-0.08195665,-0.05068074,-0.00052573,0.00015646,0.0031
 5748,0.00008609,-0.00015362,-0.00106585,-0.01153487,-0.02809246,-0.016
 33473,0.00253705,0.00685251,0.00380480,0.09168207,-0.00000157,0.000009
 10,0.00002157,0.00001666,0.00000509,-0.00001316,-0.00002617,0.00001455
 ,0.00003472,-0.00001092,-0.00001820,-0.00001676,0.00003158,0.00002193,
 -0.00013452,0.00038822,-0.00010936,-0.00067632,-0.00064245,-0.00034577
 ,0.00097147,0.00074729,-0.00013921,0.00027273,-0.00118512,-0.00071848,
 -0.00061978,-0.08160273,-0.23105360,-0.10609938,-0.00008044,0.00134033
 ,0.00038860,0.00050253,0.00047352,0.00012931,0.00288573,0.00367785,0.0
 0294017,-0.01106754,-0.02049906,-0.01399361,0.09004491,0.24734131,0.00
 002475,0.00000085,0.00001665,0.00003478,0.00002208,-0.00000100,-0.0001
 2874,0.00005058,0.00002897,-0.00004915,-0.00003870,-0.00000968,-0.0000
 9762,0.00029287,-0.00033244,0.00158381,-0.00291743,-0.00049904,-0.0013
 6722,0.00145681,0.00076445,0.00013198,0.00203955,0.00272585,-0.0136439
 8,-0.02885945,-0.01945577,-0.04729299,-0.10303151,-0.11067190,0.003263
 59,0.00053991,-0.00490720,-0.00043344,0.00003565,0.00120906,-0.0005027
 9,-0.00181106,-0.00120080,0.00742805,0.01542490,0.00920857,0.05104897,
 0.11679496,0.12312427\\-0.02517418,0.00462142,-0.00919486,-0.00602540,
 -0.01702726,0.00298050,-0.02011012,0.00440316,0.00191918,0.03918333,0.
 00904366,0.00327559,0.01870102,-0.00010194,0.00298282,-0.04809457,0.02
 949137,-0.00211737,0.02051224,-0.04624595,-0.00431005,0.00225196,0.014
 70523,0.00251274,0.01662735,0.00262068,0.00339001,0.00035911,-0.000055
 56,-0.00018333,0.00032849,0.00061856,0.00047670,0.00045836,-0.00149382
 ,0.00065422,0.00145872,-0.00028451,-0.00040762,-0.00026966,0.00092148,
 -0.00078419,-0.00020665,-0.00121651,-0.00119434\\\@


 IF YOU GIVE EVERYONE A PIECE OF YOUR MIND,
 PRETTY SOON IT WILL BE ALL GONE.
 Job cpu time:       0 days  0 hours 17 minutes 36.8 seconds.
 Elapsed time:       0 days  0 hours  0 minutes 44.1 seconds.
 File lengths (MBytes):  RWF=     59 Int=      0 D2E=      0 Chk=      8 Scr=      1
 Normal termination of Gaussian 16 at Fri Jun 20 12:30:46 2025.
