 Entering Link 1 = C:\G09W\l1.exe PID=     13504.
  
 Copyright (c) 1988,1990,1992,1993,1995,1998,2003,2009,2013,
            Gaussian, Inc.  All Rights Reserved.
  
 This is part of the Gaussian(R) 09 program.  It is based on
 the Gaussian(R) 03 system (copyright 2003, Gaussian, Inc.),
 the Gaussian(R) 98 system (copyright 1998, Gaussian, Inc.),
 the Gaussian(R) 94 system (copyright 1995, Gaussian, Inc.),
 the Gaussian 92(TM) system (copyright 1992, Gaussian, Inc.),
 the Gaussian 90(TM) system (copyright 1990, Gaussian, Inc.),
 the Gaussian 88(TM) system (copyright 1988, Gaussian, Inc.),
 the Gaussian 86(TM) system (copyright 1986, Carnegie Mellon
 University), and the Gaussian 82(TM) system (copyright 1983,
 Carnegie Mellon University). Gaussian is a federally registered
 trademark of Gaussian, Inc.
  
 This software contains proprietary and confidential information,
 including trade secrets, belonging to Gaussian, Inc.
  
 This software is provided under written license and may be
 used, copied, transmitted, or stored only in accord with that
 written license.
  
 The following legend is applicable only to US Government
 contracts under FAR:
  
                    RESTRICTED RIGHTS LEGEND
  
 Use, reproduction and disclosure by the US Government is
 subject to restrictions as set forth in subparagraphs (a)
 and (c) of the Commercial Computer Software - Restricted
 Rights clause in FAR 52.227-19.
  
 Gaussian, Inc.
 340 Quinnipiac St., Bldg. 40, Wallingford CT 06492
  
  
 ---------------------------------------------------------------
 Warning -- This program may not be used in any manner that
 competes with the business of Gaussian, Inc. or will provide
 assistance to any competitor of Gaussian, Inc.  The licensee
 of this program is prohibited from giving any competitor of
 Gaussian, Inc. access to this program.  By using this program,
 the user acknowledges that Gaussian, Inc. is engaged in the
 business of creating and licensing software in the field of
 computational chemistry and represents and warrants to the
 licensee that it is not a competitor of Gaussian, Inc. and that
 it will not use this program in any manner prohibited above.
 ---------------------------------------------------------------
  

 Cite this work as:
 Gaussian 09, Revision D.01,
 M. J. Frisch, G. W. Trucks, H. B. Schlegel, G. E. Scuseria, 
 M. A. Robb, J. R. Cheeseman, G. Scalmani, V. Barone, B. Mennucci, 
 G. A. Petersson, H. Nakatsuji, M. Caricato, X. Li, H. P. Hratchian, 
 A. F. Izmaylov, J. Bloino, G. Zheng, J. L. Sonnenberg, M. Hada, 
 M. Ehara, K. Toyota, R. Fukuda, J. Hasegawa, M. Ishida, T. Nakajima, 
 Y. Honda, O. Kitao, H. Nakai, T. Vreven, J. A. Montgomery, Jr., 
 J. E. Peralta, F. Ogliaro, M. Bearpark, J. J. Heyd, E. Brothers, 
 K. N. Kudin, V. N. Staroverov, T. Keith, R. Kobayashi, J. Normand, 
 K. Raghavachari, A. Rendell, J. C. Burant, S. S. Iyengar, J. Tomasi, 
 M. Cossi, N. Rega, J. M. Millam, M. Klene, J. E. Knox, J. B. Cross, 
 V. Bakken, C. Adamo, J. Jaramillo, R. Gomperts, R. E. Stratmann, 
 O. Yazyev, A. J. Austin, R. Cammi, C. Pomelli, J. W. Ochterski, 
 R. L. Martin, K. Morokuma, V. G. Zakrzewski, G. A. Voth, 
 P. Salvador, J. J. Dannenberg, S. Dapprich, A. D. Daniels, 
 O. Farkas, J. B. Foresman, J. V. Ortiz, J. Cioslowski, 
 and D. J. Fox, Gaussian, Inc., Wallingford CT, 2013.
 
 ******************************************
 Gaussian 09:  IA32W-G09RevD.01 24-Apr-2013
                26-Mar-2025 
 ******************************************
 %nprocshared=4
 Will use up to    4 processors via shared memory.
 %mem=150MW
 %chk=ethyl_propiolate.chk
 --------------------------
 # freq 6-311++g(d,p) m062x
 --------------------------
 1/10=4,30=1,38=1/1,3;
 2/12=2,17=6,18=5,40=1/2;
 3/5=4,6=6,7=1111,11=2,16=1,25=1,30=1,71=2,74=-55,140=1/1,2,3;
 4//1;
 5/5=2,38=5,98=1/2;
 8/6=4,10=90,11=11/1;
 11/6=1,8=1,9=11,15=111,16=1/1,2,10;
 10/6=1/2;
 6/7=2,8=2,9=2,10=2,18=1,28=1/1;
 7/8=1,10=1,25=1/1,2,3,16;
 1/10=4,30=1/3;
 99//99;
 -------------------
 Title Card Required
 -------------------
 Symbolic Z-matrix:
 Charge =  0 Multiplicity = 2
 C                     2.91438   1.31154   0.31915 
 H                     3.67728   2.03862   0.47363 
 C                     2.05805   0.49212   0.14457 
 C                     1.05073  -0.53054  -0.09334 
 O                     1.27958  -1.61082  -0.5555 
 O                    -0.16393  -0.10048   0.27103 
 C                    -1.24398  -1.03003   0.04899 
 C                    -2.48811  -0.38848   0.59381 
 H                    -1.31838  -1.22415  -1.02288 
 H                    -1.00565  -1.96973   0.5537 
 H                    -2.42657  -0.16641   1.65845 
 H                    -2.6272    0.64467   0.051 
 H                    -3.38645  -0.95585   0.35245 
 O                    -2.30206   1.80792  -0.58488 
 H                    -1.3631    1.83045  -0.33291 
 

 GradGradGradGradGradGradGradGradGradGradGradGradGradGradGradGradGradGrad
 Berny optimization.
 Initialization pass.
 Trust Radius=3.00D-01 FncErr=1.00D-07 GrdErr=1.00D-07
 Number of steps in this run=      2 maximum allowed number of steps=      2.
 GradGradGradGradGradGradGradGradGradGradGradGradGradGradGradGradGradGrad

                          Input orientation:                          
 ---------------------------------------------------------------------
 Center     Atomic      Atomic             Coordinates (Angstroms)
 Number     Number       Type             X           Y           Z
 ---------------------------------------------------------------------
      1          6           0        2.914376    1.311538    0.319146
      2          1           0        3.677280    2.038621    0.473634
      3          6           0        2.058049    0.492119    0.144574
      4          6           0        1.050730   -0.530536   -0.093337
      5          8           0        1.279577   -1.610816   -0.555498
      6          8           0       -0.163931   -0.100476    0.271026
      7          6           0       -1.243982   -1.030029    0.048985
      8          6           0       -2.488112   -0.388479    0.593810
      9          1           0       -1.318376   -1.224154   -1.022883
     10          1           0       -1.005648   -1.969731    0.553699
     11          1           0       -2.426569   -0.166410    1.658446
     12          1           0       -2.627203    0.644668    0.050995
     13          1           0       -3.386452   -0.955845    0.352453
     14          8           0       -2.302056    1.807916   -0.584876
     15          1           0       -1.363102    1.830453   -0.332905
 ---------------------------------------------------------------------
                    Distance matrix (angstroms):
                    1          2          3          4          5
     1  C    0.000000
     2  H    1.065147   0.000000
     3  C    1.198006   2.263152   0.000000
     4  C    2.652651   3.717632   1.455031   0.000000
     5  O    3.460885   4.486255   2.349139   1.197067   0.000000
     6  O    3.387045   4.401328   2.303118   1.339072   2.246772
     7  C    4.779944   5.815132   3.637235   2.352754   2.659147
     8  C    5.670306   6.627014   4.652402   3.607735   4.124378
     9  H    5.113410   6.151572   3.963432   2.637769   2.667830
    10  H    5.117453   6.164666   3.951497   2.592032   2.565422
    11  H    5.701206   6.597190   4.778835   3.910619   4.552293
    12  H    5.587998   6.470567   4.688669   3.863823   4.551700
    13  H    6.696459   7.673188   5.637589   4.479755   4.798457
    14  O    5.317406   6.076687   4.612368   4.117176   4.951433
    15  H    4.357896   5.108746   3.704511   3.385003   4.344610
                    6          7          8          9         10
     6  O    0.000000
     7  C    1.442179   0.000000
     8  C    2.364097   1.502092   0.000000
     9  H    2.066300   1.091842   2.163407   0.000000
    10  H    2.069422   1.092968   2.167871   1.771805   0.000000
    11  H    2.654960   2.175940   1.089290   3.088113   2.547832
    12  H    2.582898   2.172076   1.175324   2.521654   3.117248
    13  H    3.335105   2.165127   1.089574   2.498095   2.595514
    14  O    2.991004   3.094387   2.499614   3.217596   4.153028
    15  H    2.351857   2.888319   2.654827   3.131883   3.918576
                   11         12         13         14         15
    11  H    0.000000
    12  H    1.811629   0.000000
    13  H    1.802831   1.796936   0.000000
    14  O    2.990980   1.364990   3.113338   0.000000
    15  H    3.013951   1.775223   3.510999   0.972436   0.000000
 Stoichiometry    C5H7O3(2)
 Framework group  C1[X(C5H7O3)]
 Deg. of freedom    39
 Full point group                 C1      NOp   1
 Largest Abelian subgroup         C1      NOp   1
 Largest concise Abelian subgroup C1      NOp   1
                         Standard orientation:                         
 ---------------------------------------------------------------------
 Center     Atomic      Atomic             Coordinates (Angstroms)
 Number     Number       Type             X           Y           Z
 ---------------------------------------------------------------------
      1          6           0        2.983561    1.308737    0.306134
      2          1           0        3.746697    2.035478    0.461083
      3          6           0        2.126972    0.489702    0.131043
      4          6           0        1.119329   -0.532485   -0.107507
      5          8           0        1.347863   -1.612617   -0.570167
      6          8           0       -0.095231   -0.102180    0.256902
      7          6           0       -1.175576   -1.031247    0.034258
      8          6           0       -2.419557   -0.389531    0.579228
      9          1           0       -1.249892   -1.224820   -1.037716
     10          1           0       -0.937639   -1.971280    0.538543
     11          1           0       -2.358081   -0.168006    1.643981
     12          1           0       -2.558213    0.643931    0.036901
     13          1           0       -3.318061   -0.956465    0.337470
     14          8           0       -2.232574    1.807377   -0.598354
     15          1           0       -1.293647    1.829463   -0.346245
 ---------------------------------------------------------------------
 Rotational constants (GHZ):      2.9490752      1.1607604      0.8980730
 Standard basis: 6-311++G(d,p) (5D, 7F)
 There are   233 symmetry adapted cartesian basis functions of A   symmetry.
 There are   225 symmetry adapted basis functions of A   symmetry.
   225 basis functions,   351 primitive gaussians,   233 cartesian basis functions
    31 alpha electrons       30 beta electrons
       nuclear repulsion energy       348.0814866339 Hartrees.
 NAtoms=   15 NActive=   15 NUniq=   15 SFac= 1.00D+00 NAtFMM=   60 NAOKFM=F Big=F
 Integral buffers will be    262144 words long.
 Raffenetti 2 integral format.
 Two-electron integral symmetry is turned on.
 One-electron integrals computed using PRISM.
 NBasis=   225 RedAO= T EigKep=  6.75D-06  NBF=   225
 NBsUse=   224 1.00D-06 EigRej=  7.97D-07 NBFU=   224
 ExpMin= 3.60D-02 ExpMax= 8.59D+03 ExpMxC= 1.30D+03 IAcc=3 IRadAn=         5 AccDes= 0.00D+00
 Harris functional with IExCor= 1009 and IRadAn=       5 diagonalized for initial guess.
 HarFok:  IExCor= 1009 AccDes= 0.00D+00 IRadAn=         5 IDoV= 1 UseB2=F ITyADJ=14
 ICtDFT=  3500011 ScaDFX=  1.000000  1.000000  1.000000  1.000000
 FoFCou: FMM=F IPFlag=           0 FMFlag=      100000 FMFlg1=           0
         NFxFlg=           0 DoJE=T BraDBF=F KetDBF=T FulRan=T
         wScrn=  0.000000 ICntrl=     500 IOpCl=  0 I1Cent=   200000004 NGrid=           0
         NMat0=    1 NMatS0=      1 NMatT0=    0 NMatD0=    1 NMtDS0=    0 NMtDT0=    0
 Petite list used in FoFCou.
 Initial guess <Sx>= 0.0000 <Sy>= 0.0000 <Sz>= 0.5000 <S**2>= 0.7500 S= 0.5000
 Requested convergence on RMS density matrix=1.00D-08 within 128 cycles.
 Requested convergence on MAX density matrix=1.00D-06.
 Requested convergence on             energy=1.00D-06.
 No special actions if energy rises.
 SCF Done:  E(UM062X) =  -420.199733294     A.U. after   19 cycles
            NFock= 19  Conv=0.85D-08     -V/T= 2.0032
 <Sx>= 0.0000 <Sy>= 0.0000 <Sz>= 0.5000 <S**2>= 0.7581 S= 0.5041
 <L.S>= 0.000000000000E+00
 Annihilation of the first spin contaminant:
 S**2 before annihilation     0.7581,   after     0.7500
 DoSCS=F DFT=T ScalE2(SS,OS)=  1.000000  1.000000
 Range of M.O.s used for correlation:     1   224
 NBasis=   225 NAE=    31 NBE=    30 NFC=     0 NFV=     0
 NROrb=    224 NOA=    31 NOB=    30 NVA=   193 NVB=   194

 **** Warning!!: The largest alpha MO coefficient is  0.16968176D+03


 **** Warning!!: The largest beta MO coefficient is  0.17790895D+03

 Symmetrizing basis deriv contribution to polar:
 IMax=3 JMax=2 DiffMx= 0.00D+00
 G2DrvN: will do    16 centers at a time, making    1 passes.
 Calling FoFCou, ICntrl=  3107 FMM=F I1Cent=   0 AccDes= 0.00D+00.
 End of G2Drv F.D. properties file   721 does not exist.
 End of G2Drv F.D. properties file   722 does not exist.
 End of G2Drv F.D. properties file   788 does not exist.
          IDoAtm=111111111111111
          Differentiating once with respect to electric field.
                with respect to dipole field.
          Differentiating once with respect to nuclear coordinates.
          There are    48 degrees of freedom in the 1st order CPHF.  IDoFFX=6 NUNeed=     3.
     45 vectors produced by pass  0 Test12= 2.46D-14 2.08D-09 XBig12= 9.44D+01 4.09D+00.
 AX will form    45 AO Fock derivatives at one time.
     45 vectors produced by pass  1 Test12= 2.46D-14 2.08D-09 XBig12= 2.11D+01 7.07D-01.
     45 vectors produced by pass  2 Test12= 2.46D-14 2.08D-09 XBig12= 6.62D-01 1.06D-01.
     45 vectors produced by pass  3 Test12= 2.46D-14 2.08D-09 XBig12= 1.24D-02 1.61D-02.
     45 vectors produced by pass  4 Test12= 2.46D-14 2.08D-09 XBig12= 1.16D-04 1.02D-03.
     45 vectors produced by pass  5 Test12= 2.46D-14 2.08D-09 XBig12= 8.75D-07 8.88D-05.
     44 vectors produced by pass  6 Test12= 2.46D-14 2.08D-09 XBig12= 4.40D-09 7.17D-06.
     18 vectors produced by pass  7 Test12= 2.46D-14 2.08D-09 XBig12= 2.40D-11 3.98D-07.
      5 vectors produced by pass  8 Test12= 2.46D-14 2.08D-09 XBig12= 2.23D-13 6.47D-08.
      4 vectors produced by pass  9 Test12= 2.46D-14 2.08D-09 XBig12= 1.82D-14 2.37D-08.
      4 vectors produced by pass 10 Test12= 2.46D-14 2.08D-09 XBig12= 1.57D-15 1.31D-08.
      3 vectors produced by pass 11 Test12= 2.46D-14 2.08D-09 XBig12= 4.70D-16 3.10D-09.
      3 vectors produced by pass 12 Test12= 2.46D-14 2.08D-09 XBig12= 8.42D-16 4.51D-09.
      3 vectors produced by pass 13 Test12= 2.46D-14 2.08D-09 XBig12= 5.24D-16 3.32D-09.
      3 vectors produced by pass 14 Test12= 2.46D-14 2.08D-09 XBig12= 5.23D-16 4.06D-09.
      3 vectors produced by pass 15 Test12= 2.46D-14 2.08D-09 XBig12= 1.05D-15 5.33D-09.
      3 vectors produced by pass 16 Test12= 2.46D-14 2.08D-09 XBig12= 8.96D-16 5.71D-09.
      3 vectors produced by pass 17 Test12= 2.46D-14 2.08D-09 XBig12= 6.41D-16 5.45D-09.
      3 vectors produced by pass 18 Test12= 2.46D-14 2.08D-09 XBig12= 7.31D-16 7.20D-09.
      2 vectors produced by pass 19 Test12= 2.46D-14 2.08D-09 XBig12= 3.25D-16 2.81D-09.
      2 vectors produced by pass 20 Test12= 2.46D-14 2.08D-09 XBig12= 3.48D-16 2.75D-09.
      2 vectors produced by pass 21 Test12= 2.46D-14 2.08D-09 XBig12= 3.56D-16 2.35D-09.
      1 vectors produced by pass 22 Test12= 2.46D-14 2.08D-09 XBig12= 2.15D-16 2.11D-09.
 InvSVY:  IOpt=1 It=  1 EMax= 3.55D-15
 Solved reduced A of dimension   376 with    48 vectors.
 Isotropic polarizability for W=    0.000000       74.64 Bohr**3.
 End of Minotr F.D. properties file   721 does not exist.
 End of Minotr F.D. properties file   722 does not exist.
 End of Minotr F.D. properties file   788 does not exist.

 **********************************************************************

            Population analysis using the SCF density.

 **********************************************************************

 Orbital symmetries:
 Alpha Orbitals:
       Occupied  (A) (A) (A) (A) (A) (A) (A) (A) (A) (A) (A) (A)
                 (A) (A) (A) (A) (A) (A) (A) (A) (A) (A) (A) (A)
                 (A) (A) (A) (A) (A) (A) (A)
       Virtual   (A) (A) (A) (A) (A) (A) (A) (A) (A) (A) (A) (A)
                 (A) (A) (A) (A) (A) (A) (A) (A) (A) (A) (A) (A)
                 (A) (A) (A) (A) (A) (A) (A) (A) (A) (A) (A) (A)
                 (A) (A) (A) (A) (A) (A) (A) (A) (A) (A) (A) (A)
                 (A) (A) (A) (A) (A) (A) (A) (A) (A) (A) (A) (A)
                 (A) (A) (A) (A) (A) (A) (A) (A) (A) (A) (A) (A)
                 (A) (A) (A) (A) (A) (A) (A) (A) (A) (A) (A) (A)
                 (A) (A) (A) (A) (A) (A) (A) (A) (A) (A) (A) (A)
                 (A) (A) (A) (A) (A) (A) (A) (A) (A) (A) (A) (A)
                 (A) (A) (A) (A) (A) (A) (A) (A) (A) (A) (A) (A)
                 (A) (A) (A) (A) (A) (A) (A) (A) (A) (A) (A) (A)
                 (A) (A) (A) (A) (A) (A) (A) (A) (A) (A) (A) (A)
                 (A) (A) (A) (A) (A) (A) (A) (A) (A) (A) (A) (A)
                 (A) (A) (A) (A) (A) (A) (A) (A) (A) (A) (A) (A)
                 (A) (A) (A) (A) (A) (A) (A) (A) (A) (A) (A) (A)
                 (A) (A) (A) (A) (A) (A) (A) (A) (A) (A) (A) (A)
                 (A)
 Beta  Orbitals:
       Occupied  (A) (A) (A) (A) (A) (A) (A) (A) (A) (A) (A) (A)
                 (A) (A) (A) (A) (A) (A) (A) (A) (A) (A) (A) (A)
                 (A) (A) (A) (A) (A) (A)
       Virtual   (A) (A) (A) (A) (A) (A) (A) (A) (A) (A) (A) (A)
                 (A) (A) (A) (A) (A) (A) (A) (A) (A) (A) (A) (A)
                 (A) (A) (A) (A) (A) (A) (A) (A) (A) (A) (A) (A)
                 (A) (A) (A) (A) (A) (A) (A) (A) (A) (A) (A) (A)
                 (A) (A) (A) (A) (A) (A) (A) (A) (A) (A) (A) (A)
                 (A) (A) (A) (A) (A) (A) (A) (A) (A) (A) (A) (A)
                 (A) (A) (A) (A) (A) (A) (A) (A) (A) (A) (A) (A)
                 (A) (A) (A) (A) (A) (A) (A) (A) (A) (A) (A) (A)
                 (A) (A) (A) (A) (A) (A) (A) (A) (A) (A) (A) (A)
                 (A) (A) (A) (A) (A) (A) (A) (A) (A) (A) (A) (A)
                 (A) (A) (A) (A) (A) (A) (A) (A) (A) (A) (A) (A)
                 (A) (A) (A) (A) (A) (A) (A) (A) (A) (A) (A) (A)
                 (A) (A) (A) (A) (A) (A) (A) (A) (A) (A) (A) (A)
                 (A) (A) (A) (A) (A) (A) (A) (A) (A) (A) (A) (A)
                 (A) (A) (A) (A) (A) (A) (A) (A) (A) (A) (A) (A)
                 (A) (A) (A) (A) (A) (A) (A) (A) (A) (A) (A) (A)
                 (A) (A)
 The electronic state is 2-A.
 Alpha  occ. eigenvalues --  -19.69847 -19.65875 -19.64403 -10.71747 -10.62036
 Alpha  occ. eigenvalues --  -10.57972 -10.57527 -10.56443  -1.27004  -1.17705
 Alpha  occ. eigenvalues --   -1.12717  -0.91913  -0.88410  -0.78873  -0.71405
 Alpha  occ. eigenvalues --   -0.66919  -0.61807  -0.60962  -0.59164  -0.57237
 Alpha  occ. eigenvalues --   -0.53110  -0.51887  -0.50159  -0.47964  -0.45712
 Alpha  occ. eigenvalues --   -0.41533  -0.40750  -0.40489  -0.38157  -0.37259
 Alpha  occ. eigenvalues --   -0.36061
 Alpha virt. eigenvalues --   -0.02477  -0.00581   0.00279   0.01814   0.01955
 Alpha virt. eigenvalues --    0.02431   0.03292   0.04828   0.05676   0.06087
 Alpha virt. eigenvalues --    0.06377   0.07532   0.08318   0.09239   0.10503
 Alpha virt. eigenvalues --    0.11011   0.11979   0.12485   0.13049   0.13224
 Alpha virt. eigenvalues --    0.13688   0.13918   0.14361   0.15870   0.16438
 Alpha virt. eigenvalues --    0.16979   0.17653   0.18135   0.19015   0.20728
 Alpha virt. eigenvalues --    0.21505   0.22165   0.23087   0.23605   0.25045
 Alpha virt. eigenvalues --    0.26329   0.28020   0.28527   0.29419   0.30084
 Alpha virt. eigenvalues --    0.30743   0.30982   0.31594   0.32607   0.33912
 Alpha virt. eigenvalues --    0.35184   0.36679   0.37216   0.38082   0.40133
 Alpha virt. eigenvalues --    0.42197   0.43255   0.46573   0.47157   0.49345
 Alpha virt. eigenvalues --    0.53168   0.54244   0.56134   0.58153   0.59221
 Alpha virt. eigenvalues --    0.60358   0.63751   0.65301   0.66799   0.68229
 Alpha virt. eigenvalues --    0.68672   0.69752   0.69946   0.72333   0.73736
 Alpha virt. eigenvalues --    0.74363   0.75400   0.78929   0.79974   0.84719
 Alpha virt. eigenvalues --    0.89329   0.90769   0.97611   1.01472   1.06510
 Alpha virt. eigenvalues --    1.06895   1.09081   1.10231   1.11886   1.13040
 Alpha virt. eigenvalues --    1.14093   1.16800   1.17187   1.19082   1.21140
 Alpha virt. eigenvalues --    1.21895   1.22382   1.27105   1.29116   1.30791
 Alpha virt. eigenvalues --    1.32397   1.35917   1.37500   1.43046   1.44335
 Alpha virt. eigenvalues --    1.45379   1.48555   1.53920   1.55390   1.57819
 Alpha virt. eigenvalues --    1.59689   1.60675   1.61630   1.62733   1.65365
 Alpha virt. eigenvalues --    1.67340   1.68290   1.69470   1.72343   1.76145
 Alpha virt. eigenvalues --    1.77242   1.83503   1.84249   1.86834   1.90185
 Alpha virt. eigenvalues --    1.93353   1.99110   2.01021   2.05685   2.08876
 Alpha virt. eigenvalues --    2.12537   2.14649   2.19613   2.25946   2.29923
 Alpha virt. eigenvalues --    2.37432   2.41895   2.49703   2.50405   2.53502
 Alpha virt. eigenvalues --    2.54592   2.59253   2.60988   2.63442   2.64083
 Alpha virt. eigenvalues --    2.65648   2.67713   2.70743   2.73647   2.81038
 Alpha virt. eigenvalues --    2.81445   2.85283   2.89156   2.94697   2.96224
 Alpha virt. eigenvalues --    2.97306   3.02741   3.03271   3.06099   3.11349
 Alpha virt. eigenvalues --    3.12573   3.17380   3.19185   3.21569   3.26397
 Alpha virt. eigenvalues --    3.29359   3.33444   3.36082   3.42582   3.46697
 Alpha virt. eigenvalues --    3.55334   3.66773   3.73809   3.77578   3.83805
 Alpha virt. eigenvalues --    3.85142   3.96829   4.06542   4.12485   4.16107
 Alpha virt. eigenvalues --    4.29851   5.08759   5.11017   5.15383   5.29273
 Alpha virt. eigenvalues --    5.31382   5.44903   5.58836   5.71704   5.93220
 Alpha virt. eigenvalues --   23.62157  23.91686  23.93939  24.00839  25.17095
 Alpha virt. eigenvalues --   49.96214  49.98773  50.09989
  Beta  occ. eigenvalues --  -19.69843 -19.64536 -19.64402 -10.71748 -10.62053
  Beta  occ. eigenvalues --  -10.57972 -10.57526 -10.56108  -1.26989  -1.17685
  Beta  occ. eigenvalues --   -1.07343  -0.91591  -0.88034  -0.78217  -0.70798
  Beta  occ. eigenvalues --   -0.66830  -0.61790  -0.60463  -0.58777  -0.54150
  Beta  occ. eigenvalues --   -0.52290  -0.49750  -0.48684  -0.45393  -0.44060
  Beta  occ. eigenvalues --   -0.40483  -0.40200  -0.38392  -0.38098  -0.37235
  Beta virt. eigenvalues --   -0.10555  -0.02468  -0.00496   0.00341   0.01912
  Beta virt. eigenvalues --    0.02215   0.02536   0.03322   0.04989   0.05705
  Beta virt. eigenvalues --    0.06130   0.06582   0.07667   0.08360   0.09250
  Beta virt. eigenvalues --    0.10587   0.11250   0.12019   0.12526   0.13103
  Beta virt. eigenvalues --    0.13275   0.13672   0.14203   0.14583   0.16025
  Beta virt. eigenvalues --    0.16596   0.17030   0.17721   0.18197   0.19228
  Beta virt. eigenvalues --    0.20831   0.21700   0.22198   0.23161   0.23801
  Beta virt. eigenvalues --    0.25309   0.26374   0.27633   0.28944   0.29311
  Beta virt. eigenvalues --    0.30185   0.30822   0.30918   0.31850   0.32636
  Beta virt. eigenvalues --    0.33932   0.35509   0.36842   0.37356   0.39620
  Beta virt. eigenvalues --    0.40369   0.42225   0.43376   0.46713   0.47330
  Beta virt. eigenvalues --    0.49500   0.53281   0.54324   0.56233   0.58303
  Beta virt. eigenvalues --    0.59367   0.60681   0.63876   0.65349   0.67949
  Beta virt. eigenvalues --    0.68368   0.68931   0.69963   0.70428   0.72522
  Beta virt. eigenvalues --    0.73838   0.74459   0.75465   0.79188   0.80005
  Beta virt. eigenvalues --    0.84735   0.89525   0.90821   0.98270   1.01613
  Beta virt. eigenvalues --    1.06803   1.07273   1.09943   1.10426   1.12634
  Beta virt. eigenvalues --    1.13847   1.15032   1.17048   1.17448   1.19848
  Beta virt. eigenvalues --    1.21335   1.22332   1.22670   1.27356   1.29144
  Beta virt. eigenvalues --    1.30834   1.32479   1.36023   1.37608   1.43471
  Beta virt. eigenvalues --    1.44750   1.45693   1.49190   1.54326   1.56513
  Beta virt. eigenvalues --    1.57890   1.59965   1.60854   1.61816   1.62820
  Beta virt. eigenvalues --    1.65508   1.67535   1.68516   1.69439   1.73396
  Beta virt. eigenvalues --    1.76380   1.77648   1.83509   1.84269   1.86723
  Beta virt. eigenvalues --    1.90232   1.93363   1.99116   2.01405   2.05911
  Beta virt. eigenvalues --    2.09306   2.12742   2.15264   2.20036   2.26158
  Beta virt. eigenvalues --    2.30477   2.38578   2.41904   2.49388   2.50224
  Beta virt. eigenvalues --    2.53632   2.54864   2.58867   2.61077   2.63849
  Beta virt. eigenvalues --    2.64116   2.65672   2.67641   2.69482   2.73500
  Beta virt. eigenvalues --    2.81080   2.81475   2.85294   2.88287   2.96172
  Beta virt. eigenvalues --    2.96711   2.99970   3.02901   3.03289   3.06135
  Beta virt. eigenvalues --    3.11494   3.12605   3.19100   3.21886   3.22906
  Beta virt. eigenvalues --    3.26446   3.29420   3.33510   3.36142   3.42602
  Beta virt. eigenvalues --    3.49153   3.55352   3.66788   3.73895   3.78968
  Beta virt. eigenvalues --    3.84047   3.85889   3.99462   4.06606   4.12550
  Beta virt. eigenvalues --    4.16282   4.30516   5.10801   5.11222   5.15399
  Beta virt. eigenvalues --    5.31232   5.35760   5.44941   5.61511   5.71713
  Beta virt. eigenvalues --    5.93220  23.62158  23.91717  23.93948  24.01131
  Beta virt. eigenvalues --   25.17095  49.95631  49.98740  50.09988
          Condensed to atoms (all electrons):
               1          2          3          4          5          6
     1  C    6.056471   0.446423  -1.013238   1.234755  -0.105576  -0.112232
     2  H    0.446423   0.422405  -0.085455   0.030600  -0.003431  -0.005948
     3  C   -1.013238  -0.085455   9.285301  -2.746916   0.162147  -0.197204
     4  C    1.234755   0.030600  -2.746916   7.664527   0.351838  -0.030840
     5  O   -0.105576  -0.003431   0.162147   0.351838   7.991235  -0.123508
     6  O   -0.112232  -0.005948  -0.197204  -0.030840  -0.123508   8.505634
     7  C    0.049116  -0.001089  -0.411005  -0.057406  -0.065928   0.277104
     8  C    0.032744   0.001746  -0.076531   0.142985   0.024645  -0.189550
     9  H   -0.003998  -0.000144   0.011053  -0.012589  -0.012565  -0.041584
    10  H    0.000721  -0.000111  -0.012487   0.003772  -0.006991  -0.033222
    11  H   -0.001533  -0.000129   0.002047  -0.009735  -0.002280  -0.005658
    12  H    0.000846   0.000114  -0.001230   0.008568  -0.000383  -0.003038
    13  H   -0.000774   0.000001   0.005125   0.001685   0.001961   0.018346
    14  O    0.000935  -0.000012  -0.008605  -0.002932  -0.000639   0.001932
    15  H   -0.004371  -0.000433   0.025362  -0.010172   0.000529   0.007965
               7          8          9         10         11         12
     1  C    0.049116   0.032744  -0.003998   0.000721  -0.001533   0.000846
     2  H   -0.001089   0.001746  -0.000144  -0.000111  -0.000129   0.000114
     3  C   -0.411005  -0.076531   0.011053  -0.012487   0.002047  -0.001230
     4  C   -0.057406   0.142985  -0.012589   0.003772  -0.009735   0.008568
     5  O   -0.065928   0.024645  -0.012565  -0.006991  -0.002280  -0.000383
     6  O    0.277104  -0.189550  -0.041584  -0.033222  -0.005658  -0.003038
     7  C    5.754275  -0.127757   0.451263   0.398788   0.030763  -0.082629
     8  C   -0.127757   5.920718  -0.068967  -0.025040   0.318858   0.350318
     9  H    0.451263  -0.068967   0.494295  -0.042302   0.005768  -0.012502
    10  H    0.398788  -0.025040  -0.042302   0.521369  -0.008716   0.009774
    11  H    0.030763   0.318858   0.005768  -0.008716   0.548830  -0.035795
    12  H   -0.082629   0.350318  -0.012502   0.009774  -0.035795   0.504234
    13  H   -0.035717   0.389597  -0.002542  -0.007812  -0.033576  -0.039266
    14  O   -0.005425  -0.022908  -0.009036   0.001465  -0.011808   0.067765
    15  H    0.009498   0.013826   0.004392  -0.000835  -0.001528  -0.046037
              13         14         15
     1  C   -0.000774   0.000935  -0.004371
     2  H    0.000001  -0.000012  -0.000433
     3  C    0.005125  -0.008605   0.025362
     4  C    0.001685  -0.002932  -0.010172
     5  O    0.001961  -0.000639   0.000529
     6  O    0.018346   0.001932   0.007965
     7  C   -0.035717  -0.005425   0.009498
     8  C    0.389597  -0.022908   0.013826
     9  H   -0.002542  -0.009036   0.004392
    10  H   -0.007812   0.001465  -0.000835
    11  H   -0.033576  -0.011808  -0.001528
    12  H   -0.039266   0.067765  -0.046037
    13  H    0.505750   0.003005   0.002566
    14  O    0.003005   8.015361   0.281167
    15  H    0.002566   0.281167   0.485182
          Atomic-Atomic Spin Densities.
               1          2          3          4          5          6
     1  C   -0.000592   0.000275   0.002033   0.000273   0.000429  -0.000008
     2  H    0.000275   0.000221  -0.000972   0.000646   0.000015  -0.000069
     3  C    0.002033  -0.000972  -0.014816   0.008460  -0.001501  -0.000971
     4  C    0.000273   0.000646   0.008460  -0.007827   0.001912   0.001817
     5  O    0.000429   0.000015  -0.001501   0.001912  -0.000231   0.000386
     6  O   -0.000008  -0.000069  -0.000971   0.001817   0.000386   0.004451
     7  C   -0.002351  -0.000076   0.009366  -0.006985  -0.000981   0.000312
     8  C    0.000625   0.000034  -0.002264   0.003242   0.000188  -0.004561
     9  H    0.000262   0.000033   0.000437   0.001109   0.000520   0.001546
    10  H    0.000010  -0.000020  -0.002070  -0.002926  -0.000522  -0.004251
    11  H    0.000022   0.000017   0.000586   0.000900   0.000021   0.001594
    12  H   -0.000064  -0.000074  -0.002772  -0.001563  -0.000261  -0.011437
    13  H   -0.000020   0.000002   0.000232   0.000250   0.000070   0.002054
    14  O    0.000236   0.000041   0.001133   0.001080   0.000263   0.007875
    15  H   -0.000670  -0.000137   0.000053  -0.000846  -0.000194  -0.000644
               7          8          9         10         11         12
     1  C   -0.002351   0.000625   0.000262   0.000010   0.000022  -0.000064
     2  H   -0.000076   0.000034   0.000033  -0.000020   0.000017  -0.000074
     3  C    0.009366  -0.002264   0.000437  -0.002070   0.000586  -0.002772
     4  C   -0.006985   0.003242   0.001109  -0.002926   0.000900  -0.001563
     5  O   -0.000981   0.000188   0.000520  -0.000522   0.000021  -0.000261
     6  O    0.000312  -0.004561   0.001546  -0.004251   0.001594  -0.011437
     7  C   -0.003005  -0.035041  -0.002857   0.013973   0.000422   0.010285
     8  C   -0.035041   0.423056  -0.001394  -0.003626  -0.013076   0.076556
     9  H   -0.002857  -0.001394   0.003630  -0.002645  -0.000509  -0.003138
    10  H    0.013973  -0.003626  -0.002645   0.019879  -0.000069   0.000010
    11  H    0.000422  -0.013076  -0.000509  -0.000069  -0.013860   0.006107
    12  H    0.010285   0.076556  -0.003138   0.000010   0.006107  -0.065843
    13  H    0.003021  -0.017025   0.001464  -0.001910   0.005813  -0.001085
    14  O   -0.000405  -0.088780   0.003331  -0.001428   0.003895  -0.054510
    15  H    0.002682   0.004987  -0.001302   0.000803  -0.001141   0.011960
              13         14         15
     1  C   -0.000020   0.000236  -0.000670
     2  H    0.000002   0.000041  -0.000137
     3  C    0.000232   0.001133   0.000053
     4  C    0.000250   0.001080  -0.000846
     5  O    0.000070   0.000263  -0.000194
     6  O    0.002054   0.007875  -0.000644
     7  C    0.003021  -0.000405   0.002682
     8  C   -0.017025  -0.088780   0.004987
     9  H    0.001464   0.003331  -0.001302
    10  H   -0.001910  -0.001428   0.000803
    11  H    0.005813   0.003895  -0.001141
    12  H   -0.001085  -0.054510   0.011960
    13  H   -0.001546   0.005952  -0.001068
    14  O    0.005952   0.835846   0.002101
    15  H   -0.001068   0.002101  -0.026368
 Mulliken charges and spin densities:
               1          2
     1  C   -0.580289   0.000461
     2  H    0.195463  -0.000064
     3  C    1.061636  -0.003064
     4  C   -0.568140  -0.000458
     5  O   -0.211054   0.000115
     6  O   -0.068196  -0.001905
     7  C   -0.183851  -0.011641
     8  C   -0.684685   0.342921
     9  H    0.239459   0.000488
    10  H    0.201627   0.015208
    11  H    0.204492  -0.009279
    12  H    0.279262  -0.035828
    13  H    0.191651  -0.003795
    14  O   -0.310268   0.716629
    15  H    0.232891  -0.009785
 Sum of Mulliken charges =   0.00000   1.00000
 Mulliken charges and spin densities with hydrogens summed into heavy atoms:
               1          2
     1  C   -0.384826   0.000396
     3  C    1.061636  -0.003064
     4  C   -0.568140  -0.000458
     5  O   -0.211054   0.000115
     6  O   -0.068196  -0.001905
     7  C    0.257235   0.004055
     8  C   -0.009279   0.294018
    14  O   -0.077377   0.706844
 APT charges:
               1
     1  C   -0.177759
     2  H    0.240762
     3  C   -0.311389
     4  C    1.521811
     5  O   -0.781504
     6  O   -0.972698
     7  C    0.410453
     8  C    0.315921
     9  H   -0.008626
    10  H    0.005155
    11  H   -0.029327
    12  H   -0.315299
    13  H   -0.013288
    14  O   -0.184565
    15  H    0.300354
 Sum of APT charges =   0.00000
 APT charges with hydrogens summed into heavy atoms:
               1
     1  C    0.063002
     3  C   -0.311389
     4  C    1.521811
     5  O   -0.781504
     6  O   -0.972698
     7  C    0.406982
     8  C   -0.041994
    14  O    0.115789
 Electronic spatial extent (au):  <R**2>=           1257.9473
 Charge=              0.0000 electrons
 Dipole moment (field-independent basis, Debye):
    X=              0.4966    Y=              0.2209    Z=              1.6620  Tot=              1.7486
 Quadrupole moment (field-independent basis, Debye-Ang):
   XX=            -44.6068   YY=            -49.6990   ZZ=            -48.8107
   XY=             15.4593   XZ=             -0.3439   YZ=             -0.2037
 Traceless Quadrupole moment (field-independent basis, Debye-Ang):
   XX=              3.0987   YY=             -1.9935   ZZ=             -1.1052
   XY=             15.4593   XZ=             -0.3439   YZ=             -0.2037
 Octapole moment (field-independent basis, Debye-Ang**2):
  XXX=             22.3364  YYY=              6.8074  ZZZ=             -1.4584  XYY=             11.4502
  XXY=              8.1563  XXZ=             13.4606  XZZ=             -4.0679  YZZ=             -2.4009
  YYZ=              5.8416  XYZ=             -3.3854
 Hexadecapole moment (field-independent basis, Debye-Ang**3):
 XXXX=          -1025.8732 YYYY=           -414.1557 ZZZZ=           -106.0667 XXXY=            139.3118
 XXXZ=             10.5234 YYYX=             45.2283 YYYZ=             -3.6482 ZZZX=             -5.4198
 ZZZY=              0.9459 XXYY=           -241.8341 XXZZ=           -217.7438 YYZZ=            -90.1977
 XXYZ=             19.8446 YYXZ=              7.8994 ZZXY=             -1.6389
 N-N= 3.480814866339D+02 E-N=-1.680383302418D+03  KE= 4.188402780613D+02
  Exact polarizability:  83.797  12.227  86.786   0.417  -2.270  53.343
 Approx polarizability:  86.040  15.893 100.672   1.519   2.715  62.819
                          Isotropic Fermi Contact Couplings
        Atom                 a.u.       MegaHertz       Gauss      10(-4) cm-1
     1  C(13)              0.00004       0.04944       0.01764       0.01649
     2  H(1)               0.00000      -0.00945      -0.00337      -0.00315
     3  C(13)              0.00035       0.38890       0.13877       0.12972
     4  C(13)             -0.00057      -0.64256      -0.22928      -0.21433
     5  O(17)              0.00019      -0.11530      -0.04114      -0.03846
     6  O(17)             -0.00227       1.37660       0.49121       0.45918
     7  C(13)             -0.01216     -13.67312      -4.87891      -4.56086
     8  C(13)              0.13135     147.66648      52.69107      49.25623
     9  H(1)               0.00142       6.35928       2.26915       2.12123
    10  H(1)               0.00791      35.36990      12.62086      11.79813
    11  H(1)              -0.00222      -9.91781      -3.53892      -3.30823
    12  H(1)              -0.01522     -68.01806     -24.27053     -22.68838
    13  H(1)              -0.00139      -6.21080      -2.21617      -2.07170
    14  O(17)              0.12569     -76.19266     -27.18744     -25.41514
    15  H(1)              -0.01245     -55.62955     -19.85001     -18.55602
 --------------------------------------------------------
       Center         ----  Spin Dipole Couplings  ----
                      3XX-RR        3YY-RR        3ZZ-RR
 --------------------------------------------------------
     1   Atom        0.001549     -0.000684     -0.000865
     2   Atom        0.001104     -0.000530     -0.000574
     3   Atom        0.002632     -0.001142     -0.001490
     4   Atom        0.002722     -0.000773     -0.001949
     5   Atom        0.003558     -0.000249     -0.003309
     6   Atom        0.005991      0.006335     -0.012326
     7   Atom        0.005686      0.003308     -0.008994
     8   Atom       -0.210512      0.281159     -0.070647
     9   Atom       -0.002410      0.003480     -0.001071
    10   Atom       -0.000237      0.004257     -0.004020
    11   Atom       -0.027122     -0.004514      0.031636
    12   Atom       -0.097277      0.138070     -0.040793
    13   Atom        0.012100      0.006186     -0.018286
    14   Atom       -1.425080      1.816384     -0.391304
    15   Atom        0.125405     -0.052383     -0.073022
 --------------------------------------------------------
                        XY            XZ            YZ
 --------------------------------------------------------
     1   Atom       -0.000059      0.000389     -0.000259
     2   Atom        0.000206      0.000249     -0.000002
     3   Atom       -0.000390      0.000375     -0.000132
     4   Atom       -0.001908      0.000238     -0.000491
     5   Atom       -0.000369      0.001164      0.000955
     6   Atom        0.006876     -0.001500     -0.004860
     7   Atom       -0.013001      0.002681     -0.003646
     8   Atom       -0.038125      0.021529     -0.266143
     9   Atom       -0.005066     -0.004861      0.003929
    10   Atom       -0.004820     -0.000662     -0.002093
    11   Atom        0.000397      0.003833      0.001220
    12   Atom        0.028097     -0.015123     -0.132105
    13   Atom        0.022297      0.012256     -0.003970
    14   Atom        0.432202     -0.251706     -1.877862
    15   Atom        0.018191      0.053876     -0.025946
 --------------------------------------------------------


 ---------------------------------------------------------------------------------
              Anisotropic Spin Dipole Couplings in Principal Axis System
 ---------------------------------------------------------------------------------

       Atom             a.u.   MegaHertz   Gauss  10(-4) cm-1        Axes

              Baa    -0.0011    -0.145    -0.052    -0.048 -0.1123  0.5310  0.8399
     1 C(13)  Bbb    -0.0005    -0.072    -0.026    -0.024  0.1209  0.8463 -0.5189
              Bcc     0.0016     0.217     0.077     0.072  0.9863 -0.0433  0.1592
 
              Baa    -0.0006    -0.333    -0.119    -0.111 -0.1775  0.4067  0.8962
     2 H(1)   Bbb    -0.0005    -0.289    -0.103    -0.096 -0.0496  0.9058 -0.4209
              Bcc     0.0012     0.622     0.222     0.207  0.9829  0.1192  0.1406
 
              Baa    -0.0015    -0.208    -0.074    -0.069 -0.0628  0.2536  0.9653
     3 C(13)  Bbb    -0.0012    -0.155    -0.055    -0.052  0.1231  0.9618 -0.2447
              Bcc     0.0027     0.363     0.130     0.121  0.9904 -0.1035  0.0916
 
              Baa    -0.0022    -0.294    -0.105    -0.098  0.1525  0.4993  0.8529
     4 C(13)  Bbb    -0.0014    -0.188    -0.067    -0.063  0.3841  0.7652 -0.5166
              Bcc     0.0036     0.482     0.172     0.161  0.9106 -0.4064  0.0751
 
              Baa    -0.0038     0.274     0.098     0.091 -0.1639 -0.2731  0.9479
     5 O(17)  Bbb     0.0000    -0.002    -0.001    -0.001  0.0086  0.9605  0.2782
              Bcc     0.0038    -0.272    -0.097    -0.091  0.9864 -0.0538  0.1551
 
              Baa    -0.0135     0.978     0.349     0.326 -0.0104  0.2412  0.9704
     6 O(17)  Bbb    -0.0003     0.023     0.008     0.008  0.7444 -0.6462  0.1686
              Bcc     0.0138    -1.001    -0.357    -0.334  0.6677  0.7241 -0.1728
 
              Baa    -0.0102    -1.367    -0.488    -0.456  0.2164  0.4435  0.8698
     7 C(13)  Bbb    -0.0081    -1.085    -0.387    -0.362  0.6534  0.5961 -0.4665
              Bcc     0.0183     2.452     0.875     0.818  0.7254 -0.6693  0.1608
 
              Baa    -0.2146   -28.791   -10.273    -9.604 -0.6557  0.3174  0.6851
     8 C(13)  Bbb    -0.2127   -28.546   -10.186    -9.522  0.7519  0.3568  0.5544
              Bcc     0.4273    57.337    20.459    19.126 -0.0685  0.8786 -0.4726
 
              Baa    -0.0069    -3.673    -1.311    -1.225  0.8123  0.1876  0.5523
     9 H(1)   Bbb    -0.0028    -1.483    -0.529    -0.495 -0.3047 -0.6709  0.6760
              Bcc     0.0097     5.156     1.840     1.720 -0.4974  0.7174  0.4878
 
              Baa    -0.0055    -2.924    -1.043    -0.975  0.4681  0.4011  0.7874
    10 H(1)   Bbb    -0.0020    -1.080    -0.386    -0.360  0.7168  0.3488 -0.6038
              Bcc     0.0075     4.004     1.429     1.336 -0.5168  0.8470 -0.1242
 
              Baa    -0.0274   -14.606    -5.212    -4.872  0.9978 -0.0139 -0.0645
    11 H(1)   Bbb    -0.0046    -2.429    -0.867    -0.810  0.0117  0.9993 -0.0349
              Bcc     0.0319    17.035     6.079     5.682  0.0650  0.0341  0.9973
 
              Baa    -0.1109   -59.168   -21.113   -19.736  0.0182  0.4670  0.8840
    12 H(1)   Bbb    -0.1006   -53.660   -19.147   -17.899  0.9945 -0.0993  0.0321
              Bcc     0.2115   112.828    40.260    37.635  0.1028  0.8786 -0.4663
 
              Baa    -0.0276   -14.729    -5.256    -4.913 -0.4684  0.4015  0.7870
    13 H(1)   Bbb    -0.0049    -2.633    -0.940    -0.878 -0.4397  0.6667 -0.6018
              Bcc     0.0325    17.362     6.195     5.791  0.7663  0.6279  0.1357
 
              Baa    -1.4831   107.317    38.293    35.797  0.9705  0.0100  0.2410
    14 O(17)  Bbb    -1.4649   105.998    37.823    35.357 -0.2128  0.5063  0.8357
              Bcc     2.9480  -213.316   -76.116   -71.154  0.1136  0.8623 -0.4935
 
              Baa    -0.1039   -55.443   -19.783   -18.494 -0.2353  0.5021  0.8322
    15 H(1)   Bbb    -0.0358   -19.127    -6.825    -6.380  0.0700  0.8628 -0.5008
              Bcc     0.1398    74.570    26.608    24.874  0.9694  0.0596  0.2382
 

 ---------------------------------------------------------------------------------

 Calling FoFJK, ICntrl=    100127 FMM=F ISym2X=0 I1Cent= 0 IOpClX= 1 NMat=1 NMatS=1 NMatT=0.
 Full mass-weighted force constant matrix:
 Low frequencies --- -965.9940  -35.4694  -12.4692   -1.3437   -0.0010   -0.0009
 Low frequencies ---   -0.0006   35.6686   54.8954
 ******    1 imaginary frequencies (negative Signs) ****** 
 Diagonal vibrational polarizability:
       35.6449142      84.0565654     175.0456955
 Harmonic frequencies (cm**-1), IR intensities (KM/Mole), Raman scattering
 activities (A**4/AMU), depolarization ratios for plane and unpolarized
 incident light, reduced masses (AMU), force constants (mDyne/A),
 and normal coordinates:
                      1                      2                      3
                      A                      A                      A
 Frequencies --   -965.9919                29.5403                54.5759
 Red. masses --      1.2737                 7.2346                 6.5514
 Frc consts  --      0.7003                 0.0037                 0.0115
 IR Inten    --    857.0545                 4.9606                 2.7484
  Atom  AN      X      Y      Z        X      Y      Z        X      Y      Z
     1   6     0.00   0.00   0.00    -0.11   0.13  -0.21     0.17  -0.14   0.06
     2   1     0.00   0.00   0.00    -0.16   0.21  -0.33     0.22  -0.20   0.10
     3   6     0.00   0.00   0.00    -0.05   0.04  -0.08     0.10  -0.06   0.02
     4   6     0.00   0.00   0.00     0.01  -0.06   0.07     0.06  -0.01   0.00
     5   8     0.00   0.00   0.00     0.09  -0.15   0.32     0.06  -0.08   0.18
     6   8     0.00   0.00   0.00    -0.04  -0.02  -0.13     0.03   0.11  -0.22
     7   6     0.00   0.02  -0.01    -0.01  -0.06  -0.13     0.03   0.09  -0.15
     8   6     0.03   0.03  -0.02    -0.05  -0.07  -0.22     0.08   0.00   0.07
     9   1     0.00  -0.01   0.00     0.06  -0.12  -0.13    -0.10   0.17  -0.15
    10   1    -0.04   0.00   0.02    -0.01  -0.03  -0.07     0.13   0.06  -0.25
    11   1    -0.02   0.22  -0.06    -0.16  -0.14  -0.20     0.24  -0.05   0.07
    12   1     0.39   0.70  -0.40     0.03  -0.01  -0.15    -0.11  -0.01   0.14
    13   1    -0.09   0.29  -0.18    -0.04  -0.03  -0.35     0.08  -0.07   0.20
    14   8    -0.03  -0.11   0.06     0.12   0.19   0.30    -0.43   0.05   0.03
    15   1    -0.03   0.04  -0.01     0.13   0.00   0.28    -0.38   0.20  -0.16
                      4                      5                      6
                      A                      A                      A
 Frequencies --    111.5181               138.4233               152.3450
 Red. masses --      3.6691                 4.0530                 2.5843
 Frc consts  --      0.0269                 0.0458                 0.0353
 IR Inten    --      0.3486                 3.5306                 8.5224
  Atom  AN      X      Y      Z        X      Y      Z        X      Y      Z
     1   6    -0.16   0.08   0.13     0.20  -0.12  -0.10    -0.06   0.08  -0.11
     2   1    -0.25   0.15   0.25     0.36  -0.27  -0.20    -0.13   0.17  -0.25
     3   6    -0.04  -0.01  -0.02    -0.01   0.07   0.03     0.02  -0.05   0.07
     4   6    -0.01  -0.03  -0.07    -0.07   0.12   0.06     0.03  -0.07   0.09
     5   8     0.02  -0.07   0.04    -0.06   0.11   0.09     0.01  -0.03  -0.01
     6   8    -0.02   0.03  -0.20    -0.08   0.12   0.00     0.05  -0.08   0.17
     7   6    -0.06   0.06  -0.09    -0.04   0.08  -0.12    -0.03   0.09  -0.17
     8   6     0.07   0.06   0.21    -0.08  -0.12   0.01     0.03   0.03   0.04
     9   1    -0.27   0.16  -0.10    -0.06   0.28  -0.16    -0.03   0.50  -0.24
    10   1     0.02   0.01  -0.22     0.04   0.01  -0.31    -0.13  -0.12  -0.51
    11   1     0.30  -0.02   0.21    -0.10  -0.31   0.05     0.12  -0.19   0.08
    12   1     0.04   0.11   0.30    -0.12  -0.03   0.18     0.02   0.11   0.23
    13   1    -0.01   0.14   0.34    -0.04  -0.13  -0.11     0.00   0.10  -0.01
    14   8     0.16  -0.10   0.00     0.13  -0.20   0.04    -0.04   0.00  -0.05
    15   1     0.20  -0.22  -0.15     0.12  -0.33   0.09    -0.06   0.14   0.01
                      7                      8                      9
                      A                      A                      A
 Frequencies --    257.7175               291.1696               308.1336
 Red. masses --      5.0647                 4.0151                 1.0778
 Frc consts  --      0.1982                 0.2006                 0.0603
 IR Inten    --      3.9297                 8.3161                66.7784
  Atom  AN      X      Y      Z        X      Y      Z        X      Y      Z
     1   6     0.11  -0.10  -0.07    -0.02   0.06  -0.15    -0.01   0.00  -0.01
     2   1     0.30  -0.28  -0.19    -0.10   0.22  -0.53     0.00   0.00  -0.04
     3   6    -0.17   0.15   0.11     0.07  -0.15   0.39     0.00  -0.01   0.03
     4   6    -0.02   0.02   0.02     0.01  -0.03   0.08    -0.01   0.00   0.00
     5   8     0.29   0.10  -0.01    -0.03   0.04  -0.10    -0.01   0.00   0.00
     6   8    -0.11  -0.20  -0.05    -0.02   0.07  -0.14    -0.01   0.01  -0.02
     7   6    -0.16  -0.15  -0.03     0.01  -0.02   0.03     0.00   0.00  -0.02
     8   6     0.00   0.09   0.10     0.00   0.01  -0.01     0.02   0.02  -0.01
     9   1    -0.25  -0.11  -0.03    -0.02  -0.22   0.07    -0.01   0.00  -0.02
    10   1    -0.22  -0.17  -0.04     0.09   0.09   0.19     0.01   0.01  -0.01
    11   1     0.22   0.15   0.07     0.04   0.16  -0.05     0.16   0.26  -0.06
    12   1     0.14   0.10   0.05    -0.06  -0.06  -0.12    -0.11  -0.12  -0.23
    13   1    -0.16   0.28   0.27     0.02  -0.07   0.11     0.03  -0.10   0.26
    14   8     0.00   0.08  -0.03     0.00   0.00   0.04     0.02  -0.04  -0.02
    15   1     0.03   0.14  -0.14     0.11  -0.32  -0.34    -0.20   0.32   0.77
                     10                     11                     12
                      A                      A                      A
 Frequencies --    358.3495               377.7252               539.1986
 Red. masses --      1.2490                 3.0999                 5.8844
 Frc consts  --      0.0945                 0.2606                 1.0080
 IR Inten    --     33.9906                25.1225                 0.7210
  Atom  AN      X      Y      Z        X      Y      Z        X      Y      Z
     1   6     0.01   0.00   0.02     0.02   0.03   0.00     0.19   0.22   0.06
     2   1     0.00   0.00   0.06    -0.04   0.09   0.01    -0.01   0.43   0.16
     3   6     0.01   0.01  -0.04     0.09  -0.05  -0.01     0.42  -0.03  -0.08
     4   6     0.02  -0.01   0.00     0.08  -0.05  -0.04     0.03   0.08   0.03
     5   8     0.02   0.00   0.00     0.18  -0.03  -0.04    -0.14   0.04   0.04
     6   8     0.02  -0.02   0.05     0.06   0.00  -0.04    -0.10  -0.12  -0.02
     7   6    -0.03   0.04  -0.03    -0.12   0.14   0.09    -0.19  -0.22  -0.06
     8   6    -0.03   0.05  -0.05    -0.25   0.06   0.02    -0.09  -0.02   0.04
     9   1     0.01   0.08  -0.04    -0.17   0.09   0.10    -0.22  -0.18  -0.06
    10   1    -0.09   0.01  -0.06    -0.18   0.14   0.12    -0.20  -0.22  -0.07
    11   1     0.16   0.44  -0.14    -0.55  -0.16   0.08     0.11   0.05   0.01
    12   1    -0.30  -0.15  -0.33    -0.29   0.07   0.15     0.11   0.03  -0.01
    13   1     0.02  -0.20   0.36    -0.11  -0.03  -0.30    -0.27   0.21   0.18
    14   8    -0.01  -0.02   0.05    -0.01  -0.07   0.01     0.00   0.03  -0.02
    15   1     0.07  -0.52  -0.23    -0.11  -0.05   0.37     0.00   0.09   0.01
                     13                     14                     15
                      A                      A                      A
 Frequencies --    619.6771               729.0741               749.7544
 Red. masses --      7.5581                 1.4851                 1.2989
 Frc consts  --      1.7100                 0.4651                 0.4302
 IR Inten    --      5.5825                 8.1383                36.5488
  Atom  AN      X      Y      Z        X      Y      Z        X      Y      Z
     1   6     0.20   0.16   0.03    -0.01  -0.01   0.00    -0.10   0.10   0.04
     2   1     0.50  -0.11  -0.12    -0.05   0.03   0.01     0.68  -0.67  -0.25
     3   6    -0.14   0.43   0.19     0.01  -0.02  -0.02     0.05  -0.05  -0.02
     4   6     0.13  -0.12  -0.07    -0.01   0.01   0.04     0.00   0.00   0.00
     5   8    -0.27  -0.23  -0.05    -0.01   0.03   0.00     0.00   0.00   0.00
     6   8     0.15  -0.15  -0.08    -0.01  -0.03   0.00     0.00   0.00   0.00
     7   6     0.01   0.03   0.01     0.00  -0.01  -0.05     0.00   0.00   0.00
     8   6    -0.02   0.07  -0.01     0.08   0.14  -0.07     0.00   0.00   0.00
     9   1    -0.05  -0.03   0.03     0.20  -0.34   0.00     0.01  -0.01   0.00
    10   1    -0.14   0.02   0.05    -0.18   0.13   0.31    -0.01   0.00   0.01
    11   1    -0.17  -0.09   0.03     0.22  -0.35   0.02     0.01  -0.01   0.00
    12   1    -0.18   0.03   0.11    -0.24   0.13   0.40    -0.01   0.00   0.01
    13   1     0.08  -0.03  -0.15     0.06   0.15  -0.07     0.00   0.01   0.00
    14   8    -0.02  -0.03   0.01    -0.03  -0.05   0.01     0.00   0.00   0.00
    15   1    -0.04  -0.18   0.14    -0.08  -0.36   0.26     0.00   0.00   0.00
                     16                     17                     18
                      A                      A                      A
 Frequencies --    779.0758               789.4816               844.8741
 Red. masses --      2.8678                 1.8459                 1.3729
 Frc consts  --      1.0256                 0.6779                 0.5774
 IR Inten    --      0.6855                52.3084                51.5100
  Atom  AN      X      Y      Z        X      Y      Z        X      Y      Z
     1   6     0.02  -0.04   0.15    -0.01   0.04  -0.12    -0.02  -0.01   0.00
     2   1    -0.04   0.24  -0.86     0.08  -0.28   0.91    -0.01  -0.03   0.02
     3   6    -0.02   0.06  -0.16    -0.01   0.02  -0.03     0.00  -0.02  -0.02
     4   6     0.05  -0.12   0.28     0.04  -0.09   0.20     0.00   0.02   0.05
     5   8    -0.01   0.02  -0.09    -0.01   0.02  -0.06    -0.02   0.05   0.01
     6   8    -0.01   0.04  -0.06     0.00   0.03  -0.04     0.00  -0.05  -0.05
     7   6    -0.01   0.01  -0.01    -0.01   0.01  -0.01     0.04  -0.03   0.05
     8   6    -0.02  -0.02   0.01    -0.01  -0.01   0.00     0.07   0.03   0.05
     9   1    -0.02  -0.06   0.00    -0.01  -0.05   0.00    -0.24   0.26   0.01
    10   1     0.04   0.05   0.04     0.02   0.04   0.04     0.10  -0.19  -0.27
    11   1     0.01   0.03  -0.01     0.02   0.02   0.00    -0.37   0.09   0.06
    12   1     0.03  -0.01  -0.03     0.02  -0.01  -0.01     0.01  -0.04  -0.16
    13   1    -0.03  -0.02   0.05    -0.02  -0.01   0.04     0.16   0.04  -0.32
    14   8     0.01   0.00   0.00     0.00   0.00   0.00    -0.02   0.04  -0.03
    15   1     0.02   0.12  -0.06     0.01   0.10  -0.05    -0.09  -0.56   0.31
                     19                     20                     21
                      A                      A                      A
 Frequencies --    904.3079               963.3778              1029.0028
 Red. masses --      1.7892                 6.4836                 2.7982
 Frc consts  --      0.8621                 3.5453                 1.7456
 IR Inten    --    174.1011                19.5896               226.5248
  Atom  AN      X      Y      Z        X      Y      Z        X      Y      Z
     1   6     0.00   0.00   0.00    -0.14  -0.14  -0.03     0.00  -0.01   0.00
     2   1     0.02  -0.02   0.00    -0.16  -0.15  -0.04     0.00  -0.01  -0.01
     3   6    -0.02   0.02   0.01    -0.10  -0.07  -0.01    -0.02   0.01   0.01
     4   6     0.04  -0.04  -0.02     0.20   0.20   0.04     0.01  -0.02   0.00
     5   8     0.03  -0.06  -0.03    -0.14   0.19   0.10     0.02  -0.04  -0.02
     6   8     0.01   0.13   0.05     0.34  -0.12  -0.09     0.04   0.16   0.03
     7   6     0.00  -0.08  -0.04     0.06  -0.11  -0.08    -0.05  -0.23   0.04
     8   6    -0.08  -0.08   0.04    -0.25   0.02   0.05     0.02   0.20  -0.09
     9   1     0.16  -0.08  -0.05     0.18  -0.17  -0.07    -0.11   0.29  -0.05
    10   1     0.19  -0.02  -0.01     0.06  -0.08  -0.04     0.17  -0.37  -0.37
    11   1     0.20  -0.02   0.02    -0.03   0.13   0.02    -0.17   0.02  -0.04
    12   1     0.14   0.16   0.01    -0.10   0.10   0.12    -0.18  -0.38   0.14
    13   1    -0.40   0.40   0.15    -0.45   0.22   0.31    -0.06   0.31  -0.09
    14   8    -0.01   0.07  -0.05     0.01  -0.01   0.01    -0.01  -0.10   0.06
    15   1    -0.10  -0.57   0.34     0.03   0.21  -0.10     0.04   0.30  -0.16
                     22                     23                     24
                      A                      A                      A
 Frequencies --   1090.9975              1160.9310              1239.7754
 Red. masses --      2.8063                 1.7617                 1.2535
 Frc consts  --      1.9680                 1.3989                 1.1351
 IR Inten    --     43.8082                13.6913               189.7579
  Atom  AN      X      Y      Z        X      Y      Z        X      Y      Z
     1   6     0.04   0.04   0.01     0.00   0.00   0.00    -0.01  -0.01   0.00
     2   1     0.03   0.05   0.01     0.00   0.00   0.00     0.00  -0.01   0.00
     3   6     0.03   0.00   0.00     0.00   0.00   0.00    -0.01   0.00   0.00
     4   6    -0.10  -0.04   0.00     0.01   0.00   0.01     0.04   0.00   0.00
     5   8     0.02  -0.02  -0.01    -0.01   0.02   0.00     0.00  -0.02  -0.01
     6   8    -0.12  -0.10  -0.03     0.00  -0.02  -0.06    -0.03   0.05   0.01
     7   6     0.28   0.03   0.01    -0.01   0.04   0.19     0.04  -0.09  -0.02
     8   6    -0.14   0.09   0.01     0.00  -0.06  -0.15    -0.05   0.03   0.02
     9   1     0.43   0.12  -0.03    -0.04   0.49   0.12     0.09   0.00  -0.04
    10   1     0.51  -0.04  -0.22    -0.17  -0.22  -0.22    -0.19  -0.20  -0.08
    11   1    -0.13   0.17   0.01     0.52  -0.17  -0.15    -0.13   0.05   0.04
    12   1    -0.21   0.06   0.25     0.08   0.23   0.28    -0.06   0.57   0.18
    13   1    -0.28   0.24   0.17    -0.14   0.01   0.25     0.32  -0.61   0.13
    14   8     0.00  -0.02   0.01     0.00   0.01  -0.01     0.01   0.03  -0.02
    15   1     0.01   0.10  -0.05    -0.02  -0.07   0.06    -0.01   0.01   0.02
                     25                     26                     27
                      A                      A                      A
 Frequencies --   1288.2792              1294.2181              1335.2581
 Red. masses --      2.3913                 1.4998                 1.1661
 Frc consts  --      2.3383                 1.4801                 1.2250
 IR Inten    --    497.4398               255.8043                25.1964
  Atom  AN      X      Y      Z        X      Y      Z        X      Y      Z
     1   6    -0.04  -0.04  -0.01    -0.02  -0.02   0.00     0.01   0.01   0.00
     2   1    -0.03  -0.06  -0.02    -0.02  -0.03  -0.01     0.00   0.01   0.00
     3   6    -0.02   0.00   0.00    -0.01   0.00   0.00     0.00   0.00   0.00
     4   6     0.27   0.05  -0.03     0.15   0.02  -0.01    -0.04  -0.01   0.00
     5   8    -0.03  -0.02   0.00    -0.01  -0.01   0.00     0.00   0.00   0.00
     6   8    -0.15  -0.01   0.06    -0.10   0.02  -0.02     0.02   0.02  -0.01
     7   6     0.04   0.04  -0.01     0.05   0.01   0.01     0.01   0.00  -0.02
     8   6     0.02  -0.01  -0.06     0.00   0.01   0.05     0.06  -0.09  -0.01
     9   1    -0.71  -0.20   0.07     0.49   0.15  -0.04     0.08   0.02  -0.02
    10   1     0.35   0.13   0.01    -0.65  -0.17   0.01    -0.40  -0.05   0.08
    11   1    -0.02   0.22  -0.10    -0.04  -0.14   0.08    -0.27   0.63  -0.13
    12   1    -0.11   0.03   0.32     0.05  -0.29  -0.29    -0.14   0.01   0.50
    13   1    -0.07   0.10   0.01    -0.07   0.17  -0.06    -0.10   0.21  -0.07
    14   8     0.00  -0.01   0.00     0.00  -0.01   0.01     0.00   0.00   0.00
    15   1     0.00   0.07  -0.01     0.01   0.04  -0.03     0.00   0.02   0.01
                     28                     29                     30
                      A                      A                      A
 Frequencies --   1421.6274              1460.8134              1509.9021
 Red. masses --      1.3527                 1.1451                 1.0850
 Frc consts  --      1.6107                 1.4398                 1.4574
 IR Inten    --     24.5016                 5.9328                 9.9135
  Atom  AN      X      Y      Z        X      Y      Z        X      Y      Z
     1   6     0.01   0.01   0.00     0.00   0.00   0.00     0.00   0.00   0.00
     2   1     0.01   0.01   0.00     0.00   0.00   0.00     0.00   0.00   0.00
     3   6     0.00   0.00   0.00     0.00   0.00   0.00     0.00   0.00   0.00
     4   6    -0.06  -0.02   0.00    -0.02  -0.01   0.00     0.02   0.01   0.00
     5   8     0.01   0.01   0.00     0.00   0.00   0.00     0.00   0.00   0.00
     6   8     0.03   0.03   0.01     0.01   0.01   0.00    -0.01  -0.01   0.00
     7   6     0.15  -0.02  -0.03     0.05  -0.02   0.00     0.00  -0.07  -0.03
     8   6    -0.02   0.00  -0.02    -0.08   0.00   0.06    -0.01   0.01   0.00
     9   1    -0.69   0.03   0.02    -0.18  -0.04   0.02     0.01   0.68  -0.15
    10   1    -0.48  -0.05   0.20    -0.13  -0.08  -0.02     0.12   0.32   0.60
    11   1    -0.11  -0.27   0.05     0.64   0.20  -0.04     0.04   0.06  -0.01
    12   1    -0.04  -0.01  -0.17    -0.20  -0.04  -0.02     0.08  -0.01   0.05
    13   1    -0.16   0.09   0.27     0.13  -0.01  -0.65     0.04  -0.06  -0.06
    14   8     0.00   0.00   0.00     0.00   0.00   0.00     0.00   0.00   0.00
    15   1     0.00   0.00  -0.02     0.01   0.04  -0.02     0.00  -0.01   0.01
                     31                     32                     33
                      A                      A                      A
 Frequencies --   1540.2550              1848.7089              2266.5901
 Red. masses --      1.1289                12.5799                 5.6971
 Frc consts  --      1.5780                25.3318                17.2443
 IR Inten    --    129.7436               362.6929                75.8850
  Atom  AN      X      Y      Z        X      Y      Z        X      Y      Z
     1   6     0.00   0.00   0.00    -0.05  -0.05  -0.01    -0.27  -0.25  -0.05
     2   1     0.00   0.00   0.00    -0.10  -0.06  -0.01    -0.54  -0.52  -0.11
     3   6     0.00   0.00   0.00     0.04   0.02   0.00     0.38   0.36   0.08
     4   6    -0.01  -0.01   0.00    -0.14   0.73   0.31    -0.06  -0.07  -0.02
     5   8     0.00   0.00   0.00     0.09  -0.48  -0.21     0.00   0.01   0.00
     6   8     0.00   0.00   0.00     0.03  -0.04  -0.02    -0.01   0.00   0.00
     7   6     0.02   0.02  -0.02     0.02   0.02   0.01     0.00   0.00   0.00
     8   6    -0.06   0.06  -0.02    -0.01  -0.01  -0.01     0.00   0.00   0.00
     9   1    -0.06  -0.11   0.00    -0.12  -0.03   0.04     0.00   0.00   0.00
    10   1    -0.10  -0.01  -0.03    -0.12   0.00  -0.01     0.00   0.00   0.00
    11   1     0.05   0.15  -0.04     0.03   0.00  -0.01     0.00   0.00   0.00
    12   1     0.81  -0.35   0.28     0.04  -0.03   0.01     0.00   0.00   0.00
    13   1     0.10  -0.19   0.01    -0.03   0.03   0.02     0.00   0.00   0.00
    14   8    -0.02  -0.02   0.01     0.00   0.00   0.00     0.00   0.00   0.00
    15   1    -0.02  -0.14   0.09    -0.01  -0.03   0.00     0.00   0.00   0.00
                     34                     35                     36
                      A                      A                      A
 Frequencies --   3075.0361              3104.1440              3128.1800
 Red. masses --      1.0581                 1.0589                 1.1060
 Frc consts  --      5.8948                 6.0115                 6.3766
 IR Inten    --      6.1662                 5.1018                 5.5012
  Atom  AN      X      Y      Z        X      Y      Z        X      Y      Z
     1   6     0.00   0.00   0.00     0.00   0.00   0.00     0.00   0.00   0.00
     2   1     0.00   0.00   0.00     0.00   0.00   0.00     0.00   0.00   0.00
     3   6     0.00   0.00   0.00     0.00   0.00   0.00     0.00   0.00   0.00
     4   6     0.00   0.00   0.00     0.00   0.00   0.00     0.00   0.00   0.00
     5   8     0.00   0.00   0.00     0.00   0.00   0.00     0.00   0.00   0.00
     6   8     0.00   0.00   0.00     0.00   0.00   0.00     0.00   0.00   0.00
     7   6     0.01  -0.06  -0.02     0.00   0.00   0.02    -0.01   0.03  -0.09
     8   6     0.00   0.00   0.00     0.04   0.01  -0.05     0.01   0.01   0.00
     9   1     0.05   0.09   0.59    -0.01  -0.04  -0.19     0.04   0.14   0.75
    10   1    -0.17   0.67  -0.38    -0.02   0.07  -0.04     0.14  -0.51   0.27
    11   1     0.00   0.01   0.02     0.05   0.16   0.74     0.00   0.02   0.09
    12   1     0.00   0.01   0.00     0.01   0.00  -0.01     0.01  -0.01   0.00
    13   1    -0.05  -0.04  -0.02    -0.51  -0.32  -0.15    -0.18  -0.12  -0.05
    14   8     0.00   0.00   0.00     0.00   0.00   0.00     0.00   0.00   0.00
    15   1     0.00   0.00   0.00     0.00   0.00   0.00     0.00   0.00   0.00
                     37                     38                     39
                      A                      A                      A
 Frequencies --   3183.1540              3470.6362              3786.0894
 Red. masses --      1.1080                 1.1732                 1.0668
 Frc consts  --      6.6144                 8.3264                 9.0099
 IR Inten    --      4.6980                68.7506                52.3120
  Atom  AN      X      Y      Z        X      Y      Z        X      Y      Z
     1   6     0.00   0.00   0.00    -0.08  -0.08  -0.02     0.00   0.00   0.00
     2   1     0.00   0.00   0.00     0.71   0.68   0.15     0.00   0.00   0.00
     3   6     0.00   0.00   0.00     0.03   0.02   0.01     0.00   0.00   0.00
     4   6     0.00   0.00   0.00     0.00   0.00   0.00     0.00   0.00   0.00
     5   8     0.00   0.00   0.00     0.00   0.00   0.00     0.00   0.00   0.00
     6   8     0.00   0.00   0.00     0.00   0.00   0.00     0.00   0.00   0.00
     7   6     0.00   0.00  -0.01     0.00   0.00   0.00     0.00   0.00   0.00
     8   6    -0.05  -0.04  -0.07     0.00   0.00   0.00     0.00   0.00   0.00
     9   1     0.00   0.02   0.11     0.00   0.00   0.00     0.00   0.00   0.00
    10   1     0.01  -0.03   0.02     0.00   0.00   0.00     0.00   0.00   0.00
    11   1     0.03   0.12   0.63     0.00   0.00   0.00     0.00   0.00   0.00
    12   1    -0.01  -0.01  -0.01     0.00   0.00   0.00     0.00  -0.02   0.01
    13   1     0.62   0.39   0.16     0.00   0.00   0.00     0.00   0.00   0.00
    14   8     0.00   0.00   0.00     0.00   0.00   0.00     0.06   0.00   0.02
    15   1     0.00   0.00   0.00     0.00   0.00   0.00    -0.96  -0.03  -0.26

 -------------------
 - Thermochemistry -
 -------------------
 Temperature   298.150 Kelvin.  Pressure   1.00000 Atm.
 Atom     1 has atomic number  6 and mass  12.00000
 Atom     2 has atomic number  1 and mass   1.00783
 Atom     3 has atomic number  6 and mass  12.00000
 Atom     4 has atomic number  6 and mass  12.00000
 Atom     5 has atomic number  8 and mass  15.99491
 Atom     6 has atomic number  8 and mass  15.99491
 Atom     7 has atomic number  6 and mass  12.00000
 Atom     8 has atomic number  6 and mass  12.00000
 Atom     9 has atomic number  1 and mass   1.00783
 Atom    10 has atomic number  1 and mass   1.00783
 Atom    11 has atomic number  1 and mass   1.00783
 Atom    12 has atomic number  1 and mass   1.00783
 Atom    13 has atomic number  1 and mass   1.00783
 Atom    14 has atomic number  8 and mass  15.99491
 Atom    15 has atomic number  1 and mass   1.00783
 Molecular mass:   115.03952 amu.
 Principal axes and moments of inertia in atomic units:
                           1         2         3
     Eigenvalues --   611.968521554.792252009.57079
           X            0.99920   0.03954  -0.00569
           Y           -0.03955   0.99922  -0.00092
           Z            0.00565   0.00115   0.99998
 This molecule is an asymmetric top.
 Rotational symmetry number  1.
 Warning -- assumption of classical behavior for rotation
           may cause significant error
 Rotational temperatures (Kelvin)      0.14153     0.05571     0.04310
 Rotational constants (GHZ):           2.94908     1.16076     0.89807
    1 imaginary frequencies ignored.
 Zero-point vibrational energy     282509.6 (Joules/Mol)
                                   67.52142 (Kcal/Mol)
 Warning -- explicit consideration of  12 degrees of freedom as
           vibrations may cause significant error
 Vibrational temperatures:     42.50    78.52   160.45   199.16   219.19
          (Kelvin)            370.80   418.93   443.33   515.58   543.46
                              775.79   891.58  1048.97  1078.73  1120.91
                             1135.89  1215.58  1301.10  1386.08  1480.50
                             1569.70  1670.32  1783.76  1853.54  1862.09
                             1921.14  2045.40  2101.78  2172.41  2216.08
                             2659.88  3261.11  4424.29  4466.17  4500.75
                             4579.84  4993.47  5447.33
 
 Zero-point correction=                           0.107602 (Hartree/Particle)
 Thermal correction to Energy=                    0.117174
 Thermal correction to Enthalpy=                  0.118118
 Thermal correction to Gibbs Free Energy=         0.070986
 Sum of electronic and zero-point Energies=           -419.349185
 Sum of electronic and thermal Energies=              -420.082560
 Sum of electronic and thermal Enthalpies=            -420.081616
 Sum of electronic and thermal Free Energies=         -420.128747
 
                     E (Thermal)             CV                S
                      KCal/Mol        Cal/Mol-Kelvin    Cal/Mol-Kelvin
 Total                   73.527             32.193             99.197
 Electronic               0.000              0.000              1.377
 Translational            0.889              2.981             40.136
 Rotational               0.889              2.981             29.038
 Vibrational             71.750             26.231             28.646
 Vibration     1          0.593              1.984              5.860
 Vibration     2          0.596              1.976              4.644
 Vibration     3          0.607              1.940              3.242
 Vibration     4          0.614              1.915              2.826
 Vibration     5          0.619              1.900              2.643
 Vibration     6          0.667              1.750              1.677
 Vibration     7          0.687              1.690              1.467
 Vibration     8          0.698              1.658              1.372
 Vibration     9          0.733              1.558              1.129
 Vibration    10          0.748              1.518              1.048
 Vibration    11          0.894              1.163              0.567
 Vibration    12          0.980              0.990              0.417
                       Q            Log10(Q)             Ln(Q)
 Total Bot       0.223190D-32        -32.651325        -75.182454
 Total V=0       0.695278D+17         16.842158         38.780502
 Vib (Bot)       0.464858D-46        -46.332679       -106.684937
 Vib (Bot)    1  0.700906D+01          0.845660          1.947203
 Vib (Bot)    2  0.378605D+01          0.578186          1.331323
 Vib (Bot)    3  0.183598D+01          0.263869          0.607580
 Vib (Bot)    4  0.146956D+01          0.167188          0.384965
 Vib (Bot)    5  0.133008D+01          0.123877          0.285237
 Vib (Bot)    6  0.754504D+00         -0.122338         -0.281694
 Vib (Bot)    7  0.656357D+00         -0.182860         -0.421050
 Vib (Bot)    8  0.614335D+00         -0.211595         -0.487215
 Vib (Bot)    9  0.512047D+00         -0.290690         -0.669339
 Vib (Bot)   10  0.479430D+00         -0.319275         -0.735158
 Vib (Bot)   11  0.294057D+00         -0.531569         -1.223982
 Vib (Bot)   12  0.236076D+00         -0.626949         -1.443604
 Vib (V=0)       0.144812D+04          3.160804          7.278019
 Vib (V=0)    1  0.752687D+01          0.876614          2.018479
 Vib (V=0)    2  0.431892D+01          0.635375          1.463006
 Vib (V=0)    3  0.240285D+01          0.380726          0.876655
 Vib (V=0)    4  0.205229D+01          0.312239          0.718958
 Vib (V=0)    5  0.192095D+01          0.283517          0.652821
 Vib (V=0)    6  0.140514D+01          0.147719          0.340136
 Vib (V=0)    7  0.132511D+01          0.122252          0.281495
 Vib (V=0)    8  0.129209D+01          0.111293          0.256262
 Vib (V=0)    9  0.121568D+01          0.084818          0.195300
 Vib (V=0)   10  0.119271D+01          0.076536          0.176231
 Vib (V=0)   11  0.108006D+01          0.033448          0.077016
 Vib (V=0)   12  0.105293D+01          0.022400          0.051577
 Electronic      0.200000D+01          0.301030          0.693147
 Translational   0.484982D+08          7.685726         17.697038
 Rotational      0.494993D+06          5.694599         13.112298
 ***** Axes restored to original set *****
 -------------------------------------------------------------------
 Center     Atomic                   Forces (Hartrees/Bohr)
 Number     Number              X              Y              Z
 -------------------------------------------------------------------
      1        6           0.000018821    0.000011657    0.000001054
      2        1           0.000008625   -0.000014310    0.000001892
      3        6           0.000028950    0.000004146   -0.000004724
      4        6          -0.000084370    0.000003487    0.000009821
      5        8           0.000050274    0.000023523   -0.000012544
      6        8           0.000043047    0.000130093   -0.000115646
      7        6          -0.000063844   -0.000444467    0.000166622
      8        6          -0.000536840   -0.000754642    0.000538735
      9        1           0.000012173    0.000017981   -0.000003957
     10        1           0.000070872   -0.000007840   -0.000035969
     11        1           0.000052390   -0.000490444    0.000122370
     12        1          -0.000920478   -0.001347888    0.000777909
     13        1           0.000211240   -0.000577615    0.000381472
     14        8           0.001059222    0.003523059   -0.001864909
     15        1           0.000049918   -0.000076742    0.000037875
 -------------------------------------------------------------------
 Cartesian Forces:  Max     0.003523059 RMS     0.000707127

 GradGradGradGradGradGradGradGradGradGradGradGradGradGradGradGradGradGrad
 Berny optimization.
 Search for a local minimum.
 Step number   1 out of a maximum of    2
 All quantities printed in internal units (Hartrees-Bohrs-Radians)
 Second derivative matrix not updated -- analytic derivatives used.
 ITU=  0
     Eigenvalues ---   -0.08413   0.00025   0.00089   0.00159   0.00278
     Eigenvalues ---    0.00390   0.00487   0.00816   0.01300   0.02102
     Eigenvalues ---    0.02601   0.02975   0.04404   0.05431   0.06143
     Eigenvalues ---    0.06953   0.08149   0.08846   0.09072   0.09280
     Eigenvalues ---    0.10260   0.13923   0.15004   0.17011   0.18841
     Eigenvalues ---    0.26910   0.29675   0.38080   0.45667   0.54336
     Eigenvalues ---    0.67018   0.71049   0.80560   0.84518   0.87877
     Eigenvalues ---    0.91448   0.98575   1.74592   2.73021
 Eigenvalue     1 is  -8.41D-02 should be greater than     0.000000 Eigenvector:
                          Y12       Y14       Z12       X12       Z14
   1                    0.64680  -0.46509  -0.34401   0.25403   0.21326
                          Y13       Y11       X14       Z13       X15
   1                    0.19519   0.17602  -0.12624  -0.12256  -0.08555
 Angle between quadratic step and forces=  40.37 degrees.
 Linear search not attempted -- first point.
 TrRot=  0.000136  0.001618 -0.001422 -0.560273 -0.000453  0.559876
 Variable       Old X    -DE/DX   Delta X   Delta X   Delta X     New X
                                 (Linear)    (Quad)   (Total)
    X1        5.50737   0.00002   0.00000   0.00113   0.00202   5.50939
    Y1        2.47845   0.00001   0.00000  -0.00188  -0.00230   2.47615
    Z1        0.60310   0.00000   0.00000   0.00415   0.00424   0.60734
    X2        6.94905   0.00001   0.00000   0.00309   0.00441   6.95346
    Y2        3.85244  -0.00001   0.00000  -0.00447  -0.00540   3.84704
    Z2        0.89504   0.00000   0.00000   0.00695   0.00727   0.90231
    X3        3.88915   0.00003   0.00000   0.00087   0.00127   3.89042
    Y3        0.92997   0.00000   0.00000  -0.00108  -0.00095   0.92902
    Z3        0.27321   0.00000   0.00000   0.00138   0.00123   0.27444
    X4        1.98559  -0.00008   0.00000   0.00142   0.00122   1.98682
    Y4       -1.00257   0.00000   0.00000  -0.00154  -0.00076  -1.00332
    Z4       -0.17638   0.00001   0.00000  -0.00132  -0.00174  -0.17812
    X5        2.41805   0.00005   0.00000   0.00363   0.00296   2.42101
    Y5       -3.04400   0.00002   0.00000   0.00063   0.00103  -3.04297
    Z5       -1.04974  -0.00001   0.00000  -0.00553  -0.00529  -1.05503
    X6       -0.30978   0.00004   0.00000   0.00142   0.00128  -0.30850
    Y6       -0.18987   0.00013   0.00000  -0.00451  -0.00265  -0.19252
    Z6        0.51216  -0.00012   0.00000   0.00128  -0.00021   0.51195
    X7       -2.35079  -0.00006   0.00000   0.00084   0.00016  -2.35062
    Y7       -1.94647  -0.00044   0.00000  -0.00656  -0.00398  -1.95046
    Z7        0.09257   0.00017   0.00000   0.00339   0.00153   0.09410
    X8       -4.70185  -0.00054   0.00000   0.00048  -0.00011  -4.70196
    Y8       -0.73412  -0.00075   0.00000  -0.00083   0.00293  -0.73119
    Z8        1.12214   0.00054   0.00000   0.00448   0.00143   1.12356
    X9       -2.49137   0.00001   0.00000  -0.00048  -0.00052  -2.49189
    Y9       -2.31332   0.00002   0.00000  -0.00221  -0.00007  -2.31338
    Z9       -1.93297   0.00000   0.00000   0.00245   0.00063  -1.93234
   X10       -1.90040   0.00007   0.00000   0.00450   0.00275  -1.89765
   Y10       -3.72225  -0.00001   0.00000  -0.00612  -0.00350  -3.72575
   Z10        1.04634  -0.00004   0.00000   0.00010  -0.00115   1.04519
   X11       -4.58555   0.00005   0.00000   0.00812   0.00692  -4.57863
   Y11       -0.31447  -0.00049   0.00000  -0.00512  -0.00093  -0.31540
   Z11        3.13401   0.00012   0.00000   0.00552   0.00242   3.13643
   X12       -4.96469  -0.00092   0.00000  -0.00890  -0.00833  -4.97302
   Y12        1.21825  -0.00135   0.00000  -0.02505  -0.02142   1.19682
   Z12        0.09637   0.00078   0.00000   0.01342   0.00980   0.10616
   X13       -6.39947   0.00021   0.00000   0.00371   0.00286  -6.39661
   Y13       -1.80629  -0.00058   0.00000  -0.01046  -0.00613  -1.81242
   Z13        0.66604   0.00038   0.00000   0.01500   0.01156   0.67760
   X14       -4.35026   0.00106   0.00000  -0.00840  -0.00646  -4.35671
   Y14        3.41647   0.00352   0.00000   0.03008   0.03316   3.44962
   Z14       -1.10526  -0.00186   0.00000  -0.01993  -0.02385  -1.12911
   X15       -2.57589   0.00005   0.00000  -0.01220  -0.01045  -2.58634
   Y15        3.45905  -0.00008   0.00000   0.00848   0.01097   3.47003
   Z15       -0.62910   0.00004   0.00000  -0.00461  -0.00786  -0.63696
         Item               Value     Threshold  Converged?
 Maximum Force            0.003523     0.000450     NO 
 RMS     Force            0.000707     0.000300     NO 
 Maximum Displacement     0.033158     0.001800     NO 
 RMS     Displacement     0.008293     0.001200     NO 
 Predicted change in Energy=-2.805272D-04
 GradGradGradGradGradGradGradGradGradGradGradGradGradGradGradGradGradGrad

 1|1|UNPC-DIT|Freq|UM062X|6-311++G(d,p)|C5H7O3(2)|NDITM|26-Mar-2025|0||
 # freq 6-311++g(d,p) m062x||Title Card Required||0,2|C,2.914376,1.3115
 38,0.319146|H,3.67728,2.038621,0.473634|C,2.058049,0.492119,0.144574|C
 ,1.05073,-0.530536,-0.093337|O,1.279577,-1.610816,-0.555498|O,-0.16393
 1,-0.100476,0.271026|C,-1.243982,-1.030029,0.048985|C,-2.488112,-0.388
 479,0.59381|H,-1.318376,-1.224154,-1.022883|H,-1.005648,-1.969731,0.55
 3699|H,-2.426569,-0.16641,1.658446|H,-2.627203,0.644668,0.050995|H,-3.
 386452,-0.955845,0.352453|O,-2.302056,1.807916,-0.584876|H,-1.363102,1
 .830453,-0.332905||Version=IA32W-G09RevD.01|State=2-A|HF=-420.1997333|
 S2=0.758129|S2-1=0.|S2A=0.750035|RMSD=8.491e-009|RMSF=7.071e-004|ZeroP
 oint=0.1076022|Thermal=0.1171735|Dipole=0.1954312,0.0872978,0.6538033|
 DipoleDeriv=-0.2117918,-0.0377784,-0.0081797,-0.0544947,-0.180704,-0.0
 16656,-0.0091463,-0.0119828,-0.1407825,0.2623939,0.0286277,0.0016191,0
 .037141,0.2492618,0.0121868,0.0050124,0.0120007,0.2106295,-0.4663428,-
 0.234585,-0.055294,-0.2591006,-0.3521768,-0.0613806,-0.0519645,-0.0570
 169,-0.1156479,2.4017942,0.1722846,-0.160566,-0.1202981,1.5649963,0.47
 68295,-0.3689601,0.4417897,0.5986434,-0.8017038,-0.0223519,0.0277637,0
 .2028903,-1.0755055,-0.3104779,0.1602858,-0.2889662,-0.4673034,-2.0007
 8,0.0082135,0.1663475,-0.0273037,-0.5744785,-0.142245,0.2382161,-0.154
 6796,-0.3428343,0.8619778,0.0770028,0.0208648,0.3534111,0.1413704,0.06
 86741,0.0237741,0.133876,0.2280104,-0.0238236,-0.1681002,0.1039693,-0.
 0070017,0.7649768,-0.3580143,0.0264774,-0.33514,0.2066109,-0.0248824,-
 0.0004319,0.0342542,-0.0619665,0.0527505,0.0056524,-0.0153512,-0.03812
 45,-0.0537454,-0.0328089,0.1157054,-0.0496604,-0.0497024,-0.0021069,0.
 0319172,-0.015998,0.013391,0.0503813,0.0536224,0.0066084,-0.0328744,0.
 0286733,-0.0710944,0.0506104,0.0168873,0.0030375,-0.0705099,0.1335337,
 -0.1489048,0.0784071,0.0234394,-0.9266784,0.5094142,0.0059724,0.549409
 6,-0.1527531,-0.0319584,-0.0015082,-0.0244037,-0.0701516,-0.049598,0.0
 153026,-0.0106983,0.0359901,0.0416911,-0.342033,0.1101037,-0.0035996,0
 .0816485,0.0615513,-0.2582599,0.026636,-0.3056861,-0.2732131,0.2228027
 ,0.0951142,-0.098648,-0.0771842,0.3974355,-0.0235534,-0.0311432,0.0021
 015,0.280823|Polar=83.7886057,12.2255596,86.7918597,0.4071867,-2.28842
 57,53.3450558|PG=C01 [X(C5H7O3)]|NImag=1||0.82952151,0.73655633,0.7586
 6273,0.15905810,0.14972495,0.09266426,-0.22906881,-0.19142963,-0.04146
 950,0.21913988,-0.19117810,-0.20932836,-0.03821558,0.19176468,0.199191
 44,-0.04131698,-0.03811373,-0.03843599,0.04129575,0.03874860,0.0269133
 7,-0.60260529,-0.54212886,-0.11649521,0.00735568,0.00258451,0.00094711
 ,0.81477604,-0.54377882,-0.55140965,-0.11132328,0.00249068,0.00745093,
 -0.00044772,0.67652008,0.74788384,-0.11740040,-0.11188176,-0.05733778,
 0.00096699,-0.00040928,0.00715227,0.13910797,0.15580172,0.09840915,0.0
 0710196,0.00285475,0.00011359,0.00188203,-0.00415847,-0.00092252,-0.17
 311225,-0.10677384,-0.02524257,0.60223314,0.00166479,0.00334257,0.0000
 4788,-0.00317122,0.00234015,-0.00096689,-0.09558102,-0.15455220,-0.015
 75235,-0.01868160,0.91612255,0.00004213,0.00020979,0.00232335,-0.00050
 248,-0.00075074,0.00578403,-0.02087790,-0.01427619,-0.07532108,-0.0699
 9774,0.27844889,0.33073921,-0.00280565,-0.00272910,-0.00054738,-0.0004
 3256,0.00115835,0.00032187,0.01503823,-0.02256689,-0.00757623,-0.12734
 135,0.09490850,0.04461554,0.14023209,-0.00134537,0.00049982,0.00034236
 ,-0.00039633,0.00093853,0.00084567,-0.01600965,-0.05940761,-0.02931716
 ,0.10472909,-0.65272921,-0.24093925,-0.14346463,0.74662651,-0.00002957
 ,0.00052337,0.00050480,-0.00028044,0.00058515,-0.00075948,-0.00514197,
 -0.02823795,0.01154174,0.04829469,-0.23949722,-0.18204205,-0.07382802,
 0.30290085,0.16394599,-0.00252301,-0.00306857,-0.00062319,0.00120884,0
 .00014970,-0.00019676,-0.05919777,-0.00839606,0.00797256,-0.25618463,0
 .05017572,0.05011416,-0.02891119,0.06293321,0.03444802,0.54069303,-0.0
 0240156,-0.00259257,-0.00078163,0.00088986,-0.00058470,-0.00019581,-0.
 02836976,0.00910593,0.00355613,0.02360597,-0.12516453,-0.02590377,0.06
 463313,-0.03285523,-0.03559002,0.01350213,0.32636840,-0.00055942,-0.00
 080597,0.00020306,0.00010021,-0.00011469,-0.00045864,-0.00000377,0.000
 54353,0.01178537,0.03971423,-0.02974059,-0.08639081,0.03472557,-0.0351
 6051,0.01138688,-0.06118247,0.09643526,0.13032475,0.00077553,0.0006609
 8,0.00009751,-0.00019805,-0.00030709,-0.00010972,0.00018275,0.00220435
 ,0.00162153,-0.06252247,-0.01354661,0.00467412,0.00591261,-0.01304769,
 -0.00659564,-0.12163265,-0.03873191,-0.00983619,0.47967484,0.00088701,
 0.00138662,0.00034868,-0.00023385,-0.00010771,0.00014490,0.00525645,0.
 00140664,-0.00257884,-0.01313768,0.02022011,0.00937280,0.00841726,-0.0
 0975329,-0.00268290,-0.06125410,-0.14629621,-0.02404034,-0.06514846,0.
 54245136,0.00018930,0.00039044,0.00004245,-0.00012782,0.00017627,-0.00
 023720,0.00308697,-0.00232027,0.00465483,0.00647626,0.00915577,0.00389
 476,0.00200941,0.00084108,-0.00578798,-0.02093205,-0.02774207,-0.07798
 948,-0.00199581,-0.01422219,0.61224539,-0.00009853,-0.00014467,-0.0000
 2951,0.00005804,-0.00004863,-0.00002254,-0.00120342,0.00033186,0.00026
 611,-0.00144816,-0.00537106,-0.00166394,0.00090552,0.00179417,0.000648
 09,-0.04544100,0.00702564,0.01044711,-0.17421069,0.05540643,0.04390757
 ,0.54683058,-0.00050103,-0.00081451,-0.00012486,0.00006467,0.00010171,
 -0.00002961,-0.00219064,0.00009402,0.00026032,0.00224664,-0.00649540,-
 0.00294147,0.00011034,0.00253338,0.00079639,-0.03524721,0.00644267,0.0
 1191503,0.07102063,-0.09811342,-0.03667185,0.05717828,0.39383493,0.000
 01632,0.00002654,0.00000614,0.00003120,-0.00004488,-0.00000161,-0.0002
 8545,0.00026016,0.00003487,-0.00118824,-0.00269547,-0.00075012,0.00080
 632,0.00098069,0.00109357,-0.00750104,0.00416757,0.00381537,0.04993089
 ,-0.03685383,-0.10483239,0.01227761,0.08656875,0.53799763,-0.00008215,
 -0.00005959,-0.00001544,0.00003444,0.00003950,-0.00006298,-0.00028622,
 -0.00041092,0.00105568,0.00472201,-0.00559343,-0.00474753,-0.00050642,
 0.00315522,0.00119149,-0.01684755,-0.01205697,-0.02828684,-0.04924352,
 -0.00090513,-0.00911854,0.00310692,0.00437538,0.02946680,0.06145234,-0
 .00008777,-0.00011003,-0.00000339,0.00001621,0.00003894,-0.00002385,-0
 .00032682,-0.00043167,0.00048277,0.00346639,-0.00062641,-0.00131668,-0
 .00105451,0.00080169,0.00034776,-0.01389997,-0.01084544,-0.02540719,-0
 .00076033,-0.05628697,-0.03409889,0.00031626,-0.00285278,-0.01394281,0
 .00867826,0.06276137,0.00007042,0.00005929,0.00007358,0.00001424,-0.00
 001689,0.00001202,-0.00042151,0.00016858,-0.00044341,0.00255938,-0.001
 75756,-0.00045782,0.00053101,0.00120493,0.00073728,-0.00642368,-0.0046
 7168,0.00143794,-0.01640574,-0.03973966,-0.31275174,0.00057441,-0.0007
 0972,-0.00852747,0.01753866,0.04826407,0.33227901,-0.00010619,-0.00009
 464,-0.00002408,0.00004972,-0.00000380,0.00006870,-0.00052122,0.000384
 22,-0.00094830,0.00459637,-0.00578838,-0.00159104,-0.00117129,0.002588
 15,0.00148409,-0.00704841,-0.03263496,0.01425773,-0.06225029,0.0609057
 8,-0.03505025,-0.00533747,0.02140821,-0.01161055,0.00100188,0.00238856
 ,0.00018748,0.07318910,-0.00006394,-0.00000495,-0.00004903,0.00003399,
 0.00000805,0.00001205,-0.00057197,-0.00015436,-0.00004278,0.00501417,-
 0.00247285,-0.00163589,0.00012616,0.00223039,0.00042334,-0.01032868,-0
 .02598784,0.00754558,0.04956610,-0.23481707,0.10696352,0.00582582,-0.0
 1008240,0.00504091,0.00034180,0.00605165,-0.00222113,-0.05097052,0.263
 18966,-0.00005890,-0.00007469,0.00002220,-0.00000472,0.00000964,0.0000
 1657,0.00003762,-0.00003763,-0.00044495,-0.00080880,0.00224732,0.00175
 346,-0.00084507,-0.00139425,-0.00049580,0.00254837,-0.00889227,0.00540
 083,-0.02887236,0.10794600,-0.11422398,0.00266857,-0.01008748,0.005825
 11,-0.00740549,0.02695659,-0.01381165,0.03195608,-0.11459448,0.1143003
 5,-0.00000084,-0.00001981,-0.00003371,-0.00001186,-0.00000159,0.000010
 57,0.00005152,-0.00000251,0.00001022,-0.00064861,0.00100072,0.00040961
 ,-0.00026972,-0.00066614,-0.00038084,0.00316650,-0.00011738,-0.0010257
 5,0.00243988,0.00491645,0.03000599,-0.05126056,-0.00550119,-0.01957947
 ,-0.00456453,0.00219518,0.00144799,0.00092221,-0.00037312,-0.00064605,
 0.05016790,0.00008580,0.00009139,0.00002601,-0.00001219,-0.00002193,0.
 00000443,0.00014294,0.00011819,-0.00009620,-0.00073251,-0.00015870,0.0
 0016134,0.00041626,-0.00002671,0.00006293,0.00046701,0.00088169,0.0009
 1182,-0.00255563,-0.00428020,-0.01725947,-0.00468101,-0.04450343,-0.05
 321705,0.00321194,-0.00009201,-0.00031885,-0.00069678,0.00047035,0.000
 01933,0.00185711,0.05170410,0.00001101,0.00001676,0.00002000,0.0000011
 8,0.00000027,-0.00000657,0.00001396,0.00000131,-0.00002358,0.00037242,
 -0.00021952,-0.00010315,-0.00008880,0.00032140,0.00016494,-0.00034204,
 0.00040144,0.00092653,-0.00182494,-0.00131916,-0.00926317,-0.01672223,
 -0.05963803,-0.31359781,0.00140779,-0.00106233,0.00101752,0.00031306,-
 0.00011446,0.00064682,0.01718978,0.06168168,0.33449585,0.00009991,0.00
 009700,0.00000246,-0.00002504,-0.00002983,0.00000522,0.00025651,0.0001
 0018,0.00003492,-0.00164144,0.00064935,0.00058499,0.00023872,-0.000752
 14,-0.00028459,0.00327139,0.00052664,-0.00068037,-0.00594461,0.0179139
 0,-0.00851583,-0.03989891,0.03378967,-0.01648668,0.00065907,-0.0004324
 0,-0.00007737,-0.00249640,0.00169946,0.00130323,-0.00075362,-0.0006451
 4,-0.00058591,0.05753702,0.00034732,0.00053727,-0.00000984,0.00000425,
 -0.00013435,0.00004284,0.00077425,0.00035974,0.00008478,-0.00279378,-0
 .00103109,0.00036466,0.00148496,0.00085571,-0.00028740,0.00139590,0.00
 437323,-0.00218906,0.00135622,-0.03009580,0.01256103,-0.00201023,-0.03
 659588,0.00653443,0.00025373,0.00080908,-0.00004393,0.00435613,0.00221
 855,-0.00364161,-0.00047751,-0.00814847,0.00027434,-0.03111730,0.02018
 451,-0.00017160,-0.00027736,-0.00005169,-0.00000977,0.00007002,-0.0000
 0377,-0.00041383,-0.00021279,0.00007293,0.00145594,0.00032333,-0.00035
 335,-0.00053614,-0.00034305,0.00000699,-0.00206015,-0.00153786,0.00089
 642,0.00182752,0.00054576,0.00049022,0.00213587,0.00241099,-0.03853475
 ,-0.00028984,-0.00085934,0.00017037,0.00043219,-0.00160786,0.00132787,
 -0.00270278,0.02649348,-0.01275029,0.01592818,0.01165339,0.03353507,-0
 .00012010,-0.00015789,-0.00003291,0.00003196,0.00001695,-0.00000051,-0
 .00055969,0.00003365,0.00007363,0.00119697,-0.00196770,-0.00085699,-0.
 00017813,0.00082686,0.00036139,-0.00686333,0.00287490,0.00275863,-0.01
 452790,-0.01681293,-0.00802894,-0.23720028,-0.12005590,-0.04849509,0.0
 0067650,-0.00005125,0.00050703,0.00024698,0.00044385,-0.00029542,0.000
 95073,0.00038825,0.00077613,0.00217430,0.00438805,-0.00156742,0.254445
 00,0.00007781,0.00013773,0.00005007,-0.00000666,-0.00000528,-0.0000005
 0,0.00039863,-0.00009001,-0.00011418,0.00016865,0.00128418,0.00027560,
 -0.00009164,-0.00021932,-0.00003353,0.00466112,-0.00048789,-0.00170988
 ,0.01049511,0.00866523,0.00498249,-0.12652445,-0.11576651,-0.04206090,
 -0.00058027,0.00046681,-0.00009698,-0.00070585,-0.00011824,0.00049136,
 -0.00280640,-0.00217892,0.00072419,-0.01922356,-0.01937533,-0.00048692
 ,0.13172960,0.12316868,0.00002785,0.00006311,-0.00000068,-0.00001043,0
 .00000587,0.00000538,0.00023252,-0.00008720,-0.00005483,0.00035185,0.0
 0080725,0.00065133,-0.00014948,-0.00025337,-0.00019653,0.00411375,-0.0
 0106510,0.00002327,0.00732838,0.00763929,0.00185849,-0.04845992,-0.039
 78490,-0.05936107,-0.00058562,0.00047218,0.00013541,-0.00009874,-0.000
 17143,0.00020556,-0.02502706,-0.01576136,-0.00270361,0.00988662,0.0117
 4691,-0.00141172,0.05341394,0.04017325,0.05907018,-0.00011124,-0.00000
 550,-0.00003182,0.00006578,0.00004439,0.00001913,-0.00015683,-0.000161
 88,-0.00004826,0.00238878,-0.00054788,-0.00050295,-0.00062296,0.000663
 01,0.00043356,-0.00138385,0.00205820,-0.00076313,-0.00151253,0.0017130
 9,-0.00104504,0.00278932,-0.01991814,0.00937150,0.00007321,-0.00024325
 ,-0.00009665,-0.00016243,-0.00020791,0.00026330,-0.00011784,0.00159765
 ,-0.00033887,-0.01082217,0.01356532,-0.00804549,0.00022488,0.00115766,
 -0.00040409,0.48747056,-0.00000106,-0.00002371,0.00003091,-0.00001174,
 -0.00002221,-0.00002696,-0.00008748,0.00006121,0.00002744,-0.00174018,
 0.00031302,0.00031493,0.00022769,-0.00068133,-0.00026364,0.00214204,-0
 .00362548,0.00195956,-0.00035586,0.00818769,-0.00270199,0.01356978,-0.
 08677675,0.04585505,-0.00055471,0.00040047,-0.00003212,-0.00095407,-0.
 00071820,0.00115266,0.00004273,0.00546791,-0.00087792,0.00896800,0.066
 42750,-0.03448377,-0.00231159,0.00463534,-0.00401760,0.00326110,0.0243
 0669,0.00007732,0.00015581,0.00008373,0.00001953,-0.00004396,-0.000038
 63,0.00017903,0.00010746,0.00002523,-0.00037305,-0.00018952,-0.0004734
 0,0.00012948,0.00048462,0.00027076,-0.00010035,0.00131912,0.00046031,0
 .00001062,-0.00462911,0.00077095,-0.00761809,0.04901748,-0.02399938,-0
 .00014898,0.00064014,0.00033991,0.00061772,0.00055281,-0.00035186,0.00
 007074,-0.00315099,0.00168597,-0.00726073,-0.04030323,0.01494730,0.001
 65170,-0.00217697,0.00230201,0.13380950,-0.01024611,0.04727945,0.00002
 289,-0.00033078,0.00003111,-0.00009004,-0.00003057,-0.00003635,-0.0000
 1803,0.00002589,0.00010616,-0.00122234,0.00184982,0.00030000,-0.000087
 90,-0.00100777,-0.00032025,-0.00230639,-0.00080393,0.00033446,0.003057
 12,0.00207580,-0.00086121,0.00240864,-0.00677973,0.00324588,-0.0001959
 7,-0.00020455,-0.00000566,-0.00091256,-0.00053522,0.00015963,-0.000071
 15,0.00115630,-0.00018253,-0.00265472,0.00847270,-0.00598267,-0.000497
 88,0.00125023,-0.00061956,-0.47812267,-0.02219467,-0.12106442,0.480691
 01,-0.00026142,-0.00037435,-0.00006324,-0.00000273,0.00013479,0.000006
 60,-0.00041065,-0.00043498,-0.00002062,0.00593238,-0.00039218,-0.00138
 402,-0.00157588,0.00118668,0.00095288,-0.00323224,0.00126798,-0.000142
 55,-0.00084981,-0.00256697,-0.00005388,-0.00266819,-0.00100562,-0.0006
 1916,0.00010520,-0.00008471,-0.00008833,-0.00018206,0.00018725,-0.0001
 0048,-0.00004654,0.00067674,-0.00018998,-0.01154384,-0.00038467,-0.001
 68803,0.00065516,-0.00011648,0.00023310,-0.00297587,-0.01795215,0.0084
 6245,0.01705649,0.01985868,0.00004444,-0.00001654,-0.00011743,-0.00002
 391,0.00000020,0.00005825,0.00003446,0.00006027,-0.00005078,-0.0008054
 4,-0.00021131,0.00074564,0.00043192,-0.00051400,-0.00037111,0.00016487
 ,0.00050069,-0.00182180,0.00014983,0.00006860,0.00112886,0.00159091,-0
 .00098104,0.00083190,0.00000083,-0.00044902,-0.00021095,0.00000591,-0.
 00010116,-0.00017051,0.00025075,0.00044289,-0.00050945,0.00614587,0.00
 321268,0.00165840,-0.00026517,-0.00001709,-0.00052318,-0.13262071,0.00
 330957,-0.04330235,0.12489542,-0.00530474,0.04265449||-0.00001882,-0.0
 0001166,-0.00000105,-0.00000862,0.00001431,-0.00000189,-0.00002895,-0.
 00000415,0.00000472,0.00008437,-0.00000349,-0.00000982,-0.00005027,-0.
 00002352,0.00001254,-0.00004305,-0.00013009,0.00011565,0.00006384,0.00
 044447,-0.00016662,0.00053684,0.00075464,-0.00053874,-0.00001217,-0.00
 001798,0.00000396,-0.00007087,0.00000784,0.00003597,-0.00005239,0.0004
 9044,-0.00012237,0.00092048,0.00134789,-0.00077791,-0.00021124,0.00057
 761,-0.00038147,-0.00105922,-0.00352306,0.00186491,-0.00004992,0.00007
 674,-0.00003787|||@


 FORGIVE MY NONSENSE AS I ALSO FORGIVE THOSE WHO THINK THEY TALK SENSE

                                                       -- ROBERT FROST
 Job cpu time:       0 days  0 hours 24 minutes 25.0 seconds.
 File lengths (MBytes):  RWF=    151 Int=      0 D2E=      0 Chk=      9 Scr=      1
 Normal termination of Gaussian 09 at Wed Mar 26 22:07:30 2025.
