 Entering Gaussian System, Link 0=g16
 Initial command:
 /opt/g16/l1.exe "/home/aayush/scratches/g16/Gau-5035.inp" -scrdir="/home/aayush/scratches/g16/"
 Entering Link 1 = /opt/g16/l1.exe PID=      5038.
  
 Copyright (c) 1988,1990,1992,1993,1995,1998,2003,2009,2016,
            Gaussian, Inc.  All Rights Reserved.
  
 This is part of the Gaussian(R) 16 program.  It is based on
 the Gaussian(R) 09 system (copyright 2009, Gaussian, Inc.),
 the Gaussian(R) 03 system (copyright 2003, Gaussian, Inc.),
 the Gaussian(R) 98 system (copyright 1998, Gaussian, Inc.),
 the Gaussian(R) 94 system (copyright 1995, Gaussian, Inc.),
 the Gaussian 92(TM) system (copyright 1992, Gaussian, Inc.),
 the Gaussian 90(TM) system (copyright 1990, Gaussian, Inc.),
 the Gaussian 88(TM) system (copyright 1988, Gaussian, Inc.),
 the Gaussian 86(TM) system (copyright 1986, Carnegie Mellon
 University), and the Gaussian 82(TM) system (copyright 1983,
 Carnegie Mellon University). Gaussian is a federally registered
 trademark of Gaussian, Inc.
  
 This software contains proprietary and confidential information,
 including trade secrets, belonging to Gaussian, Inc.
  
 This software is provided under written license and may be
 used, copied, transmitted, or stored only in accord with that
 written license.
  
 The following legend is applicable only to US Government
 contracts under FAR:
  
                    RESTRICTED RIGHTS LEGEND
  
 Use, reproduction and disclosure by the US Government is
 subject to restrictions as set forth in subparagraphs (a)
 and (c) of the Commercial Computer Software - Restricted
 Rights clause in FAR 52.227-19.
  
 Gaussian, Inc.
 340 Quinnipiac St., Bldg. 40, Wallingford CT 06492
  
  
 ---------------------------------------------------------------
 Warning -- This program may not be used in any manner that
 competes with the business of Gaussian, Inc. or will provide
 assistance to any competitor of Gaussian, Inc.  The licensee
 of this program is prohibited from giving any competitor of
 Gaussian, Inc. access to this program.  By using this program,
 the user acknowledges that Gaussian, Inc. is engaged in the
 business of creating and licensing software in the field of
 computational chemistry and represents and warrants to the
 licensee that it is not a competitor of Gaussian, Inc. and that
 it will not use this program in any manner prohibited above.
 ---------------------------------------------------------------
  

 Cite this work as:
 Gaussian 16, Revision A.03,
 M. J. Frisch, G. W. Trucks, H. B. Schlegel, G. E. Scuseria, 
 M. A. Robb, J. R. Cheeseman, G. Scalmani, V. Barone, 
 G. A. Petersson, H. Nakatsuji, X. Li, M. Caricato, A. V. Marenich, 
 J. Bloino, B. G. Janesko, R. Gomperts, B. Mennucci, H. P. Hratchian, 
 J. V. Ortiz, A. F. Izmaylov, J. L. Sonnenberg, D. Williams-Young, 
 F. Ding, F. Lipparini, F. Egidi, J. Goings, B. Peng, A. Petrone, 
 T. Henderson, D. Ranasinghe, V. G. Zakrzewski, J. Gao, N. Rega, 
 G. Zheng, W. Liang, M. Hada, M. Ehara, K. Toyota, R. Fukuda, 
 J. Hasegawa, M. Ishida, T. Nakajima, Y. Honda, O. Kitao, H. Nakai, 
 T. Vreven, K. Throssell, J. A. Montgomery, Jr., J. E. Peralta, 
 F. Ogliaro, M. J. Bearpark, J. J. Heyd, E. N. Brothers, K. N. Kudin, 
 V. N. Staroverov, T. A. Keith, R. Kobayashi, J. Normand, 
 K. Raghavachari, A. P. Rendell, J. C. Burant, S. S. Iyengar, 
 J. Tomasi, M. Cossi, J. M. Millam, M. Klene, C. Adamo, R. Cammi, 
 J. W. Ochterski, R. L. Martin, K. Morokuma, O. Farkas, 
 J. B. Foresman, and D. J. Fox, Gaussian, Inc., Wallingford CT, 2016.
 
 ******************************************
 Gaussian 16:  ES64L-G16RevA.03 25-Dec-2016
                21-Apr-2025 
 ******************************************
 %chk=ethyl_propiolate.chk
 %nprocshared=24
 Will use up to   24 processors via shared memory.
 %mem=12GB
 --------------------------
 # ccsd(t)/6-311++g(d,p) sp
 --------------------------
 1/38=1,172=1/1;
 2/12=2,17=6,18=5,40=1/2;
 3/5=4,6=6,7=1111,11=9,25=1,30=1/1,2,3;
 4//1;
 5/5=2,38=5/2;
 8/6=4,9=120000,10=2/1,4;
 9/5=7,14=2/13;
 6/7=2,8=2,9=2,10=2/1;
 99/5=1,9=1/99;
 -------------------
 Title Card Required
 -------------------
 Symbolic Z-matrix:
 Charge =  0 Multiplicity = 2
 C                     2.91434   1.31148   0.31915 
 H                     3.67726   2.03858   0.47361 
 C                     2.05799   0.49209   0.14458 
 C                     1.05092  -0.53055  -0.09337 
 O                     1.27948  -1.61086  -0.5555 
 O                    -0.16399  -0.10069   0.27121 
 C                    -1.24391  -1.0289    0.04854 
 C                    -2.48682  -0.389     0.59366 
 H                    -1.31879  -1.22449  -1.02302 
 H                    -1.00775  -1.96965   0.5545 
 H                    -2.42777  -0.15243   1.65492 
 H                    -2.60346   0.708     0.01695 
 H                    -3.39166  -0.94028   0.34261 
 O                    -2.30378   1.80179  -0.58156 
 H                    -1.36542   1.83306  -0.33429 
 
                          Input orientation:                          
 ---------------------------------------------------------------------
 Center     Atomic      Atomic             Coordinates (Angstroms)
 Number     Number       Type             X           Y           Z
 ---------------------------------------------------------------------
      1          6           0        2.914343    1.311480    0.319150
      2          1           0        3.677260    2.038580    0.473605
      3          6           0        2.057991    0.492094    0.144582
      4          6           0        1.050918   -0.530548   -0.093371
      5          8           0        1.279481   -1.610863   -0.555500
      6          8           0       -0.163985   -0.100685    0.271214
      7          6           0       -1.243913   -1.028896    0.048542
      8          6           0       -2.486822   -0.388995    0.593655
      9          1           0       -1.318788   -1.224493   -1.023019
     10          1           0       -1.007745   -1.969653    0.554501
     11          1           0       -2.427769   -0.152427    1.654923
     12          1           0       -2.603463    0.708000    0.016946
     13          1           0       -3.391655   -0.940276    0.342607
     14          8           0       -2.303784    1.801788   -0.581564
     15          1           0       -1.365424    1.833064   -0.334288
 ---------------------------------------------------------------------
                    Distance matrix (angstroms):
                    1          2          3          4          5
     1  C    0.000000
     2  H    1.065163   0.000000
     3  C    1.198001   2.263163   0.000000
     4  C    2.652469   3.717466   1.454859   0.000000
     5  O    3.460907   4.486294   2.349174   1.197032   0.000000
     6  O    3.387124   4.401429   2.303172   1.339289   2.246706
     7  C    4.779297   5.814467   3.636647   2.352603   2.659148
     8  C    5.669176   6.625967   4.651162   3.606611   4.122931
     9  H    5.113900   6.152075   3.963912   2.638430   2.668119
    10  H    5.118984   6.166178   3.953096   2.594004   2.567535
    11  H    5.697848   6.592981   4.776880   3.911620   4.555953
    12  H    5.558930   6.436339   4.668197   3.860139   4.558736
    13  H    6.696011   7.672047   5.638221   4.482679   4.803727
    14  O    5.317945   6.078021   4.611688   4.114869   4.948399
    15  H    4.360669   5.111124   3.707733   3.388718   4.347998
                    6          7          8          9         10
     6  O    0.000000
     7  C    1.441320   0.000000
     8  C    2.362766   1.500481   0.000000
     9  H    2.066774   1.091837   2.162405   0.000000
    10  H    2.070078   1.093981   2.165105   1.772168   0.000000
    11  H    2.653685   2.179489   1.088918   3.090394   2.555329
    12  H    2.582572   2.205942   1.244828   2.542921   3.163085
    13  H    3.335845   2.169591   1.088880   2.498498   2.605291
    14  O    2.987536   3.087577   2.492824   3.213017   4.146580
    15  H    2.355732   2.890007   2.656343   3.134514   3.921548
                   11         12         13         14         15
    11  H    0.000000
    12  H    1.858540   0.000000
    13  H    1.808855   1.855833   0.000000
    14  O    2.972575   1.282339   3.091354   0.000000
    15  H    3.004615   1.709349   3.500745   0.970898   0.000000
 Stoichiometry    C5H7O3(2)
 Framework group  C1[X(C5H7O3)]
 Deg. of freedom    39
 Full point group                 C1      NOp   1
 Largest Abelian subgroup         C1      NOp   1
 Largest concise Abelian subgroup C1      NOp   1
                         Standard orientation:                         
 ---------------------------------------------------------------------
 Center     Atomic      Atomic             Coordinates (Angstroms)
 Number     Number       Type             X           Y           Z
 ---------------------------------------------------------------------
      1          6           0        2.982208    1.311353    0.303631
      2          1           0        3.744676    2.039093    0.457290
      3          6           0        2.126363    0.491247    0.129959
      4          6           0        1.119917   -0.532268   -0.106892
      5          8           0        1.349088   -1.612809   -0.568191
      6          8           0       -0.095180   -0.102923    0.257654
      7          6           0       -1.174541   -1.032043    0.036026
      8          6           0       -2.417739   -0.392531    0.580934
      9          1           0       -1.249561   -1.228572   -1.035355
     10          1           0       -0.937609   -1.972225    0.542697
     11          1           0       -2.358571   -0.155050    1.641991
     12          1           0       -2.535268    0.703911    0.003353
     13          1           0       -3.322266   -0.944627    0.330574
     14          8           0       -2.236480    1.797407   -0.596135
     15          1           0       -1.298078    1.829518   -0.349127
 ---------------------------------------------------------------------
 Rotational constants (GHZ):           2.9559919           1.1610402           0.8986173
 Standard basis: 6-311++G(d,p) (5D, 7F)
 There are   233 symmetry adapted cartesian basis functions of A   symmetry.
 There are   225 symmetry adapted basis functions of A   symmetry.
   225 basis functions,   351 primitive gaussians,   233 cartesian basis functions
    31 alpha electrons       30 beta electrons
       nuclear repulsion energy       348.2196745226 Hartrees.
 NAtoms=   15 NActive=   15 NUniq=   15 SFac= 1.00D+00 NAtFMM=   60 NAOKFM=F Big=F
 Integral buffers will be    131072 words long.
 Raffenetti 2 integral format.
 Two-electron integral symmetry is turned on.
 One-electron integrals computed using PRISM.
 NBasis=   225 RedAO= T EigKep=  6.74D-06  NBF=   225
 NBsUse=   224 1.00D-06 EigRej=  7.97D-07 NBFU=   224
 ExpMin= 3.60D-02 ExpMax= 8.59D+03 ExpMxC= 1.30D+03 IAcc=3 IRadAn=         5 AccDes= 0.00D+00
 Harris functional with IExCor=  205 and IRadAn=       5 diagonalized for initial guess.
 HarFok:  IExCor=  205 AccDes= 0.00D+00 IRadAn=         5 IDoV= 1 UseB2=F ITyADJ=14
 ICtDFT=  3500011 ScaDFX=  1.000000  1.000000  1.000000  1.000000
 FoFCou: FMM=F IPFlag=           0 FMFlag=      100000 FMFlg1=           0
         NFxFlg=           0 DoJE=T BraDBF=F KetDBF=T FulRan=T
         wScrn=  0.000000 ICntrl=       500 IOpCl=  0 I1Cent=   200000004 NGrid=           0
         NMat0=    1 NMatS0=      1 NMatT0=    0 NMatD0=    1 NMtDS0=    0 NMtDT0=    0
 Petite list used in FoFCou.
 Initial guess <Sx>= 0.0000 <Sy>= 0.0000 <Sz>= 0.5000 <S**2>= 0.7500 S= 0.5000
 Requested convergence on RMS density matrix=1.00D-08 within 128 cycles.
 Requested convergence on MAX density matrix=1.00D-06.
 Requested convergence on             energy=1.00D-06.
 No special actions if energy rises.
 Initial convergence to 1.0D-05 achieved.  Increase integral accuracy.
 SCF Done:  E(UHF) =  -417.962764501     A.U. after   31 cycles
            NFock= 31  Conv=0.24D-08     -V/T= 2.0008
 <Sx>= 0.0000 <Sy>= 0.0000 <Sz>= 0.5000 <S**2>= 0.7889 S= 0.5193
 <L.S>=  0.00000000000    
 Annihilation of the first spin contaminant:
 S**2 before annihilation     0.7889,   after     0.7505
 ExpMin= 3.60D-02 ExpMax= 8.59D+03 ExpMxC= 1.30D+03 IAcc=3 IRadAn=         5 AccDes= 0.00D+00
 HarFok:  IExCor=  205 AccDes= 0.00D+00 IRadAn=         5 IDoV=-2 UseB2=F ITyADJ=14
 ICtDFT= 12500011 ScaDFX=  1.000000  1.000000  1.000000  1.000000
 Range of M.O.s used for correlation:     9   224
 NBasis=   225 NAE=    31 NBE=    30 NFC=     8 NFV=     0
 NROrb=    216 NOA=    23 NOB=    22 NVA=   193 NVB=   194

 **** Warning!!: The largest alpha MO coefficient is  0.17128215D+03


 **** Warning!!: The largest beta MO coefficient is  0.18074240D+03

 Semi-Direct transformation.
 ModeAB=           4 MOrb=            23 LenV=    1609186409
 LASXX=    107793295 LTotXX=   107793295 LenRXX=   218294035
 LTotAB=   110500740 MaxLAS=   126117648 LenRXY=           0
 NonZer=   326087330 LenScr=   491049984 LnRSAI=   126117648
 LnScr1=   189944832 LExtra=           0 Total=   1025406499
 MaxDsk=          -1 SrtSym=           T ITran=            4
 JobTyp=1 Pass  1:  I=   1 to  23.
 (rs|ai) integrals will be sorted in core.
 ModeAB=           4 MOrb=            22 LenV=    1609186409
 LASXX=    103454307 LTotXX=   103454307 LenRXX=   188091948
 LTotAB=    84637641 MaxLAS=   120634272 LenRXY=           0
 NonZer=   291546255 LenScr=   439034880 LnRSAI=   120634272
 LnScr1=   181687808 LExtra=           0 Total=    929448908
 MaxDsk=          -1 SrtSym=           T ITran=            4
 JobTyp=2 Pass  1:  I=   1 to  22.
 (rs|ai) integrals will be sorted in core.
 SymMOI:  orbitals are not symmetric.
 Spin components of T(2) and E(2):
     alpha-alpha T2 =       0.5346679186D-01 E2=     -0.1724453838D+00
     alpha-beta  T2 =       0.2942048325D+00 E2=     -0.9500459869D+00
     beta-beta   T2 =       0.5265751069D-01 E2=     -0.1615051095D+00
 ANorm=    0.1183355033D+01
 E2 =    -0.1283996480D+01 EUMP2 =    -0.41924676098112D+03
 (S**2,0)=  0.78889D+00           (S**2,1)=  0.76371D+00
 E(PUHF)=      -0.41797178103D+03        E(PMP2)=      -0.41925288088D+03
 Keep R2 and R3 ints in memory in canonical form, NReq=652883968.
 CIDS: In Core Option IDoMem=           1.
 Iterations=  50 Convergence= 0.100D-06
 Produce multiple copies of IABC intergrals
 Iteration Nr.   1
 **********************
 DD1Dir will call FoFMem   1 times, MxPair=      1496
 NAB=   506 NAA=   253 NBB=   231.
 E(PMP3)=      -0.41927193325D+03
 MP4(R+Q)=  0.25828856D-01
 E3=       -0.21650734D-01        EUMP3=      -0.41926841172D+03
 E4(DQ)=   -0.59767183D-02        UMP4(DQ)=   -0.41927438843D+03
 E4(SDQ)=  -0.26214879D-01        UMP4(SDQ)=  -0.41929462659D+03
 DE(Corr)=  -1.2791729     E(Corr)=     -419.24193742    
 NORM(A)=   0.11882656D+01
 Iteration Nr.   2
 **********************
 DD1Dir will call FoFMem   1 times, MxPair=      1496
 NAB=   506 NAA=   253 NBB=   231.
 DE(Corr)=  -1.3229952     E(CORR)=     -419.28575966     Delta=-4.38D-02
 NORM(A)=   0.12070830D+01
 Iteration Nr.   3
 **********************
 DD1Dir will call FoFMem   1 times, MxPair=      1496
 NAB=   506 NAA=   253 NBB=   231.
 DE(Corr)=  -1.3247543     E(CORR)=     -419.28751875     Delta=-1.76D-03
 NORM(A)=   0.12138724D+01
 Iteration Nr.   4
 **********************
 DD1Dir will call FoFMem   1 times, MxPair=      1496
 NAB=   506 NAA=   253 NBB=   231.
 DE(Corr)=  -1.3300105     E(CORR)=     -419.29277498     Delta=-5.26D-03
 NORM(A)=   0.12166354D+01
 Iteration Nr.   5
 **********************
 DD1Dir will call FoFMem   1 times, MxPair=      1496
 NAB=   506 NAA=   253 NBB=   231.
 DE(Corr)=  -1.3309139     E(CORR)=     -419.29367838     Delta=-9.03D-04
 NORM(A)=   0.12180211D+01
 Iteration Nr.   6
 **********************
 DD1Dir will call FoFMem   1 times, MxPair=      1496
 NAB=   506 NAA=   253 NBB=   231.
 DE(Corr)=  -1.3311536     E(CORR)=     -419.29391815     Delta=-2.40D-04
 NORM(A)=   0.12183326D+01
 Iteration Nr.   7
 **********************
 DD1Dir will call FoFMem   1 times, MxPair=      1496
 NAB=   506 NAA=   253 NBB=   231.
 DE(Corr)=  -1.3312053     E(CORR)=     -419.29396975     Delta=-5.16D-05
 NORM(A)=   0.12184218D+01
 Iteration Nr.   8
 **********************
 DD1Dir will call FoFMem   1 times, MxPair=      1496
 NAB=   506 NAA=   253 NBB=   231.
 DE(Corr)=  -1.3311929     E(CORR)=     -419.29395744     Delta= 1.23D-05
 NORM(A)=   0.12184670D+01
 Iteration Nr.   9
 **********************
 DD1Dir will call FoFMem   1 times, MxPair=      1496
 NAB=   506 NAA=   253 NBB=   231.
 DE(Corr)=  -1.3312041     E(CORR)=     -419.29396865     Delta=-1.12D-05
 NORM(A)=   0.12184787D+01
 Iteration Nr.  10
 **********************
 DD1Dir will call FoFMem   1 times, MxPair=      1496
 NAB=   506 NAA=   253 NBB=   231.
 DE(Corr)=  -1.3312073     E(CORR)=     -419.29397182     Delta=-3.17D-06
 NORM(A)=   0.12184889D+01
 Iteration Nr.  11
 **********************
 DD1Dir will call FoFMem   1 times, MxPair=      1496
 NAB=   506 NAA=   253 NBB=   231.
 DE(Corr)=  -1.3312143     E(CORR)=     -419.29397879     Delta=-6.98D-06
 NORM(A)=   0.12184982D+01
 Iteration Nr.  12
 **********************
 DD1Dir will call FoFMem   1 times, MxPair=      1496
 NAB=   506 NAA=   253 NBB=   231.
 DE(Corr)=  -1.3312173     E(CORR)=     -419.29398176     Delta=-2.97D-06
 NORM(A)=   0.12185044D+01
 Iteration Nr.  13
 **********************
 DD1Dir will call FoFMem   1 times, MxPair=      1496
 NAB=   506 NAA=   253 NBB=   231.
 DE(Corr)=  -1.3312191     E(CORR)=     -419.29398356     Delta=-1.80D-06
 NORM(A)=   0.12185084D+01
 Iteration Nr.  14
 **********************
 DD1Dir will call FoFMem   1 times, MxPair=      1496
 NAB=   506 NAA=   253 NBB=   231.
 DE(Corr)=  -1.3312202     E(CORR)=     -419.29398465     Delta=-1.10D-06
 NORM(A)=   0.12185108D+01
 Iteration Nr.  15
 **********************
 DD1Dir will call FoFMem   1 times, MxPair=      1496
 NAB=   506 NAA=   253 NBB=   231.
 DE(Corr)=  -1.3312203     E(CORR)=     -419.29398483     Delta=-1.78D-07
 NORM(A)=   0.12185125D+01
 Iteration Nr.  16
 **********************
 DD1Dir will call FoFMem   1 times, MxPair=      1496
 NAB=   506 NAA=   253 NBB=   231.
 DE(Corr)=  -1.3312207     E(CORR)=     -419.29398523     Delta=-4.02D-07
 NORM(A)=   0.12185137D+01
 Iteration Nr.  17
 **********************
 DD1Dir will call FoFMem   1 times, MxPair=      1496
 NAB=   506 NAA=   253 NBB=   231.
 DE(Corr)=  -1.3312209     E(CORR)=     -419.29398537     Delta=-1.34D-07
 NORM(A)=   0.12185143D+01
 Iteration Nr.  18
 **********************
 DD1Dir will call FoFMem   1 times, MxPair=      1496
 NAB=   506 NAA=   253 NBB=   231.
 DE(Corr)=  -1.3312210     E(CORR)=     -419.29398549     Delta=-1.24D-07
 NORM(A)=   0.12185144D+01
 Iteration Nr.  19
 **********************
 DD1Dir will call FoFMem   1 times, MxPair=      1496
 NAB=   506 NAA=   253 NBB=   231.
 DE(Corr)=  -1.3312210     E(CORR)=     -419.29398554     Delta=-5.19D-08
 NORM(A)=   0.12185143D+01
 Wavefunction amplitudes converged. E(Corr)=     -419.29398554    
 Largest amplitude= 4.00D-02
 Time for triples=    35711.17 seconds.
 T4(CCSD)= -0.58216959D-01
 T5(CCSD)=  0.37103140D-02
 CCSD(T)= -0.41934849219D+03

 S**2, projected HF & approx projected MPn energies after annihilation of
 unwanted spin states (see manual for definitions):

 spins       (S**2,0) (S**2,1)    PUHF        PMP2        PMP3        PMP4
 annihilated
 s+1         0.74969  0.75011 -417.971781 -419.252881 -419.271933
 s+1,s+2     0.75000  0.75000 -417.971714 -419.252822 -419.271883
 s+1 to s+3  0.75000  0.75000 -417.971714 -419.252822 -419.271883
 s+1 to s+4  0.75000  0.75000 -417.971714 -419.252822 -419.271882
 s+1 to s+5  0.75000  0.75000 -417.971714
 s+1 to s+6  0.75000  0.75000 -417.971714

 Discarding MO integrals.

 **********************************************************************

            Population analysis using the SCF density.

 **********************************************************************

 Orbital symmetries:
 Alpha Orbitals:
       Occupied  (A) (A) (A) (A) (A) (A) (A) (A) (A) (A) (A) (A)
                 (A) (A) (A) (A) (A) (A) (A) (A) (A) (A) (A) (A)
                 (A) (A) (A) (A) (A) (A) (A)
       Virtual   (A) (A) (A) (A) (A) (A) (A) (A) (A) (A) (A) (A)
                 (A) (A) (A) (A) (A) (A) (A) (A) (A) (A) (A) (A)
                 (A) (A) (A) (A) (A) (A) (A) (A) (A) (A) (A) (A)
                 (A) (A) (A) (A) (A) (A) (A) (A) (A) (A) (A) (A)
                 (A) (A) (A) (A) (A) (A) (A) (A) (A) (A) (A) (A)
                 (A) (A) (A) (A) (A) (A) (A) (A) (A) (A) (A) (A)
                 (A) (A) (A) (A) (A) (A) (A) (A) (A) (A) (A) (A)
                 (A) (A) (A) (A) (A) (A) (A) (A) (A) (A) (A) (A)
                 (A) (A) (A) (A) (A) (A) (A) (A) (A) (A) (A) (A)
                 (A) (A) (A) (A) (A) (A) (A) (A) (A) (A) (A) (A)
                 (A) (A) (A) (A) (A) (A) (A) (A) (A) (A) (A) (A)
                 (A) (A) (A) (A) (A) (A) (A) (A) (A) (A) (A) (A)
                 (A) (A) (A) (A) (A) (A) (A) (A) (A) (A) (A) (A)
                 (A) (A) (A) (A) (A) (A) (A) (A) (A) (A) (A) (A)
                 (A) (A) (A) (A) (A) (A) (A) (A) (A) (A) (A) (A)
                 (A) (A) (A) (A) (A) (A) (A) (A) (A) (A) (A) (A)
                 (A)
 Beta  Orbitals:
       Occupied  (A) (A) (A) (A) (A) (A) (A) (A) (A) (A) (A) (A)
                 (A) (A) (A) (A) (A) (A) (A) (A) (A) (A) (A) (A)
                 (A) (A) (A) (A) (A) (A)
       Virtual   (A) (A) (A) (A) (A) (A) (A) (A) (A) (A) (A) (A)
                 (A) (A) (A) (A) (A) (A) (A) (A) (A) (A) (A) (A)
                 (A) (A) (A) (A) (A) (A) (A) (A) (A) (A) (A) (A)
                 (A) (A) (A) (A) (A) (A) (A) (A) (A) (A) (A) (A)
                 (A) (A) (A) (A) (A) (A) (A) (A) (A) (A) (A) (A)
                 (A) (A) (A) (A) (A) (A) (A) (A) (A) (A) (A) (A)
                 (A) (A) (A) (A) (A) (A) (A) (A) (A) (A) (A) (A)
                 (A) (A) (A) (A) (A) (A) (A) (A) (A) (A) (A) (A)
                 (A) (A) (A) (A) (A) (A) (A) (A) (A) (A) (A) (A)
                 (A) (A) (A) (A) (A) (A) (A) (A) (A) (A) (A) (A)
                 (A) (A) (A) (A) (A) (A) (A) (A) (A) (A) (A) (A)
                 (A) (A) (A) (A) (A) (A) (A) (A) (A) (A) (A) (A)
                 (A) (A) (A) (A) (A) (A) (A) (A) (A) (A) (A) (A)
                 (A) (A) (A) (A) (A) (A) (A) (A) (A) (A) (A) (A)
                 (A) (A) (A) (A) (A) (A) (A) (A) (A) (A) (A) (A)
                 (A) (A) (A) (A) (A) (A) (A) (A) (A) (A) (A) (A)
                 (A) (A)
 The electronic state is 2-A.
 Alpha  occ. eigenvalues --  -20.62959 -20.61339 -20.57468 -11.42795 -11.30896
 Alpha  occ. eigenvalues --  -11.27728 -11.26941 -11.25392  -1.49663  -1.39602
 Alpha  occ. eigenvalues --   -1.38022  -1.09238  -1.05818  -0.93375  -0.84890
 Alpha  occ. eigenvalues --   -0.78703  -0.73734  -0.72582  -0.70773  -0.69539
 Alpha  occ. eigenvalues --   -0.65236  -0.61480  -0.59333  -0.56980  -0.54688
 Alpha  occ. eigenvalues --   -0.53821  -0.49730  -0.49176  -0.44136  -0.43599
 Alpha  occ. eigenvalues --   -0.43449
 Alpha virt. eigenvalues --    0.03485   0.04379   0.06177   0.06711   0.06960
 Alpha virt. eigenvalues --    0.07555   0.09131   0.10004   0.11096   0.11444
 Alpha virt. eigenvalues --    0.12363   0.13729   0.14677   0.15416   0.16364
 Alpha virt. eigenvalues --    0.17238   0.17368   0.18300   0.19360   0.19573
 Alpha virt. eigenvalues --    0.20502   0.20557   0.21489   0.22477   0.22955
 Alpha virt. eigenvalues --    0.23681   0.25018   0.27991   0.28618   0.29446
 Alpha virt. eigenvalues --    0.30037   0.31221   0.31648   0.34265   0.34606
 Alpha virt. eigenvalues --    0.35445   0.35773   0.36910   0.38238   0.38759
 Alpha virt. eigenvalues --    0.40535   0.41092   0.41582   0.43025   0.44310
 Alpha virt. eigenvalues --    0.44893   0.46742   0.47831   0.49167   0.49768
 Alpha virt. eigenvalues --    0.54465   0.56647   0.58461   0.58803   0.62658
 Alpha virt. eigenvalues --    0.65878   0.68120   0.69798   0.71732   0.73492
 Alpha virt. eigenvalues --    0.75310   0.79796   0.81450   0.82798   0.83567
 Alpha virt. eigenvalues --    0.84322   0.85336   0.86510   0.87695   0.89279
 Alpha virt. eigenvalues --    0.90139   0.91249   0.95439   0.96272   1.00628
 Alpha virt. eigenvalues --    1.06575   1.08610   1.15432   1.19087   1.24647
 Alpha virt. eigenvalues --    1.26581   1.27060   1.28682   1.30171   1.30456
 Alpha virt. eigenvalues --    1.32319   1.35892   1.36471   1.37961   1.39994
 Alpha virt. eigenvalues --    1.40879   1.41557   1.46692   1.48724   1.50616
 Alpha virt. eigenvalues --    1.52331   1.55412   1.57876   1.62352   1.64773
 Alpha virt. eigenvalues --    1.65793   1.70122   1.75694   1.77307   1.80669
 Alpha virt. eigenvalues --    1.83104   1.83681   1.85061   1.86026   1.88513
 Alpha virt. eigenvalues --    1.90487   1.91059   1.93717   1.94076   1.99101
 Alpha virt. eigenvalues --    2.00647   2.08006   2.09004   2.12273   2.15278
 Alpha virt. eigenvalues --    2.18323   2.25723   2.27237   2.32922   2.35362
 Alpha virt. eigenvalues --    2.40153   2.40678   2.47302   2.52562   2.56535
 Alpha virt. eigenvalues --    2.66440   2.70997   2.79532   2.80794   2.83673
 Alpha virt. eigenvalues --    2.85188   2.90199   2.91464   2.93333   2.94616
 Alpha virt. eigenvalues --    2.95030   2.98977   3.02419   3.05502   3.12991
 Alpha virt. eigenvalues --    3.13414   3.16725   3.22444   3.26019   3.27957
 Alpha virt. eigenvalues --    3.30627   3.35567   3.36102   3.39137   3.43617
 Alpha virt. eigenvalues --    3.46214   3.48709   3.50665   3.54964   3.59515
 Alpha virt. eigenvalues --    3.64473   3.68312   3.70432   3.77162   3.81336
 Alpha virt. eigenvalues --    3.91871   4.02325   4.10838   4.13580   4.19424
 Alpha virt. eigenvalues --    4.20789   4.35093   4.43741   4.50973   4.53353
 Alpha virt. eigenvalues --    4.68398   5.51672   5.55694   5.60946   5.75773
 Alpha virt. eigenvalues --    5.79316   5.90600   6.06334   6.19811   6.41426
 Alpha virt. eigenvalues --   24.68621  24.99332  25.01302  25.06964  26.28653
 Alpha virt. eigenvalues --   51.53213  51.58648  51.70168
  Beta  occ. eigenvalues --  -20.62946 -20.57885 -20.57469 -11.42797 -11.31011
  Beta  occ. eigenvalues --  -11.27727 -11.26941 -11.24045  -1.49643  -1.39536
  Beta  occ. eigenvalues --   -1.25989  -1.08866  -1.04486  -0.91882  -0.83447
  Beta  occ. eigenvalues --   -0.78606  -0.73699  -0.70743  -0.70203  -0.64981
  Beta  occ. eigenvalues --   -0.61175  -0.58860  -0.56886  -0.53929  -0.50364
  Beta  occ. eigenvalues --   -0.50000  -0.49305  -0.47985  -0.43631  -0.43582
  Beta virt. eigenvalues --    0.03462   0.04247   0.04998   0.06210   0.06934
  Beta virt. eigenvalues --    0.07488   0.07974   0.09319   0.10352   0.11439
  Beta virt. eigenvalues --    0.11656   0.12452   0.13815   0.14715   0.15578
  Beta virt. eigenvalues --    0.16385   0.17280   0.17394   0.18442   0.19509
  Beta virt. eigenvalues --    0.19783   0.20572   0.20727   0.21551   0.22510
  Beta virt. eigenvalues --    0.23003   0.23784   0.25165   0.28415   0.28705
  Beta virt. eigenvalues --    0.29684   0.30180   0.31560   0.32156   0.34373
  Beta virt. eigenvalues --    0.34975   0.35748   0.36640   0.37283   0.38389
  Beta virt. eigenvalues --    0.39068   0.40576   0.41155   0.41793   0.43399
  Beta virt. eigenvalues --    0.44893   0.44970   0.46966   0.47931   0.49824
  Beta virt. eigenvalues --    0.53575   0.54781   0.56731   0.58695   0.58947
  Beta virt. eigenvalues --    0.62762   0.66186   0.68329   0.69972   0.71992
  Beta virt. eigenvalues --    0.73885   0.75651   0.79986   0.81669   0.83593
  Beta virt. eigenvalues --    0.84386   0.85578   0.86269   0.87032   0.87796
  Beta virt. eigenvalues --    0.89559   0.90808   0.91546   0.95900   0.96396
  Beta virt. eigenvalues --    1.00671   1.06766   1.08765   1.16633   1.19443
  Beta virt. eigenvalues --    1.25872   1.26931   1.28065   1.29069   1.31014
  Beta virt. eigenvalues --    1.32675   1.34680   1.36372   1.36886   1.39248
  Beta virt. eigenvalues --    1.40524   1.41556   1.42325   1.47101   1.48781
  Beta virt. eigenvalues --    1.50795   1.52902   1.55538   1.58114   1.63260
  Beta virt. eigenvalues --    1.64930   1.66006   1.70988   1.76103   1.79123
  Beta virt. eigenvalues --    1.80834   1.83397   1.84613   1.85372   1.86209
  Beta virt. eigenvalues --    1.88916   1.91061   1.91656   1.94111   1.96049
  Beta virt. eigenvalues --    1.99499   2.00754   2.08009   2.09014   2.12295
  Beta virt. eigenvalues --    2.15542   2.18373   2.25852   2.28042   2.33389
  Beta virt. eigenvalues --    2.36014   2.40507   2.41641   2.47857   2.53558
  Beta virt. eigenvalues --    2.57781   2.68773   2.71195   2.79605   2.80659
  Beta virt. eigenvalues --    2.83796   2.85482   2.90328   2.91575   2.93405
  Beta virt. eigenvalues --    2.94778   2.95368   2.99533   3.02135   3.05445
  Beta virt. eigenvalues --    3.13097   3.13438   3.16868   3.22178   3.27941
  Beta virt. eigenvalues --    3.30260   3.34142   3.35991   3.36411   3.39214
  Beta virt. eigenvalues --    3.43863   3.46330   3.50676   3.54932   3.57597
  Beta virt. eigenvalues --    3.59630   3.64729   3.68594   3.70651   3.77205
  Beta virt. eigenvalues --    3.86623   3.91934   4.02345   4.10974   4.15482
  Beta virt. eigenvalues --    4.19742   4.21465   4.39651   4.43889   4.51055
  Beta virt. eigenvalues --    4.53656   4.69135   5.53788   5.55811   5.60948
  Beta virt. eigenvalues --    5.75814   5.87805   5.90633   6.09195   6.19833
  Beta virt. eigenvalues --    6.41435  24.68621  24.99330  25.01313  25.07842
  Beta virt. eigenvalues --   26.28653  51.55163  51.58690  51.70168
          Condensed to atoms (all electrons):
               1          2          3          4          5          6
     1  C    6.275479   0.467344  -1.441163   1.489040  -0.098631  -0.137091
     2  H    0.467344   0.396574  -0.122690   0.046576  -0.003460  -0.006542
     3  C   -1.441163  -0.122690  10.146785  -3.360891   0.135567  -0.081760
     4  C    1.489040   0.046576  -3.360891   7.948313   0.389902  -0.042460
     5  O   -0.098631  -0.003460   0.135567   0.389902   8.027008  -0.098172
     6  O   -0.137091  -0.006542  -0.081760  -0.042460  -0.098172   8.518388
     7  C    0.059138  -0.000724  -0.433228  -0.040200  -0.063467   0.239669
     8  C    0.037587   0.001618  -0.108721   0.142170   0.027737  -0.188573
     9  H   -0.002925  -0.000151   0.004556  -0.011854  -0.013115  -0.043327
    10  H   -0.000524  -0.000189  -0.008528   0.002986  -0.009352  -0.032170
    11  H   -0.001115  -0.000058   0.004278  -0.006450  -0.001887  -0.008386
    12  H   -0.000787   0.000135   0.008651   0.008418  -0.000341   0.002788
    13  H   -0.001007  -0.000024   0.004824  -0.000391   0.001822   0.021050
    14  O    0.000212  -0.000017  -0.006182  -0.003875  -0.000282  -0.005605
    15  H   -0.001850  -0.000403   0.013517  -0.005972   0.000124   0.003760
               7          8          9         10         11         12
     1  C    0.059138   0.037587  -0.002925  -0.000524  -0.001115  -0.000787
     2  H   -0.000724   0.001618  -0.000151  -0.000189  -0.000058   0.000135
     3  C   -0.433228  -0.108721   0.004556  -0.008528   0.004278   0.008651
     4  C   -0.040200   0.142170  -0.011854   0.002986  -0.006450   0.008418
     5  O   -0.063467   0.027737  -0.013115  -0.009352  -0.001887  -0.000341
     6  O    0.239669  -0.188573  -0.043327  -0.032170  -0.008386   0.002788
     7  C    5.682942  -0.162926   0.469231   0.414034   0.015548  -0.090332
     8  C   -0.162926   6.024062  -0.072039  -0.029099   0.330438   0.299861
     9  H    0.469231  -0.072039   0.504161  -0.040703   0.004252  -0.006026
    10  H    0.414034  -0.029099  -0.040703   0.534375  -0.007172   0.006944
    11  H    0.015548   0.330438   0.004252  -0.007172   0.573154  -0.037629
    12  H   -0.090332   0.299861  -0.006026   0.006944  -0.037629   0.628597
    13  H   -0.031877   0.390189  -0.003549  -0.006419  -0.031981  -0.035977
    14  O   -0.004718  -0.015053  -0.009078   0.001825  -0.008491   0.009406
    15  H    0.012905   0.018684   0.001928  -0.000512  -0.002314  -0.043294
              13         14         15
     1  C   -0.001007   0.000212  -0.001850
     2  H   -0.000024  -0.000017  -0.000403
     3  C    0.004824  -0.006182   0.013517
     4  C   -0.000391  -0.003875  -0.005972
     5  O    0.001822  -0.000282   0.000124
     6  O    0.021050  -0.005605   0.003760
     7  C   -0.031877  -0.004718   0.012905
     8  C    0.390189  -0.015053   0.018684
     9  H   -0.003549  -0.009078   0.001928
    10  H   -0.006419   0.001825  -0.000512
    11  H   -0.031981  -0.008491  -0.002314
    12  H   -0.035977   0.009406  -0.043294
    13  H    0.523343   0.001234   0.002977
    14  O    0.001234   8.037701   0.303493
    15  H    0.002977   0.303493   0.453733
          Atomic-Atomic Spin Densities.
               1          2          3          4          5          6
     1  C    0.007452   0.000459  -0.021808   0.013673   0.000050   0.000111
     2  H    0.000459   0.000072  -0.001582   0.000961   0.000011  -0.000013
     3  C   -0.021808  -0.001582   0.057934  -0.034731   0.000508   0.000297
     4  C    0.013673   0.000961  -0.034731   0.016022   0.000539   0.001966
     5  O    0.000050   0.000011   0.000508   0.000539  -0.000644   0.000478
     6  O    0.000111  -0.000013   0.000297   0.001966   0.000478   0.003434
     7  C   -0.000989   0.000038   0.010412  -0.001021  -0.000616   0.006529
     8  C    0.002355   0.000040  -0.011512   0.005843  -0.000858  -0.010635
     9  H   -0.000036   0.000007   0.000131  -0.000375   0.000397   0.001245
    10  H    0.000147  -0.000006  -0.001826  -0.002359  -0.000373  -0.003953
    11  H   -0.000193   0.000015   0.001535   0.000206   0.000085   0.001806
    12  H    0.000055  -0.000081  -0.004445  -0.002333  -0.000173  -0.012610
    13  H   -0.000013   0.000002   0.000181   0.000527   0.000096   0.001508
    14  O    0.000212   0.000041   0.001006   0.001403   0.000236   0.006804
    15  H   -0.001024  -0.000081   0.002598  -0.001479  -0.000157  -0.000396
               7          8          9         10         11         12
     1  C   -0.000989   0.002355  -0.000036   0.000147  -0.000193   0.000055
     2  H    0.000038   0.000040   0.000007  -0.000006   0.000015  -0.000081
     3  C    0.010412  -0.011512   0.000131  -0.001826   0.001535  -0.004445
     4  C   -0.001021   0.005843  -0.000375  -0.002359   0.000206  -0.002333
     5  O   -0.000616  -0.000858   0.000397  -0.000373   0.000085  -0.000173
     6  O    0.006529  -0.010635   0.001245  -0.003953   0.001806  -0.012610
     7  C   -0.044865  -0.066996   0.005642   0.011833   0.000731   0.028633
     8  C   -0.066996   0.687330  -0.006327  -0.003605  -0.026518   0.052890
     9  H    0.005642  -0.006327   0.006371  -0.003112   0.000674  -0.003047
    10  H    0.011833  -0.003605  -0.003112   0.024656  -0.000774  -0.001503
    11  H    0.000731  -0.026518   0.000674  -0.000774  -0.028729   0.017697
    12  H    0.028633   0.052890  -0.003047  -0.001503   0.017697  -0.275424
    13  H    0.006542  -0.027381   0.000062  -0.001414   0.003898   0.007391
    14  O   -0.004382  -0.067340   0.002614  -0.000188   0.001403   0.000273
    15  H    0.001135   0.001992  -0.000667   0.000440  -0.001050   0.012584
              13         14         15
     1  C   -0.000013   0.000212  -0.001024
     2  H    0.000002   0.000041  -0.000081
     3  C    0.000181   0.001006   0.002598
     4  C    0.000527   0.001403  -0.001479
     5  O    0.000096   0.000236  -0.000157
     6  O    0.001508   0.006804  -0.000396
     7  C    0.006542  -0.004382   0.001135
     8  C   -0.027381  -0.067340   0.001992
     9  H    0.000062   0.002614  -0.000667
    10  H   -0.001414  -0.000188   0.000440
    11  H    0.003898   0.001403  -0.001050
    12  H    0.007391   0.000273   0.012584
    13  H   -0.018184   0.003601  -0.000786
    14  O    0.003601   0.812644  -0.002782
    15  H   -0.000786  -0.002782  -0.030062
 Mulliken charges and spin densities:
               1          2
     1  C   -0.643709   0.000450
     2  H    0.222010  -0.000117
     3  C    1.244983  -0.001302
     4  C   -0.555313  -0.001158
     5  O   -0.293453  -0.000422
     6  O   -0.141570  -0.003430
     7  C   -0.065994  -0.047372
     8  C   -0.695935   0.529279
     9  H    0.218638   0.003579
    10  H    0.174503   0.017962
    11  H    0.177813  -0.029215
    12  H    0.249586  -0.180093
    13  H    0.165787  -0.023969
    14  O   -0.300570   0.755543
    15  H    0.243225  -0.019736
 Sum of Mulliken charges =  -0.00000   1.00000
 Mulliken charges and spin densities with hydrogens summed into heavy atoms:
               1          2
     1  C   -0.421698   0.000333
     3  C    1.244983  -0.001302
     4  C   -0.555313  -0.001158
     5  O   -0.293453  -0.000422
     6  O   -0.141570  -0.003430
     7  C    0.327147  -0.025831
     8  C   -0.102750   0.296002
    14  O   -0.057345   0.735808
 Electronic spatial extent (au):  <R**2>=           1257.4175
 Charge=             -0.0000 electrons
 Dipole moment (field-independent basis, Debye):
    X=              0.6186    Y=              0.7674    Z=              1.5935  Tot=              1.8737
 Quadrupole moment (field-independent basis, Debye-Ang):
   XX=            -45.0031   YY=            -49.5575   ZZ=            -48.9224
   XY=             15.6904   XZ=              0.1991   YZ=             -0.4802
 Traceless Quadrupole moment (field-independent basis, Debye-Ang):
   XX=              2.8245   YY=             -1.7298   ZZ=             -1.0947
   XY=             15.6904   XZ=              0.1991   YZ=             -0.4802
 Octapole moment (field-independent basis, Debye-Ang**2):
  XXX=             24.4261  YYY=              9.9042  ZZZ=             -2.0486  XYY=             10.0890
  XXY=             11.1915  XXZ=             13.2163  XZZ=             -4.6781  YZZ=             -1.9409
  YYZ=              5.8788  XYZ=             -3.4620
 Hexadecapole moment (field-independent basis, Debye-Ang**3):
 XXXX=          -1028.8218 YYYY=           -407.7769 ZZZZ=           -105.1603 XXXY=            142.2866
 XXXZ=             14.3696 YYYX=             44.4308 YYYZ=             -4.5744 ZZZX=             -4.0319
 ZZZY=              0.2364 XXYY=           -237.6702 XXZZ=           -218.4722 YYZZ=            -89.1717
 XXYZ=             20.2519 YYXZ=              9.1418 ZZXY=             -2.5710
 N-N= 3.482196745226D+02 E-N=-1.678858389340D+03  KE= 4.176105267325D+02
 1\1\GINC-AJ\SP\UCCSD(T)-FC\6-311++G(d,p)\C5H7O3(2)\AAYUSH\21-Apr-2025\
 0\\# ccsd(t)/6-311++g(d,p) sp\\Title Card Required\\0,2\C,0,2.914343,1
 .31148,0.31915\H,0,3.67726,2.03858,0.473605\C,0,2.057991,0.492094,0.14
 4582\C,0,1.050918,-0.530548,-0.093371\O,0,1.279481,-1.610863,-0.5555\O
 ,0,-0.163985,-0.100685,0.271214\C,0,-1.243913,-1.028896,0.048542\C,0,-
 2.486822,-0.388995,0.593655\H,0,-1.318788,-1.224493,-1.023019\H,0,-1.0
 07745,-1.969653,0.554501\H,0,-2.427769,-0.152427,1.654923\H,0,-2.60346
 3,0.708,0.016946\H,0,-3.391655,-0.940276,0.342607\O,0,-2.303784,1.8017
 88,-0.581564\H,0,-1.365424,1.833064,-0.334288\\Version=ES64L-G16RevA.0
 3\State=2-A\HF=-417.9627645\MP2=-419.246761\MP3=-419.2684117\MP4D=-419
 .3002173\MP4DQ=-419.2743884\PUHF=-417.971781\PMP2-0=-419.2528809\PMP3-
 0=-419.2719333\MP4SDQ=-419.2946266\CCSD=-419.2939855\CCSD(T)=-419.3484
 922\S2=0.788892\S2-1=0.763707\S2A=0.750513\RMSD=2.412e-09\PG=C01 [X(C5
 H7O3)]\\@


 THE 2ND LAW OF THERMODYNAMICS HAS THE SAME
 DEGREE OF TRUTH AS THE STATEMENT THAT IF YOU THROW
 A TUMBLERFULL OF WATER INTO THE SEA, YOU CANNOT GET
 THE SAME TUMBLERFULL OF WATER OUT AGAIN.
          - J.C. MAXWELL, LETTER TO LORD RAYLEIGH, DECEMBER 6,1870
 Job cpu time:       0 days 16 hours 54 minutes 55.0 seconds.
 Elapsed time:       0 days  0 hours 42 minutes 28.8 seconds.
 File lengths (MBytes):  RWF=  44258 Int=      0 D2E=      0 Chk=      5 Scr=      1
 Normal termination of Gaussian 16 at Mon Apr 21 01:01:06 2025.
